G3.5ncore-PETIM in water
38113
    1aaa     N1    1   2.197   7.133   6.668 -0.6240  0.8449 -0.3820
    1aaa     C1    2   2.303   7.127   6.773  0.6661  0.6424 -0.2324
    1aaa     H1    3   2.286   7.189   6.862 -0.8104  1.1629 -0.8642
    1aaa     H2    4   2.310   7.022   6.804  1.6527  0.1889 -1.9283
    1aaa     C2    5   2.065   7.078   6.719 -0.4807 -0.4761 -0.3470
    1aaa     H3    6   2.039   7.119   6.817  0.4551 -0.0903 -0.2565
    1aaa     H4    7   1.990   7.105   6.643 -1.3875  2.0522  1.3776
    1aaa     C3    8   2.184   7.267   6.618  0.3920  0.3123  0.5207
    1aaa     H5    9   2.134   7.343   6.679  0.3607  0.4600  0.3131
    1aaa     H6   10   2.282   7.316   6.605  0.8626 -0.4347  1.2307
    1aaa     C4   11   2.123   7.271   6.476 -0.5113 -0.5418 -1.0226
    1aaa     H7   12   2.197   7.219   6.414  2.1782  0.4744  1.2359
    1aaa     H8   13   2.043   7.198   6.460 -1.6185  0.5008 -0.3176
    1aaa     C5   14   2.447   7.159   6.728  0.4016 -0.6597  0.3671
    1aaa     H9   15   2.463   7.094   6.641  0.7511 -0.4066  0.2402
    1aaa    H10   16   2.467   7.262   6.700  0.7301 -0.8136  0.0378
    1aaa     C6   17   2.065   6.927   6.734  0.0420  0.2085  0.2401
    1aaa    H11   18   2.100   6.900   6.633 -0.9359  1.6261 -0.4932
    1aaa    H12   19   2.129   6.896   6.817 -2.2091 -0.6576  1.6904
    1aaa     C7   20   1.924   6.865   6.746  0.4030 -0.9430  1.2133
    1aaa    H13   21   1.884   6.874   6.644 -1.0301  0.9132  1.9077
    1aaa    H14   22   1.914   6.757   6.758 -1.0054 -0.9303  0.2595
    1aaa     C8   23   2.095   7.407   6.408  0.6080 -0.2480 -0.5274
    1aaa    H15   24   2.018   7.460   6.466 -0.6183 -2.9101  0.3633
    1aaa    H16   25   2.183   7.472   6.410  0.1623  0.3449 -0.0655
    1aaa     C9   26   2.554   7.110   6.823  0.1898  0.1745  0.3327
    1aaa    H17   27   2.557   7.000   6.833  0.4075  0.2111  0.6695
    1aaa    H18   28   2.654   7.135   6.785 -0.3256  2.3473  0.3460
    2bbb     N1   29   1.654   7.258   6.618 -0.0497 -0.5507  0.5358
    2bbb     C1   30   1.650   7.397   6.670 -0.1122 -0.0968 -0.5105
    2bbb     H1   31   1.573   7.410   6.747 -1.9624 -2.5512 -1.8702
    2bbb     H2   32   1.619   7.463   6.588 -0.0806 -0.8181 -1.1050
    2bbb     C2   33   1.741   7.243   6.494 -0.0388 -0.4153  0.3904
    2bbb     H3   34   1.739   7.140   6.458  0.0257  0.2810 -1.7005
    2bbb     H4   35   1.847   7.259   6.520  0.9398 -2.7484 -2.0285
    2bbb     C3   36   1.676   7.165   6.731 -0.4411 -0.3395 -0.1340
    2bbb     H5   37   1.608   7.199   6.811 -1.0771 -2.1832  0.1357
    2bbb     H6   38   1.778   7.186   6.768  0.2093 -3.6074  0.0931
    2bbb     C4   39   1.657   7.014   6.707  0.0865  0.3209  0.6212
    2bbb     H7   40   1.712   6.984   6.617 -0.0780  0.1861  0.5655
    2bbb     H8   41   1.548   7.000   6.695  0.0979  0.9620 -0.3206
    2bbb     C5   42   1.791   7.452   6.730 -0.2165 -0.5842  0.4554
    2bbb     H9   43   1.869   7.420   6.659 -0.2410 -1.0317  0.6272
    2bbb    H10   44   1.803   7.397   6.824 -0.6246  0.7527  1.3020
    2bbb     C6   45   1.707   7.331   6.371 -0.4378 -0.4907 -0.3112
    2bbb    H11   46   1.774   7.301   6.290 -1.0545  0.2637 -1.1158
    2bbb    H12   47   1.735   7.436   6.384 -1.4168 -0.0630 -1.5590
    2bbb     C7   48   1.708   6.935   6.828 -0.1221 -0.0692  0.2974
    2bbb    H13   49   1.672   6.833   6.809  2.3444 -0.7990 -0.7107
    2bbb    H14   50   1.668   6.970   6.924 -0.2395  0.4541  0.0587
    2bbb     C8   51   1.560   7.318   6.328 -0.4217 -0.6500 -0.2517
    2bbb    H15   52   1.543   7.400   6.257 -1.3503 -0.4956  0.1391
    2bbb    H16   53   1.503   7.346   6.418  0.5033  1.5580 -0.3070
    2bbb     C9   54   1.784   7.606   6.742  0.4642 -0.0561  0.3809
    2bbb    H17   55   1.735   7.643   6.651 -3.0582 -2.5081  1.1728
    2bbb    H18   56   1.879   7.659   6.752  0.4925  0.2091 -1.1491
    2bbb     O1   57   1.847   6.942   6.836 -0.2455 -0.1330  0.1487
    3bbb     N1   58   1.916   7.313   5.864 -0.4073 -0.7417 -0.8365
    3bbb     C1   59   2.037   7.232   5.845  0.1312  0.1297 -0.1121
    3bbb     H1   60   2.130   7.290   5.856  1.2015 -1.8958  1.9337
    3bbb     H2   61   2.040   7.194   5.742 -0.1134 -0.4971  0.1114
    3bbb     C2   62   1.796   7.228   5.838 -0.3401 -0.1142  0.2185
    3bbb     H3   63   1.709   7.294   5.839 -2.2441 -2.5875  0.7546
    3bbb     H4   64   1.776   7.154   5.916  0.4905  0.2318  0.7779
    3bbb     C3   65   1.902   7.390   5.994 -0.6517 -0.3820  0.0219
    3bbb     H5   66   1.879   7.317   6.073 -0.0147 -1.4354 -0.7557
    3bbb     H6   67   1.806   7.442   5.985 -0.8029 -0.8254 -0.9421
    3bbb     C4   68   2.009   7.491   6.040 -0.5151  0.1652 -1.0869
    3bbb     H7   69   1.997   7.586   5.987  1.7291  0.3763 -1.2602
    3bbb     H8   70   2.106   7.451   6.008 -0.3422 -0.3465  0.0365
    3bbb     C5   71   2.048   7.117   5.938 -0.7925  0.4177  0.3780
    3bbb     H9   72   1.968   7.045   5.918 -0.3764  0.8919 -3.4000
    3bbb    H10   73   2.037   7.157   6.039  1.3393  0.4940  0.6092
    3bbb     C6   74   1.789   7.166   5.695 -0.3478 -0.3590 -0.1014
    3bbb    H11   75   1.854   7.078   5.687  0.1978 -0.1615  1.8538
    3bbb    H12   76   1.818   7.237   5.617  0.2103 -1.9252 -1.3356
    3bbb     C7   77   2.005   7.510   6.196  0.0752  0.1736  0.0916
    3bbb    H13   78   1.907   7.541   6.232  0.0139 -0.0882  0.1474
    3bbb    H14   79   2.077   7.592   6.212  0.2243 -0.0589  0.6204
    3bbb     C8   80   1.642   7.121   5.675  0.2735 -0.0229 -0.0210
    3bbb    H15   81   1.577   7.206   5.651  0.6504  0.2389 -0.1222
    3bbb    H16   82   1.604   7.069   5.763  1.0526  0.5494  0.6678
    3bbb     C9   83   2.193   7.055   5.920  0.1048  0.6421  0.2646
    3bbb    H17   84   2.210   7.038   5.813 -1.9021  1.0658 -0.1553
    3bbb    H18   85   2.183   6.960   5.974 -0.7566  1.3032  1.3023
    3bbb     O1   86   2.049   7.388   6.272  0.1501  0.1970  0.1611
    4bbb     N1   87   2.622   7.595   7.080 -0.5277 -0.0855  0.5708
    4bbb     C1   88   2.732   7.700   7.095  0.2190 -0.7428  0.1326
    4bbb     H1   89   2.755   7.699   7.202 -1.1177 -1.7734  0.4241
    4bbb     H2   90   2.696   7.804   7.087 -0.6117 -1.1932 -2.3714
    4bbb     C2   91   2.489   7.649   7.110  1.2443  0.1888  0.2598
    4bbb     H3   92   2.492   7.708   7.202  0.1721 -0.8376  0.9740
    4bbb     H4   93   2.428   7.559   7.127  1.1187  0.3252  0.5348
    4bbb     C3   94   2.661   7.477   7.169 -0.0740  0.4380  0.4300
    4bbb     H5   95   2.630   7.504   7.270  0.5617 -0.7333  0.9558
    4bbb     H6   96   2.769   7.458   7.177 -0.1391 -0.3385 -0.4372
    4bbb     C4   97   2.586   7.349   7.121 -0.2608 -0.5560  0.6150
    4bbb     H7   98   2.479   7.354   7.147 -1.0242  0.1458 -2.5282
    4bbb     H8   99   2.624   7.264   7.180  1.8495  2.0619  3.1445
    4bbb     C5  100   2.855   7.671   7.014 -1.0780  0.2145 -0.6946
    4bbb     H9  101   2.904   7.578   7.043 -1.6921 -0.1006 -0.6564
    4bbb    H10  102   2.925   7.751   7.042  0.2320 -2.2008  3.3183
    4bbb     C6  103   2.427   7.739   6.992 -0.2391 -0.0726 -0.2106
    4bbb    H11  104   2.488   7.829   6.976 -0.8543  0.7470  1.8989
    4bbb    H12  105   2.345   7.799   7.033  1.0924  1.9356 -0.4092
    4bbb     C7  106   2.600   7.310   6.973  0.3916 -0.2933 -0.3270
    4bbb    H13  107   2.705   7.307   6.942  0.9973 -1.4255  1.7021
    4bbb    H14  108   2.558   7.388   6.908 -0.5571 -1.8320 -1.5898
    4bbb     C8  109   2.390   7.678   6.854  0.4812  0.5873  0.3179
    4bbb    H15  110   2.490   7.656   6.813  1.6676  0.5294  3.1622
    4bbb    H16  111   2.331   7.749   6.795 -1.4697 -1.5715 -0.3855
    4bbb     C9  112   2.821   7.669   6.864  0.3565 -0.0356  1.2093
    4bbb    H17  113   2.759   7.755   6.835  0.7028 -0.3187 -0.4266
    4bbb    H18  114   2.758   7.581   6.846 -1.8492  1.4889  1.2703
    4bbb     O1  115   2.536   7.176   6.947  0.4055  0.1863 -0.8872
    5bbb     N1  116   1.720   6.839   6.077  0.1645 -0.3206 -0.2085
    5bbb     C1  117   1.702   6.794   5.931 -0.2803 -0.1024 -0.3507
    5bbb     H1  118   1.694   6.885   5.871  0.7255  0.8465  0.9352
    5bbb     H2  119   1.602   6.750   5.919  0.5682 -1.7188 -1.6820
    5bbb     C2  120   1.845   6.907   6.126 -0.2133 -0.2288  0.3595
    5bbb     H3  121   1.841   7.011   6.090 -0.5465  0.5097  2.4351
    5bbb     H4  122   1.930   6.855   6.082 -1.7347 -1.6600 -0.9505
    5bbb     C3  123   1.590   6.900   6.134 -0.4609  0.3572 -0.2671
    5bbb     H5  124   1.596   6.914   6.243  0.4438  0.6213 -0.3462
    5bbb     H6  125   1.516   6.820   6.119  0.0951 -0.0534 -0.8384
    5bbb     C4  126   1.548   7.038   6.072  0.1893 -0.4627  0.2475
    5bbb     H7  127   1.438   7.037   6.068  0.2001  1.2431 -0.6933
    5bbb     H8  128   1.576   7.028   5.967  0.2227 -2.1975  0.4062
    5bbb     C5  129   1.821   6.691   5.881  1.2191  0.2956 -0.6693
    5bbb     H9  130   1.767   6.596   5.879  1.0213  0.3857  0.3826
    5bbb    H10  131   1.908   6.684   5.947  0.1593  0.7256  0.7950
    5bbb     C6  132   1.865   6.898   6.283 -0.7810  0.6245  0.3327
    5bbb    H11  133   1.844   6.798   6.323 -1.6654  0.4809 -0.4727
    5bbb    H12  134   1.786   6.958   6.330 -1.1012  0.4125  0.0639
    5bbb     C7  135   1.600   7.170   6.134 -0.4599  0.4678 -0.8015
    5bbb    H13  136   1.586   7.255   6.066  2.1575  0.5277 -1.3196
    5bbb    H14  137   1.709   7.162   6.144 -0.7490  0.2481  3.4538
    5bbb     C8  138   1.999   6.948   6.334  0.1082  0.8373 -0.5684
    5bbb    H15  139   2.011   6.950   6.443 -1.8760  2.2167 -0.3577
    5bbb    H16  140   2.002   7.055   6.313  0.7596  0.9140 -0.1072
    5bbb     C9  141   1.866   6.727   5.735 -0.0706 -0.3765  0.2379
    5bbb    H17  142   1.887   6.834   5.730 -0.5995 -0.3192 -1.0539
    5bbb    H18  143   1.779   6.716   5.669  0.5060  1.1481 -0.7963
    5bbb     O1  144   1.532   7.183   6.265 -0.3596 -0.6106 -0.5177
    6bbb     N1  145   1.804   7.863   7.235  0.0882 -0.4135  0.7767
    6bbb     C1  146   1.925   7.828   7.313 -0.7405  0.2625 -1.1422
    6bbb     H1  147   1.943   7.720   7.320 -2.2057  0.1173  0.6051
    6bbb     H2  148   1.925   7.868   7.416  2.5550 -2.4134  0.0188
    6bbb     C2  149   1.666   7.876   7.306  0.2659 -0.4523 -0.7273
    6bbb     H3  150   1.628   7.776   7.328 -1.2363 -0.0328 -1.4048
    6bbb     H4  151   1.602   7.922   7.230 -0.2185  1.6973  0.9103
    6bbb     C3  152   1.796   7.802   7.095 -0.1482 -0.5285  0.7524
    6bbb     H5  153   1.824   7.697   7.108  1.6117 -0.2381 -0.4153
    6bbb     H6  154   1.873   7.848   7.031 -1.5623 -0.5654 -1.0132
    6bbb     C4  155   1.659   7.815   7.026 -0.1654 -0.3468 -0.0081
    6bbb     H7  156   1.631   7.921   7.033 -0.1133 -0.3457  0.1809
    6bbb     H8  157   1.573   7.755   7.057 -1.7860  1.2068 -1.4032
    6bbb     C5  158   2.057   7.882   7.243  0.6632  0.6139  0.0203
    6bbb     H9  159   2.066   7.990   7.259  1.1195  1.1176 -3.1689
    6bbb    H10  160   2.059   7.859   7.135  0.6983 -0.4104  0.2285
    6bbb     C6  161   1.663   7.962   7.435  0.1090  0.1561 -0.9467
    6bbb    H11  162   1.711   8.057   7.411  1.3070 -0.0986  0.3430
    6bbb    H12  163   1.719   7.915   7.517 -0.2417 -1.2596 -1.5029
    6bbb     C7  164   1.684   7.779   6.874  0.6766  0.1416  0.1063
    6bbb    H13  165   1.775   7.832   6.842 -0.6250  1.1217 -2.0952
    6bbb    H14  166   1.600   7.820   6.815  1.0353  0.0431 -0.4789
    6bbb     C8  167   1.516   7.977   7.491  0.4424 -0.4951 -0.5857
    6bbb    H15  168   1.453   8.039   7.426  1.9705  1.7950  0.0352
    6bbb    H16  169   1.517   8.034   7.585 -0.8540  0.6851 -1.2723
    6bbb     C9  170   2.181   7.803   7.301  0.0094  0.2027  0.4030
    6bbb    H17  171   2.273   7.835   7.251  0.2368  1.0970  1.3870
    6bbb    H18  172   2.176   7.693   7.293  0.6302  0.0391  2.0617
    6bbb     O1  173   1.704   7.637   6.854  0.6287 -0.0422 -0.1543
    7bbb     N1  174   1.686   6.689   5.292  0.7689 -0.3677  0.8919
    7bbb     C1  175   1.787   6.741   5.194 -0.8477  0.4389 -0.0074
    7bbb     H1  176   1.880   6.760   5.250  0.1204  3.0393 -2.3643
    7bbb     H2  177   1.760   6.837   5.148 -3.6157  0.6628  1.9223
    7bbb     C2  178   1.559   6.635   5.228  0.0221  0.2814  0.2995
    7bbb     H3  179   1.587   6.566   5.148  0.3724 -0.3789  0.9786
    7bbb     H4  180   1.493   6.714   5.192  0.7363 -0.5128 -2.9248
    7bbb     C3  181   1.668   6.775   5.410  0.3771 -0.2014 -0.1011
    7bbb     H5  182   1.765   6.821   5.434  1.5392 -3.0347  0.8449
    7bbb     H6  183   1.641   6.708   5.493  0.0299  1.8936  1.5112
    7bbb     C4  184   1.566   6.887   5.380 -0.2187 -0.0945  0.1292
    7bbb     H7  185   1.469   6.844   5.353  0.8452 -2.5286  0.1232
    7bbb     H8  186   1.597   6.953   5.299  1.2384 -0.0951  0.6698
    7bbb     C5  187   1.825   6.638   5.084  0.3287 -0.1312  0.7313
    7bbb     H9  188   1.886   6.688   5.007 -1.0362  0.6608  0.1399
    7bbb    H10  189   1.735   6.596   5.039  0.5257 -0.0817  0.2934
    7bbb     C6  190   1.480   6.550   5.329 -0.4622 -0.3448 -0.9102
    7bbb    H11  191   1.451   6.618   5.411  1.6021  0.3616 -0.7378
    7bbb    H12  192   1.533   6.471   5.383 -1.7308 -0.9459 -0.5266
    7bbb     C7  193   1.537   6.973   5.512 -0.4394  0.2999  0.1062
    7bbb    H13  194   1.511   6.904   5.593 -0.9553  0.6988  0.2809
    7bbb    H14  195   1.448   7.033   5.492  0.5648  1.4885 -0.9162
    7bbb     C8  196   1.348   6.507   5.255  0.2337 -0.4225 -0.0886
    7bbb    H15  197   1.328   6.578   5.174 -0.7021 -0.2525  0.2787
    7bbb    H16  198   1.262   6.518   5.322 -0.2905 -0.1922 -0.7965
    7bbb     C9  199   1.904   6.520   5.147  0.2491  0.5438  0.0283
    7bbb    H17  200   1.836   6.467   5.215  2.0121  0.8792  2.1345
    7bbb    H18  201   1.992   6.559   5.200  1.3237 -0.6655 -0.8433
    7bbb     O1  202   1.655   7.041   5.556  0.1979 -0.0842 -0.1276
    8bbb     N1  203   2.503   7.384   6.201 -0.3259  1.0350 -0.4542
    8bbb     C1  204   2.528   7.405   6.342  0.0058 -0.1157  0.6000
    8bbb     H1  205   2.440   7.387   6.404 -0.1666  1.9184  0.9683
    8bbb     H2  206   2.545   7.511   6.363 -0.5542  0.0117  0.3983
    8bbb     C2  207   2.392   7.472   6.154  0.7789 -0.2517  0.1843
    8bbb     H3  208   2.309   7.469   6.226  1.5105  1.2081  1.0916
    8bbb     H4  209   2.362   7.437   6.054  3.4521  1.8918 -1.4346
    8bbb     C3  210   2.491   7.239   6.158 -0.0701  0.5864  0.0759
    8bbb     H5  211   2.390   7.212   6.190 -1.3061  3.1883 -1.4319
    8bbb     H6  212   2.564   7.173   6.207 -2.1426 -1.4067  0.5516
    8bbb     C4  213   2.506   7.217   6.010  0.1671 -0.1778  0.3038
    8bbb     H7  214   2.611   7.200   5.982  0.1768  1.7162 -0.9061
    8bbb     H8  215   2.472   7.304   5.953  0.2432 -0.0742  0.4182
    8bbb     C5  216   2.657   7.333   6.397  0.3443 -0.9617  0.4383
    8bbb     H9  217   2.645   7.224   6.400  0.2276 -0.9728 -0.2187
    8bbb    H10  218   2.666   7.362   6.502  2.5994  1.3098 -0.3374
    8bbb     C6  219   2.430   7.623   6.141  0.2179  0.6993 -0.9677
    8bbb    H11  220   2.536   7.639   6.118  0.3915  3.5951  1.4466
    8bbb    H12  221   2.422   7.667   6.242 -2.2081  1.3212 -1.4009
    8bbb     C7  222   2.422   7.094   5.968  0.0974 -0.3672  0.4470
    8bbb    H13  223   2.439   7.007   6.032 -0.1196 -0.2957  0.6055
    8bbb    H14  224   2.452   7.072   5.865 -1.1773 -0.9029  0.1741
    8bbb     C8  225   2.333   7.699   6.042 -0.8261 -0.1007  1.0484
    8bbb    H15  226   2.333   7.808   6.054  4.1236  0.0569  0.9449
    8bbb    H16  227   2.230   7.670   6.065 -0.7756 -0.0973  1.2820
    8bbb     C9  228   2.782   7.376   6.329  0.2383  0.3893 -0.2730
    8bbb    H17  229   2.775   7.486   6.327 -0.1439  0.4739  3.0148
    8bbb    H18  230   2.794   7.329   6.231  1.3190 -0.8374  0.4217
    8bbb     O1  231   2.291   7.140   5.982  0.1892  0.0637  1.0421
    9bbb     N1  232   2.074   7.297   7.157 -0.4398 -0.0827  0.0629
    9bbb     C1  233   2.039   7.171   7.097  0.4293  0.0572  0.7767
    9bbb     H1  234   2.125   7.108   7.075 -0.7259 -1.0427 -0.6719
    9bbb     H2  235   1.999   7.194   6.998  0.7866  1.0393  0.8598
    9bbb     C2  236   2.117   7.289   7.302  0.7062 -0.1960  0.6695
    9bbb     H3  237   2.030   7.264   7.365  1.3003  0.4743  1.7860
    9bbb     H4  238   2.139   7.389   7.341 -2.1403  0.8941 -0.3659
    9bbb     C3  239   2.159   7.391   7.081  0.4499 -0.5165  0.1547
    9bbb     H5  240   2.261   7.358   7.059  0.6373  0.6630 -0.7640
    9bbb     H6  241   2.169   7.482   7.140 -1.0486 -1.0588  1.2826
    9bbb     C4  242   2.097   7.437   6.952  0.2364 -0.0058 -0.1062
    9bbb     H7  243   1.989   7.454   6.964  0.4138 -0.0543  1.6580
    9bbb     H8  244   2.120   7.358   6.880 -0.1773  0.1967 -0.4586
    9bbb     C5  245   1.936   7.081   7.169  0.4669  0.4228 -0.4026
    9bbb     H9  246   1.965   7.059   7.272 -0.8268  2.0018  0.3216
    9bbb    H10  247   1.948   6.989   7.110 -0.1636 -1.1598  1.8962
    9bbb     C6  248   2.241   7.209   7.332  0.2724 -0.4649  0.4954
    9bbb    H11  249   2.326   7.246   7.274  0.8403 -1.8345  0.4398
    9bbb    H12  250   2.228   7.104   7.303 -2.1542 -0.6473  2.1321
    9bbb     C7  251   2.159   7.572   6.912  0.1912  0.3663 -0.7625
    9bbb    H13  252   2.161   7.634   7.002 -0.2872  0.0792 -0.5511
    9bbb    H14  253   2.101   7.628   6.838 -0.0587  0.3417 -0.5866
    9bbb     C8  254   2.287   7.211   7.475 -0.3384 -0.0147  0.0508
    9bbb    H15  255   2.299   7.317   7.503 -0.6714  0.3852 -1.3115
    9bbb    H16  256   2.384   7.161   7.480 -0.4325 -0.3869 -1.6346
    9bbb     C9  257   1.784   7.126   7.158  0.3212 -0.4573  0.0378
    9bbb    H17  258   1.751   7.108   7.055 -0.3821 -0.0820  0.1948
    9bbb    H18  259   1.779   7.231   7.189 -2.0898 -0.8300  1.0401
    9bbb     O1  260   2.303   7.561   6.875 -0.4210  0.6338 -0.4993
   10bbb     N1  261   2.782   7.887   6.375 -0.2781  0.6687  0.1219
   10bbb     C1  262   2.828   8.026   6.409  0.1273  0.2141  0.5897
   10bbb     H1  263   2.920   8.055   6.358 -1.1226  1.5800 -0.9294
   10bbb     H2  264   2.852   8.031   6.516 -0.0766  0.0712  0.6437
   10bbb     C2  265   2.759   7.865   6.233 -0.5232  0.2402  0.0175
   10bbb     H3  266   2.686   7.932   6.187  0.0278  1.2053  0.5490
   10bbb     H4  267   2.714   7.765   6.231 -1.1938  0.5475 -0.2886
   10bbb     C3  268   2.865   7.779   6.438  0.4362 -0.2392  0.5794
   10bbb     H5  269   2.969   7.803   6.413  0.5518 -1.2239  0.0555
   10bbb     H6  270   2.847   7.683   6.387 -0.3256  0.0113  0.3627
   10bbb     C4  271   2.855   7.764   6.590  0.0698 -0.3121 -0.1376
   10bbb     H7  272   2.748   7.767   6.617  0.2002  2.2826  0.1419
   10bbb     H8  273   2.900   7.858   6.624 -1.0673  0.3164 -0.3263
   10bbb     C5  274   2.723   8.132   6.390  0.8493  0.3254  0.2016
   10bbb     H9  275   2.742   8.160   6.285 -0.2318 -1.8071 -0.6089
   10bbb    H10  276   2.756   8.212   6.456  1.0271 -1.3571  2.1997
   10bbb     C6  277   2.887   7.860   6.142  0.4357  0.0496 -0.3506
   10bbb    H11  278   2.957   7.783   6.177 -0.3698  0.0041  1.1672
   10bbb    H12  279   2.939   7.955   6.160  0.3159  0.1553 -0.5595
   10bbb     C7  280   2.931   7.636   6.647  0.0506 -0.2236 -0.3220
   10bbb    H13  281   3.025   7.627   6.591  1.7652  0.4550  2.3318
   10bbb    H14  282   2.875   7.543   6.630  0.1017 -0.8311  2.5783
   10bbb     C8  283   2.867   7.843   5.992 -0.4149 -0.3924  0.5568
   10bbb    H15  284   2.963   7.840   5.939  0.0632  1.4904  1.2874
   10bbb    H16  285   2.815   7.936   5.965  0.2281  0.1867  1.2915
   10bbb     C9  286   2.569   8.095   6.421  0.1186 -0.6639  0.9495
   10bbb    H17  287   2.535   8.016   6.352 -3.0833  1.7664 -0.4041
   10bbb    H18  288   2.511   8.182   6.386  0.6977 -1.2106 -1.4630
   10bbb     O1  289   2.944   7.663   6.790  0.1811  0.2622 -0.3821
   11ccc     C1  290   2.247   6.942   6.257  0.0786 -0.2257 -0.4004
   11ccc     H1  291   2.289   6.911   6.161 -0.9807  0.3500 -1.0646
   11ccc     H2  292   2.237   7.051   6.243 -0.6787 -0.3018 -0.4872
   11ccc     C2  293   2.334   6.904   6.380  0.3689  0.1748 -0.2519
   11ccc     H3  294   2.309   6.800   6.404 -1.0978  0.7709  0.8610
   11ccc     H4  295   2.296   6.954   6.469 -0.3243  0.8747 -0.9370
   11ccc     C3  296   2.490   6.929   6.361  0.1450  0.0923 -0.5984
   11ccc     H5  297   2.511   7.034   6.384 -0.0071 -0.3589  1.7011
   11ccc     H6  298   2.520   6.914   6.257  1.4759 -1.2904 -0.0381
   11ccc     N1  299   2.571   6.836   6.442 -0.2104 -0.2043  0.1978
   11ccc     C4  300   2.718   6.839   6.411  0.5707 -0.5591 -0.6528
   11ccc     H7  301   2.727   6.821   6.303  3.5094  0.7928 -0.6628
   11ccc     H8  302   2.767   6.750   6.453  0.9845 -0.1440 -0.2581
   11ccc     C5  303   2.794   6.963   6.448  0.4980 -0.5810  0.2702
   11ccc     H9  304   2.788   7.046   6.376 -0.2686 -2.8464 -2.3312
   11ccc    H10  305   2.758   7.013   6.539  1.2193  0.8693 -0.2134
   11ccc     C6  306   2.943   6.938   6.446 -0.5244  0.0496 -0.6465
   11ccc     O1  307   3.010   6.952   6.346  0.8549  0.8544 -0.2020
   11ccc     O2  308   2.988   6.855   6.543  0.2578 -0.2925  0.5175
   11ccc    H11  309   2.913   6.869   6.603 -0.5113 -2.3815  0.1009
   11ccc     C7  310   2.536   6.825   6.583  0.5689 -0.7160  0.1186
   11ccc    H12  311   2.588   6.899   6.645 -0.5343 -0.0739  0.3010
   11ccc    H13  312   2.427   6.831   6.598  0.5239 -0.7425 -0.1960
   11ccc     C8  313   2.565   6.682   6.638  0.3342 -0.1887 -0.3676
   11ccc    H14  314   2.672   6.658   6.629  1.3742  2.9485  2.7386
   11ccc    H15  315   2.501   6.612   6.582  1.0665  0.2473 -1.7856
   11ccc     C9  316   2.534   6.672   6.792  0.6346 -0.1442  0.0994
   11ccc     O3  317   2.431   6.713   6.847  0.2713 -0.2431  0.0367
   11ccc     O4  318   2.638   6.628   6.867  0.1978 -0.2846 -0.0303
   11ccc    H16  319   2.705   6.604   6.800  1.2834  2.1885  0.1248
   11ccc     O5  320   2.111   6.884   6.264  0.6436 -0.1931 -0.2268
   12ccc     C1  321   1.992   6.627   5.555  0.1099 -1.0255 -0.3327
   12ccc     H1  322   1.898   6.587   5.515 -1.5804  2.8750 -0.5365
   12ccc     H2  323   2.008   6.728   5.514  2.9556 -1.0930  0.4601
   12ccc     C2  324   2.114   6.536   5.523  0.1413  0.1809  0.3941
   12ccc     H3  325   2.106   6.494   5.422 -1.7919  2.4660 -0.4425
   12ccc     H4  326   2.122   6.443   5.580  2.9022 -1.1072 -1.9693
   12ccc     C3  327   2.250   6.611   5.545  0.2560 -0.1281  0.2669
   12ccc     H5  328   2.272   6.621   5.652 -0.0620 -0.0524  0.3257
   12ccc     H6  329   2.246   6.713   5.503  1.3068  0.6050  1.9050
   12ccc     N1  330   2.360   6.538   5.475  0.2305 -0.8068  0.2244
   12ccc     C4  331   2.479   6.623   5.440  0.8081 -0.0776  0.3103
   12ccc     H7  332   2.572   6.570   5.419  0.8511  0.2111 -0.2350
   12ccc     H8  333   2.492   6.687   5.528  0.0317  0.3908  0.0934
   12ccc     C5  334   2.446   6.727   5.324 -0.6949  0.2321  0.6196
   12ccc     H9  335   2.364   6.792   5.355 -1.1951 -0.2501  0.3291
   12ccc    H10  336   2.539   6.779   5.297  0.2403 -0.0039  3.2080
   12ccc     C6  337   2.403   6.653   5.199 -0.1768 -1.0584 -0.2220
   12ccc     O1  338   2.291   6.625   5.165  0.1948  0.0628 -0.2966
   12ccc     O2  339   2.499   6.586   5.142  1.0078  0.2945  0.1796
   12ccc    H11  340   2.578   6.593   5.199  1.5077 -2.2202 -0.1818
   12ccc     C7  341   2.394   6.408   5.526 -0.0519  0.5856 -0.0531
   12ccc    H12  342   2.307   6.342   5.521  0.9893 -0.8669  0.6447
   12ccc    H13  343   2.471   6.354   5.470 -0.2552 -0.3690  0.5837
   12ccc     C8  344   2.434   6.410   5.669  0.2205  0.3269 -0.2735
   12ccc    H14  345   2.519   6.475   5.692  1.4450 -1.2308 -0.2956
   12ccc    H15  346   2.346   6.437   5.729  1.3789  0.5056  1.3867
   12ccc     C9  347   2.467   6.271   5.718  0.5199  0.3939 -0.6148
   12ccc     O3  348   2.457   6.171   5.650 -0.2044  0.7322 -0.9387
   12ccc     O4  349   2.485   6.255   5.848 -0.5294 -0.0947  0.7221
   12ccc    H16  350   2.458   6.344   5.878 -0.6120  0.7836 -1.8696
   12ccc     O5  351   1.973   6.635   5.694 -0.0336 -0.1507  0.2624
   13ccc     C1  352   1.344   7.840   7.593  0.3731  0.6968 -0.4840
   13ccc     H1  353   1.366   7.886   7.691  0.5127 -0.2601 -0.0557
   13ccc     H2  354   1.263   7.893   7.544 -2.0010 -1.1797  1.2868
   13ccc     C2  355   1.301   7.692   7.616  0.0360 -0.0366 -0.0405
   13ccc     H3  356   1.209   7.681   7.673  0.7725  0.1094  1.1929
   13ccc     H4  357   1.380   7.649   7.679 -0.2058  0.2102  0.4296
   13ccc     C3  358   1.292   7.616   7.485  0.2534  0.7267 -0.2853
   13ccc     H5  359   1.271   7.512   7.513 -0.9053  1.4157  1.4297
   13ccc     H6  360   1.392   7.611   7.439  0.0954 -1.0636 -0.4467
   13ccc     N1  361   1.192   7.658   7.387  0.1108 -0.2623  0.2730
   13ccc     C4  362   1.207   7.610   7.246 -0.4664 -0.5377 -0.1234
   13ccc     H7  363   1.314   7.596   7.225 -0.4909 -0.1016 -0.5587
   13ccc     H8  364   1.172   7.681   7.171  1.7211  0.3022 -0.3812
   13ccc     C5  365   1.137   7.473   7.225 -0.0576  0.4259 -0.4488
   13ccc     H9  366   1.170   7.403   7.302 -2.8582 -2.1727 -1.5081
   13ccc    H10  367   1.030   7.480   7.244  0.2128  0.3133  1.1683
   13ccc     C6  368   1.167   7.408   7.091 -0.2342 -0.1042  0.6144
   13ccc     O1  369   1.222   7.463   6.996  0.4728  0.6581  0.3586
   13ccc     O2  370   1.072   7.320   7.059  0.6520  0.5363 -0.5419
   13ccc    H11  371   1.043   7.281   7.142 -0.9766  0.5032 -1.1142
   13ccc     C7  372   1.055   7.677   7.440  0.5481 -0.4708  0.3715
   13ccc    H12  373   1.022   7.579   7.478 -1.4608  0.1633  0.3126
   13ccc    H13  374   1.061   7.743   7.527 -1.6576  0.6394 -0.2950
   13ccc     C8  375   0.952   7.750   7.359  0.3289 -0.2811  0.1793
   13ccc    H14  376   0.949   7.705   7.259 -1.7255  2.6275 -1.1416
   13ccc    H15  377   0.851   7.737   7.401 -0.6238 -1.4100 -2.3542
   13ccc     C9  378   0.992   7.888   7.325  0.1601 -0.2551 -0.0513
   13ccc     O3  379   1.099   7.946   7.337  0.2968 -0.4361 -0.2757
   13ccc     O4  380   0.906   7.953   7.244 -0.2348 -0.1980  0.1575
   13ccc    H16  381   0.833   7.889   7.243 -1.5469  1.2642  1.2792
   13ccc     O5  382   1.457   7.844   7.504 -0.4822 -0.7326  0.4844
   14ccc     C1  383   2.284   7.956   7.483 -0.6740 -0.6246  0.1073
   14ccc     H1  384   2.349   7.982   7.398 -0.6741 -0.1430  0.2514
   14ccc     H2  385   2.221   8.043   7.506  2.9846  2.2971 -0.4445
   14ccc     C2  386   2.364   7.925   7.610  0.2351  0.0563 -0.0215
   14ccc     H3  387   2.285   7.895   7.681 -2.0156 -1.1184 -2.9383
   14ccc     H4  388   2.415   8.009   7.658  0.3044 -0.3828  0.6903
   14ccc     C3  389   2.461   7.803   7.589 -0.2564 -0.2029 -0.0101
   14ccc     H5  390   2.402   7.719   7.550  0.1569 -0.0477 -0.9903
   14ccc     H6  391   2.486   7.789   7.695 -1.7222 -0.9516  0.2553
   14ccc     N1  392   2.584   7.825   7.503  0.3569  0.0652  0.1435
   14ccc     C4  393   2.672   7.932   7.542 -0.4640  0.0987  0.1940
   14ccc     H7  394   2.710   7.904   7.641  1.8429  0.5240 -0.5552
   14ccc     H8  395   2.617   8.027   7.552 -1.8214 -0.7741  1.2263
   14ccc     C5  396   2.798   7.949   7.454 -0.2032 -0.2005  0.6472
   14ccc     H9  397   2.861   8.028   7.497 -1.7714  0.3300  2.0356
   14ccc    H10  398   2.861   7.859   7.465  0.9028  0.5190  0.2263
   14ccc     C6  399   2.764   7.991   7.309  0.1304 -0.1966  0.0721
   14ccc     O1  400   2.655   8.025   7.257  0.2128  0.5543  0.2012
   14ccc     O2  401   2.867   7.982   7.232 -0.1114  0.4136  0.0275
   14ccc    H11  402   2.937   7.939   7.284  0.5143 -0.7610 -1.7171
   14ccc     C7  403   2.645   7.697   7.484 -0.6602  0.8342 -0.6424
   14ccc    H12  404   2.726   7.691   7.409 -0.2421 -2.6328  0.0242
   14ccc    H13  405   2.569   7.632   7.440  1.5134 -1.6526 -0.8424
   14ccc     C8  406   2.698   7.634   7.610  0.2656  0.6551 -0.1141
   14ccc    H14  407   2.773   7.696   7.660  0.1490 -1.7025  3.1356
   14ccc    H15  408   2.615   7.628   7.681  1.6890  1.8560  1.7146
   14ccc     C9  409   2.729   7.489   7.592 -0.9414  0.4563  0.1807
   14ccc     O3  410   2.652   7.397   7.590 -0.4308 -0.0009  0.2884
   14ccc     O4  411   2.853   7.452   7.601  0.3218 -0.3851  0.2140
   14ccc    H16  412   2.898   7.524   7.553  0.6110 -1.5991 -1.3598
   14ccc     O5  413   2.204   7.840   7.446  0.0327 -0.1860 -0.0429
   15ccc     C1  414   1.260   6.351   5.105  0.1751 -0.0943 -0.1130
   15ccc     H1  415   1.167   6.322   5.156  0.8745 -0.5669  0.9247
   15ccc     H2  416   1.259   6.442   5.044 -1.8103  0.1821  0.2999
   15ccc     C2  417   1.298   6.228   5.020  0.2099  0.0536 -0.9355
   15ccc     H3  418   1.407   6.230   5.012  0.6894 -0.9316  3.7459
   15ccc     H4  419   1.254   6.250   4.922  1.0930  1.9771 -0.9137
   15ccc     C3  420   1.248   6.099   5.085 -0.7030  0.2373  0.4726
   15ccc     H5  421   1.284   6.093   5.188 -2.0323  2.3132  1.0854
   15ccc     H6  422   1.303   6.019   5.034 -0.1141  1.1903 -0.4050
   15ccc     N1  423   1.103   6.085   5.087  0.0827 -0.1390 -0.1469
   15ccc     C4  424   1.056   5.952   5.139 -0.2460 -0.8550 -0.5274
   15ccc     H7  425   1.064   5.869   5.068 -1.9483 -2.7945  1.4800
   15ccc     H8  426   0.953   5.961   5.177 -0.0201  2.0307 -0.4582
   15ccc     C5  427   1.133   5.914   5.272  0.3557  0.3825  0.3929
   15ccc     H9  428   1.236   5.890   5.244 -0.5109  0.0734 -2.7718
   15ccc    H10  429   1.120   5.992   5.348 -0.4716 -0.2461  0.8963
   15ccc     C6  430   1.081   5.782   5.331  0.5860 -0.2407 -0.6265
   15ccc     O1  431   1.000   5.718   5.269  0.5519  0.1553  0.4102
   15ccc     O2  432   1.111   5.749   5.456  0.4464  0.4879  0.2867
   15ccc    H11  433   1.174   5.821   5.473  0.9609  0.0849  0.0848
   15ccc     C7  434   1.021   6.136   4.967 -0.4087  0.1345 -0.4971
   15ccc    H12  435   1.030   6.244   4.952 -0.6933  0.1046 -0.9043
   15ccc    H13  436   1.067   6.090   4.879  3.1837  0.7261  1.0060
   15ccc     C8  437   0.872   6.111   4.964 -0.5588 -0.2038 -0.4365
   15ccc    H14  438   0.855   6.005   4.987  1.6657 -0.7631 -1.1471
   15ccc    H15  439   0.828   6.158   5.052  0.0235  1.0660 -0.8222
   15ccc     C9  440   0.800   6.155   4.838  0.4448  1.2907 -0.4057
   15ccc     O3  441   0.818   6.264   4.785  0.1053 -0.5740 -0.0636
   15ccc     O4  442   0.752   6.066   4.759  0.2836  0.3063  0.2686
   15ccc    H16  443   0.760   5.979   4.801  0.6259  0.2611  0.1167
   15ccc     O5  444   1.361   6.372   5.210  0.3706  0.1110 -0.5711
   16ccc     C1  445   2.004   6.309   5.105  0.1744  0.5351 -0.7435
   16ccc     H1  446   2.066   6.326   5.195  0.2215  2.5094 -1.1200
   16ccc     H2  447   1.912   6.255   5.130  0.8014  0.8063  2.3262
   16ccc     C2  448   2.082   6.229   4.994  0.4237  0.1067 -0.2547
   16ccc     H3  449   2.170   6.283   4.958 -0.2268  2.4163  1.4969
   16ccc     H4  450   2.025   6.208   4.903  1.5578 -0.2315 -0.8913
   16ccc     C3  451   2.127   6.098   5.061  0.4282  0.2157 -0.5407
   16ccc     H5  452   2.166   6.031   4.984  0.4808 -0.0491 -0.2841
   16ccc     H6  453   2.037   6.045   5.093  0.3196  2.2274  2.6635
   16ccc     N1  454   2.225   6.117   5.169 -0.1026 -0.1092  0.4165
   16ccc     C4  455   2.369   6.139   5.120  0.5867 -0.2632 -0.1216
   16ccc     H7  456   2.377   6.127   5.011 -2.3547 -0.9419 -0.2999
   16ccc     H8  457   2.437   6.064   5.162  0.2730 -0.6629 -0.3245
   16ccc     C5  458   2.411   6.284   5.156 -0.7114 -0.3959  0.7737
   16ccc     H9  459   2.370   6.311   5.254 -0.1742  1.6212  0.4484
   16ccc    H10  460   2.363   6.356   5.089 -0.2191  1.3782  2.3025
   16ccc     C6  461   2.556   6.317   5.159 -0.3702 -0.0213 -0.2186
   16ccc     O1  462   2.620   6.314   5.260 -0.0634 -0.1456  0.6003
   16ccc     O2  463   2.628   6.319   5.051  0.0691  0.1748 -0.2394
   16ccc    H11  464   2.563   6.294   4.983 -0.3533  0.6331 -0.0056
   16ccc     C7  465   2.220   6.019   5.275 -0.4641 -0.4116 -0.5002
   16ccc    H12  466   2.270   5.927   5.243  0.4386 -0.8249  2.0717
   16ccc    H13  467   2.115   5.989   5.288 -0.0183 -2.1898 -0.8533
   16ccc     C8  468   2.276   6.059   5.414 -0.0592 -0.3546  0.0832
   16ccc    H14  469   2.214   6.144   5.446 -0.6294 -0.2495 -1.2511
   16ccc    H15  470   2.378   6.097   5.420 -1.0839  2.4188  0.6500
   16ccc     C9  471   2.257   5.937   5.506 -0.9468  0.3115 -0.2790
   16ccc     O3  472   2.195   5.834   5.490  0.2487 -0.0674  0.2203
   16ccc     O4  473   2.327   5.949   5.622  0.2446  0.2554 -0.0530
   16ccc    H16  474   2.366   6.038   5.616  1.0172 -0.0472  0.3520
   16ccc     O5  475   1.953   6.432   5.048  0.0130 -0.1042  0.5769
   17ccc     C1  476   2.258   7.715   5.805  0.6558 -0.2129 -0.3959
   17ccc     H1  477   2.154   7.700   5.835 -0.0289  1.5772 -1.7656
   17ccc     H2  478   2.285   7.820   5.788  3.0703 -0.4894  1.3610
   17ccc     C2  479   2.283   7.628   5.678 -0.1088 -0.2243 -0.0094
   17ccc     H3  480   2.388   7.644   5.651 -0.2863 -2.4477 -2.2173
   17ccc     H4  481   2.228   7.673   5.594  0.8823 -0.7603 -0.9535
   17ccc     C3  482   2.248   7.479   5.696  0.0985 -0.2229  0.7718
   17ccc     H5  483   2.139   7.474   5.707  0.1649 -1.0081  1.1287
   17ccc     H6  484   2.294   7.439   5.787  0.6149 -1.5140 -0.0352
   17ccc     N1  485   2.276   7.393   5.573  0.1493  0.4627  0.1167
   17ccc     C4  486   2.269   7.251   5.587  0.5011 -0.5062 -0.0724
   17ccc     H7  487   2.161   7.232   5.591  0.0817  1.5361 -1.3683
   17ccc     H8  488   2.310   7.225   5.685  1.7218  0.4987 -0.3140
   17ccc     C5  489   2.337   7.158   5.488  0.6405  0.1615  0.0591
   17ccc     H9  490   2.434   7.201   5.461 -0.0859  1.8047 -0.0280
   17ccc    H10  491   2.274   7.144   5.399 -0.0926  1.2118  0.3947
   17ccc     C6  492   2.357   7.020   5.549 -0.0124  0.6859  0.4310
   17ccc     O1  493   2.465   6.975   5.575 -0.5283  0.2049 -0.6729
   17ccc     O2  494   2.250   6.960   5.600  0.2743 -0.1283 -0.1859
   17ccc    H11  495   2.172   6.991   5.550 -0.2437  0.8379  1.2001
   17ccc     C7  496   2.241   7.446   5.440  0.4892 -0.0881 -0.7345
   17ccc    H12  497   2.289   7.541   5.415  2.2628 -0.6826  0.2916
   17ccc    H13  498   2.288   7.378   5.368  0.1462  0.2770 -1.3098
   17ccc     C8  499   2.091   7.447   5.410  0.1660 -0.1976 -0.5645
   17ccc    H14  500   2.047   7.523   5.475 -1.3931 -0.8593 -0.8078
   17ccc    H15  501   2.042   7.352   5.437 -1.6560  0.2899 -2.0976
   17ccc     C9  502   2.067   7.476   5.259 -0.6387 -0.4587  0.1508
   17ccc     O3  503   2.146   7.453   5.168 -0.0444 -0.0924 -0.4628
   17ccc     O4  504   1.941   7.509   5.217 -0.0849  0.0170 -0.0673
   17ccc    H16  505   1.898   7.490   5.303 -1.8097  1.4517 -0.5647
   17ccc     O5  506   2.355   7.667   5.907  0.0735 -0.4043  0.2156
   18ccc     C1  507   3.021   7.382   6.374  0.7774  0.2414  0.0839
   18ccc     H1  508   3.056   7.337   6.281  0.2102 -1.3665  0.6266
   18ccc     H2  509   3.005   7.489   6.355 -1.3272  0.3397  2.1140
   18ccc     C2  510   3.130   7.367   6.478  0.4706 -0.5804  0.0064
   18ccc     H3  511   3.098   7.398   6.579  3.0225  0.4472  0.5230
   18ccc     H4  512   3.208   7.436   6.446 -3.4905  2.7383 -3.1466
   18ccc     C3  513   3.176   7.225   6.494  0.0590 -0.0078  0.5971
   18ccc     H5  514   3.212   7.187   6.397  1.2028 -1.9681  1.7731
   18ccc     H6  515   3.089   7.170   6.532 -0.8522  0.1197 -1.2430
   18ccc     N1  516   3.282   7.227   6.595 -0.2038  0.4359 -0.6561
   18ccc     C4  517   3.420   7.263   6.543 -0.3972 -0.0724 -0.7473
   18ccc     H7  518   3.480   7.243   6.633 -0.5138  2.2425 -0.1010
   18ccc     H8  519   3.426   7.372   6.532  0.5196 -0.3113 -2.7945
   18ccc     C5  520   3.484   7.195   6.420  0.1007  0.3646 -1.0090
   18ccc     H9  521   3.504   7.089   6.438 -0.5510  0.6620  1.7266
   18ccc    H10  522   3.408   7.186   6.341  0.3747  0.5532 -1.2952
   18ccc     C6  523   3.609   7.256   6.365 -0.2665 -0.2478  0.0584
   18ccc     O1  524   3.615   7.328   6.266 -0.3605  0.1996 -0.0640
   18ccc     O2  525   3.713   7.230   6.445  0.1888 -0.7144 -0.5775
   18ccc    H11  526   3.677   7.163   6.506  2.7621 -0.1784  1.6001
   18ccc     C7  527   3.260   7.109   6.680  0.4429  0.5216 -0.0281
   18ccc    H12  528   3.156   7.118   6.713  0.5766 -0.4921  0.6830
   18ccc    H13  529   3.278   7.016   6.626  1.7261  1.0579 -0.5458
   18ccc     C8  530   3.344   7.105   6.811  0.6874  0.1534  0.9502
   18ccc    H14  531   3.319   7.007   6.851 -1.1026 -1.0255 -2.8315
   18ccc    H15  532   3.451   7.117   6.787  0.3856  2.4040  0.5663
   18ccc     C9  533   3.298   7.206   6.916  0.5381  1.0538  0.3374
   18ccc     O3  534   3.205   7.287   6.909 -0.7313 -0.4654  0.8137
   18ccc     O4  535   3.387   7.233   7.009  0.3178 -0.1788  0.1492
   18ccc    H16  536   3.451   7.161   6.996 -1.1511 -1.2834 -1.1769
   18ccc     O5  537   2.890   7.329   6.415  0.8003  0.1974 -0.0670
   19ccc     C1  538   2.139   7.211   7.683 -0.1583  0.4605 -0.1394
   19ccc     H1  539   2.202   7.204   7.773  2.6021  0.6798 -1.9768
   19ccc     H2  540   2.113   7.313   7.652  1.3131  0.6163 -0.9109
   19ccc     C2  541   2.013   7.133   7.723 -0.2045 -0.2006  0.0560
   19ccc     H3  542   1.972   7.178   7.814 -0.9128  0.9632 -0.8242
   19ccc     H4  543   2.049   7.030   7.740  0.4570 -0.0154 -0.1998
   19ccc     C3  544   1.896   7.124   7.619 -0.3860 -0.2281 -0.3903
   19ccc     H5  545   1.861   7.228   7.611  1.3729  0.4948  1.0936
   19ccc     H6  546   1.931   7.092   7.520  1.5821 -1.0463  0.5320
   19ccc     N1  547   1.783   7.044   7.663 -0.1830 -0.0864  0.1909
   19ccc     C4  548   1.664   7.111   7.725  0.1759  0.0320 -0.1595
   19ccc     H7  549   1.688   7.172   7.813  0.5190  0.9646 -0.8905
   19ccc     H8  550   1.591   7.030   7.737 -0.2279  0.2116 -1.3286
   19ccc     C5  551   1.605   7.211   7.621 -0.4572  0.5101 -0.1628
   19ccc     H9  552   1.650   7.310   7.632 -0.1274  0.3463 -0.0049
   19ccc    H10  553   1.607   7.173   7.518 -3.3132 -1.4025  0.4263
   19ccc     C6  554   1.461   7.228   7.624 -0.0877  0.4362  0.2261
   19ccc     O1  555   1.385   7.169   7.698 -0.4341 -0.0610 -0.1897
   19ccc     O2  556   1.404   7.286   7.519  0.5952  0.0732 -0.6328
   19ccc    H11  557   1.470   7.346   7.481  0.2860  0.6181 -0.3084
   19ccc     C7  558   1.807   6.904   7.697  0.1976  0.3725  0.0104
   19ccc    H12  559   1.863   6.902   7.791 -2.0951  1.2147  1.4303
   19ccc    H13  560   1.712   6.857   7.724  0.0214 -0.1711 -1.4972
   19ccc     C8  561   1.883   6.824   7.590  0.3853  0.0057  0.4913
   19ccc    H14  562   1.990   6.847   7.584  0.2267 -0.0417 -3.6426
   19ccc    H15  563   1.843   6.855   7.493  1.1667  0.1529  0.2140
   19ccc     C9  564   1.879   6.677   7.619  0.5296  0.3445  1.4156
   19ccc     O3  565   1.823   6.631   7.715 -0.3035  0.6792  0.3280
   19ccc     O4  566   1.890   6.605   7.512 -0.1687 -0.3344 -0.0678
   19ccc    H16  567   1.920   6.667   7.444  2.6441 -0.7791  0.6997
   19ccc     O5  568   2.192   7.143   7.561  0.6986 -0.2175 -0.3568
   20ccc     C1  569   1.681   6.913   7.210 -0.0934 -0.9176  0.1992
   20ccc     H1  570   1.694   6.908   7.101 -0.0707 -0.8983  0.2003
   20ccc     H2  571   1.755   6.844   7.252  0.3613 -0.0117  0.8797
   20ccc     C2  572   1.543   6.875   7.275  0.1919  0.0190 -0.1489
   20ccc     H3  573   1.506   6.784   7.226 -1.3896  1.0765 -0.9403
   20ccc     H4  574   1.476   6.960   7.259  0.7113  0.3085 -0.7762
   20ccc     C3  575   1.549   6.847   7.425  0.1048  0.1436 -0.1351
   20ccc     H5  576   1.575   6.946   7.466 -0.5333  0.2331  0.0534
   20ccc     H6  577   1.634   6.779   7.436 -0.7555 -0.7896  0.7328
   20ccc     N1  578   1.417   6.797   7.480  0.6353 -0.2691 -0.0174
   20ccc     C4  579   1.433   6.732   7.614 -0.4695  0.6478 -0.5852
   20ccc     H7  580   1.348   6.730   7.684  0.0276  0.6038  0.0274
   20ccc     H8  581   1.501   6.795   7.674 -0.2589 -0.2402  0.1249
   20ccc     C5  582   1.491   6.589   7.610 -0.2716  0.0406 -0.0594
   20ccc     H9  583   1.424   6.517   7.562  1.9660 -0.5024 -2.5249
   20ccc    H10  584   1.586   6.584   7.554  1.1647 -1.4495  2.4179
   20ccc     C6  585   1.517   6.532   7.742  0.4390 -0.1073 -0.3223
   20ccc     O1  586   1.482   6.576   7.850 -0.5409 -0.5956 -0.0928
   20ccc     O2  587   1.561   6.413   7.726 -0.3372  0.0390  0.0919
   20ccc    H11  588   1.560   6.398   7.629 -1.1217  1.0048 -0.0565
   20ccc     C7  589   1.310   6.897   7.465  0.0020 -0.3410  0.9361
   20ccc    H12  590   1.335   6.987   7.523 -0.2130 -0.0309  0.5435
   20ccc    H13  591   1.289   6.921   7.360  0.3014  0.9641  1.1627
   20ccc     C8  592   1.173   6.836   7.510 -0.7893  0.3135 -0.5261
   20ccc    H14  593   1.176   6.730   7.481  0.1429  0.7164 -1.9602
   20ccc    H15  594   1.171   6.832   7.620 -1.6356  1.9172 -0.4727
   20ccc     C9  595   1.045   6.911   7.467  0.0338  0.0595 -0.0039
   20ccc     O3  596   1.045   6.992   7.380  0.1321  0.6282  0.1845
   20ccc     O4  597   0.932   6.837   7.485  0.1517 -0.5234 -0.3201
   20ccc    H16  598   0.958   6.776   7.555  0.8826 -0.5639 -0.6204
   20ccc     O5  599   1.704   7.052   7.249  0.0865 -0.0407 -0.3493
   21ccc     C1  600   2.841   7.599   5.987  0.0238  0.6769 -0.0680
   21ccc     H1  601   2.943   7.577   5.952  0.0870 -0.4463  0.7943
   21ccc     H2  602   2.831   7.580   6.094 -1.3725 -0.9169 -0.4622
   21ccc     C2  603   2.751   7.506   5.905  0.5182  0.2437 -0.2759
   21ccc     H3  604   2.675   7.564   5.851  0.9122  0.5856 -0.4683
   21ccc     H4  605   2.702   7.444   5.981 -2.3872 -0.8354 -2.9317
   21ccc     C3  606   2.833   7.423   5.801 -0.5655  0.4232 -0.8516
   21ccc     H5  607   2.895   7.346   5.850 -1.5303 -1.8673 -3.1565
   21ccc     H6  608   2.893   7.491   5.738  1.7318 -1.4154 -0.7323
   21ccc     N1  609   2.750   7.348   5.707 -0.3330 -0.3809 -0.9092
   21ccc     C4  610   2.661   7.432   5.616 -0.0055 -0.0453 -0.2301
   21ccc     H7  611   2.578   7.382   5.565 -0.4978  0.9737 -0.4269
   21ccc     H8  612   2.614   7.509   5.677 -0.3058 -1.5667  1.5051
   21ccc     C5  613   2.744   7.504   5.506 -0.2159 -0.1327 -0.2899
   21ccc     H9  614   2.765   7.426   5.431 -2.4902 -1.2938  0.2250
   21ccc    H10  615   2.843   7.537   5.539 -0.4375  0.0674  0.1768
   21ccc     C6  616   2.666   7.626   5.446 -0.0826 -0.0347  0.0248
   21ccc     O1  617   2.543   7.628   5.436 -0.7241 -0.3561 -0.3948
   21ccc     O2  618   2.733   7.718   5.377  0.0251  0.1992 -0.5171
   21ccc    H11  619   2.828   7.707   5.393  0.1880  1.8379 -0.2456
   21ccc     C7  620   2.819   7.228   5.654 -0.5788  0.3401  0.1742
   21ccc    H12  621   2.886   7.251   5.570  0.2922  1.7290  1.2301
   21ccc    H13  622   2.876   7.181   5.734  0.7119  1.0637 -0.3127
   21ccc     C8  623   2.715   7.118   5.616 -0.4951 -0.7284 -0.1532
   21ccc    H14  624   2.632   7.120   5.688  1.0006  0.1127  1.5912
   21ccc    H15  625   2.678   7.136   5.515 -1.1103  3.7953  0.7738
   21ccc     C9  626   2.770   6.975   5.614  0.0741 -0.3213  0.2205
   21ccc     O3  627   2.875   6.938   5.660  0.1832  0.2435  0.4958
   21ccc     O4  628   2.698   6.883   5.555  0.0836 -0.1447 -0.0466
   21ccc    H16  629   2.608   6.918   5.540  0.3970  0.7003 -0.0329
   21ccc     O5  630   2.791   7.727   5.948  0.5733 -0.1349  0.3865
   22ccc     C1  631   2.523   8.160   6.652 -0.2197 -0.5552 -0.3607
   22ccc     H1  632   2.598   8.240   6.655 -0.7315 -0.0479 -0.7972
   22ccc     H2  633   2.428   8.211   6.630  1.0514  1.2888 -1.7134
   22ccc     C2  634   2.512   8.096   6.791  0.4988 -0.5288 -0.4632
   22ccc     H3  635   2.445   8.009   6.786  0.3792 -0.4172 -0.7821
   22ccc     H4  636   2.476   8.176   6.856  3.4581  0.4501  0.0501
   22ccc     C3  637   2.647   8.040   6.851 -0.1531  0.2134 -0.0601
   22ccc     H5  638   2.670   7.954   6.787 -0.5601 -0.3816  0.5886
   22ccc     H6  639   2.633   8.006   6.954  0.4154 -3.7605 -1.1977
   22ccc     N1  640   2.761   8.131   6.842 -0.5771 -0.0565 -0.2854
   22ccc     C4  641   2.739   8.270   6.900 -0.0815 -0.2132 -0.1184
   22ccc     H7  642   2.643   8.306   6.860  0.9325  1.0380 -1.4678
   22ccc     H8  643   2.803   8.348   6.858  0.2619  1.7229  3.8283
   22ccc     C5  644   2.735   8.287   7.057 -0.2760  0.3051 -0.1348
   22ccc     H9  645   2.639   8.249   7.092 -0.5835  0.0516 -1.2398
   22ccc    H10  646   2.814   8.227   7.106 -1.8310 -0.7110  1.1678
   22ccc     C6  647   2.765   8.427   7.103 -0.5861  0.0107 -0.1053
   22ccc     O1  648   2.868   8.492   7.086 -0.0212  0.3211 -0.3064
   22ccc     O2  649   2.669   8.492   7.171  0.1722 -0.4891 -0.1202
   22ccc    H11  650   2.595   8.429   7.179 -0.2512 -0.0267 -0.4484
   22ccc     C7  651   2.883   8.054   6.871  0.3714  0.1782 -0.1626
   22ccc    H12  652   2.879   8.011   6.972 -0.1689 -1.4268 -0.8456
   22ccc    H13  653   2.867   7.962   6.813  0.4978 -1.0493  1.7242
   22ccc     C8  654   3.011   8.132   6.845  0.0841 -0.2479  0.2775
   22ccc    H14  655   3.013   8.175   6.744  1.3097  0.0644  0.4208
   22ccc    H15  656   3.004   8.209   6.923  1.1058  0.7047 -0.5488
   22ccc     C9  657   3.135   8.055   6.876  0.5792 -0.3430  0.1544
   22ccc     O3  658   3.182   8.036   6.987  0.3925 -0.3983  0.1865
   22ccc     O4  659   3.184   7.975   6.774 -0.4862  0.4795 -0.0603
   22ccc    H16  660   3.139   8.001   6.692  0.2042 -0.8952 -0.9131
   22ccc     O5  661   2.551   8.056   6.557  0.1850 -0.5029 -0.0892
   23SOL     OW  662   2.991   1.468   1.419  0.2219  0.5667 -0.0169
   23SOL    HW1  663   3.035   1.478   1.504  0.1290  1.3033 -0.0546
   23SOL    HW2  664   2.925   1.537   1.418 -1.4808 -1.0484  0.3648
   24SOL     OW  665   5.474   4.177   6.963 -0.1518 -0.4474 -0.3949
   24SOL    HW1  666   5.429   4.098   6.994 -0.8283  0.0558 -0.0947
   24SOL    HW2  667   5.427   4.201   6.883  0.1304 -0.4123 -0.5513
   25SOL     OW  668   3.128   0.311   0.557 -0.0195 -0.2568 -0.2752
   25SOL    HW1  669   3.138   0.227   0.602 -0.6855 -0.9327 -1.3726
   25SOL    HW2  670   3.205   0.318   0.501  0.1268 -0.0572 -0.0467
   26SOL     OW  671   6.881   6.114   2.809  0.4852  0.0156 -0.3503
   26SOL    HW1  672   6.963   6.088   2.849  0.1873 -2.4962 -1.2921
   26SOL    HW2  673   6.813   6.076   2.865 -0.0286  0.9170 -0.3373
   27SOL     OW  674   5.041   2.931   4.529 -0.2288 -0.0772  0.3036
   27SOL    HW1  675   4.985   2.944   4.452 -0.3996  1.0369  0.6046
   27SOL    HW2  676   5.130   2.928   4.494 -0.3965 -0.8185 -0.0675
   28SOL     OW  677   5.394   5.763   3.950  0.3422 -0.1440 -0.5064
   28SOL    HW1  678   5.432   5.685   3.910  1.7904  0.1368  0.2729
   28SOL    HW2  679   5.387   5.742   4.043  1.2438  0.8112 -0.2028
   29SOL     OW  680   2.748   3.931   5.776  0.6381  0.2726  0.2543
   29SOL    HW1  681   2.676   3.869   5.767  1.0713 -0.1972 -0.0465
   29SOL    HW2  682   2.731   3.998   5.710  0.1429  0.5019  0.6134
   30SOL     OW  683   2.041   1.123   0.329  0.1257 -0.1915 -0.3599
   30SOL    HW1  684   1.954   1.125   0.289 -0.5199  0.1636  1.0231
   30SOL    HW2  685   2.042   1.041   0.379  0.7581 -0.4219 -0.7529
   31SOL     OW  686   5.819   0.954   6.099 -0.2633 -0.3934  0.4106
   31SOL    HW1  687   5.915   0.947   6.098 -0.3551 -1.9667  1.0426
   31SOL    HW2  688   5.801   1.040   6.062  1.2956 -1.1010 -2.1436
   32SOL     OW  689   0.387   1.698   5.779 -0.4271  0.5739  0.1947
   32SOL    HW1  690   0.357   1.698   5.688  3.9731 -0.3022 -1.3684
   32SOL    HW2  691   0.378   1.789   5.807 -0.6225  1.1104 -1.5450
   33SOL     OW  692   1.576   1.249   5.979 -0.0771 -0.3227  0.0228
   33SOL    HW1  693   1.587   1.273   5.887  1.8992 -2.0146 -0.2179
   33SOL    HW2  694   1.484   1.223   5.987  0.4904 -3.1397 -2.2114
   34SOL     OW  695   4.080   6.523   5.418 -0.0281  0.0271 -0.2176
   34SOL    HW1  696   4.140   6.596   5.403  0.4611 -0.2425  0.3700
   34SOL    HW2  697   4.003   6.543   5.365  0.1216  0.9483 -0.0941
   35SOL     OW  698   4.296   4.155   0.724 -0.2073  0.2353  0.3398
   35SOL    HW1  699   4.326   4.073   0.685  0.6355  0.9123 -0.4625
   35SOL    HW2  700   4.308   4.220   0.655  0.5012  1.2996  1.4480
   36SOL     OW  701   5.910   3.877   2.235  0.3751 -0.2906  0.7414
   36SOL    HW1  702   5.964   3.950   2.265  0.7760 -0.1466 -0.2977
   36SOL    HW2  703   5.933   3.804   2.292 -0.0223  0.3788  1.7862
   37SOL     OW  704   4.638   6.726   2.920  0.5405  0.1739  0.4331
   37SOL    HW1  705   4.678   6.720   3.007  1.3175 -1.4046 -0.0192
   37SOL    HW2  706   4.623   6.635   2.894 -1.0741  0.6765 -0.4693
   38SOL     OW  707   5.434   5.150   6.980  0.1696  0.4127  0.7438
   38SOL    HW1  708   5.348   5.179   6.950  0.7735  0.6377 -0.8537
   38SOL    HW2  709   5.468   5.223   7.031  0.3661  1.2844 -0.5978
   39SOL     OW  710   5.958   4.574   4.604 -0.0596  0.1995 -0.3158
   39SOL    HW1  711   6.022   4.539   4.542  0.8716 -1.2251  1.4226
   39SOL    HW2  712   5.877   4.528   4.583  0.1972 -0.1071 -0.6506
   40SOL     OW  713   1.857   5.891   6.915  0.3816 -0.2591 -0.1385
   40SOL    HW1  714   1.820   5.975   6.887 -1.1811 -0.4414  1.2935
   40SOL    HW2  715   1.822   5.828   6.852  1.0819  0.0798 -0.8684
   41SOL     OW  716   1.475   6.704   2.860  0.5824 -0.7475  0.3749
   41SOL    HW1  717   1.500   6.796   2.857 -0.8209 -0.3821 -0.1355
   41SOL    HW2  718   1.532   6.662   2.795 -1.0493  0.3269 -1.8220
   42SOL     OW  719   1.635   4.364   6.348 -0.1747  0.4259 -0.1616
   42SOL    HW1  720   1.729   4.370   6.366 -0.1138 -0.7863 -0.0495
   42SOL    HW2  721   1.612   4.275   6.372 -1.1747  0.4349 -1.0890
   43SOL     OW  722   1.150   4.218   5.458 -0.2240  0.7354 -0.1376
   43SOL    HW1  723   1.080   4.281   5.475 -0.6583  0.7350 -1.8183
   43SOL    HW2  724   1.226   4.254   5.503 -1.3454  0.6433  1.8579
   44SOL     OW  725   5.961   0.312   4.553  0.2998  0.2718  0.2012
   44SOL    HW1  726   5.882   0.365   4.544  0.9937  1.5034  1.1497
   44SOL    HW2  727   6.032   0.372   4.532  1.0547 -0.5162  0.4719
   45SOL     OW  728   3.781   6.948   6.868 -0.3493 -0.0196 -0.3406
   45SOL    HW1  729   3.874   6.947   6.844 -0.5606  0.4559 -1.2033
   45SOL    HW2  730   3.762   6.857   6.891  0.2873 -0.1559 -0.3180
   46SOL     OW  731   0.603   0.121   6.854  0.5529 -0.1308  0.8340
   46SOL    HW1  732   0.562   0.198   6.813  1.6957  0.9614  1.7003
   46SOL    HW2  733   0.581   0.129   6.947  1.0104 -0.6418  0.9874
   47SOL     OW  734   0.312   5.115   1.851 -0.3507  0.6467  0.4665
   47SOL    HW1  735   0.295   5.025   1.879  1.4280 -1.0070 -3.5200
   47SOL    HW2  736   0.363   5.152   1.923 -1.3307 -1.4215  2.2983
   48SOL     OW  737   2.613   5.718   2.663 -0.7113  0.1241 -0.2283
   48SOL    HW1  738   2.556   5.756   2.597  0.2293 -0.5660 -1.4662
   48SOL    HW2  739   2.697   5.706   2.618 -0.6598 -2.3078  0.4640
   49SOL     OW  740   6.456   4.985   2.713  0.0888 -0.2622 -0.6669
   49SOL    HW1  741   6.537   5.020   2.676 -0.5024  1.1458 -0.6840
   49SOL    HW2  742   6.397   4.976   2.638 -0.3499  0.4139 -0.4102
   50SOL     OW  743   6.014   6.682   6.829 -0.2471  0.2446  0.3039
   50SOL    HW1  744   6.022   6.768   6.870 -0.7713  0.0195  0.8918
   50SOL    HW2  745   5.988   6.624   6.901  0.5438 -0.4887  0.0040
   51SOL     OW  746   3.996   0.144   0.846 -0.5118  0.1330 -0.3483
   51SOL    HW1  747   4.006   0.223   0.898 -0.0230  0.7197 -1.3112
   51SOL    HW2  748   3.941   0.086   0.899  3.3753 -0.9911  2.7507
   52SOL     OW  749   4.120   0.162   0.356 -0.5859  0.6685  0.8732
   52SOL    HW1  750   4.068   0.150   0.276  1.2552  0.4887 -0.3329
   52SOL    HW2  751   4.056   0.188   0.422 -2.8145 -3.2011  0.3992
   53SOL     OW  752   6.448   6.753   0.192  0.2264  0.3463  0.4140
   53SOL    HW1  753   6.537   6.778   0.168  0.2154  0.7267  0.7557
   53SOL    HW2  754   6.452   6.739   0.287 -0.0179  0.1204  0.3897
   54SOL     OW  755   1.795   4.741   2.137  0.3515 -0.6092 -0.2243
   54SOL    HW1  756   1.741   4.670   2.174 -0.7266  0.7964  0.9704
   54SOL    HW2  757   1.879   4.733   2.183  0.2005 -1.0300 -0.0120
   55SOL     OW  758   3.523   0.028   1.005 -0.6665  0.0784  0.0535
   55SOL    HW1  759   3.479   0.022   1.089 -2.8189  0.2983 -1.0194
   55SOL    HW2  760   3.614   0.004   1.023 -1.2689 -0.5995  2.2796
   56SOL     OW  761   7.041   0.694   6.111 -0.6307  0.2966  0.2967
   56SOL    HW1  762   7.069   0.629   6.046 -1.1705  1.7801 -1.4673
   56SOL    HW2  763   7.002   0.643   6.182  1.5667 -1.4750  0.2832
   57SOL     OW  764   2.309   6.901   0.354  0.3166 -0.1131  0.0864
   57SOL    HW1  765   2.249   6.972   0.333 -0.1225  0.0446  1.8108
   57SOL    HW2  766   2.391   6.927   0.311 -0.0689  1.0193 -0.0064
   58SOL     OW  767   1.912   6.322   6.881 -0.2818 -0.6913 -0.3266
   58SOL    HW1  768   2.001   6.305   6.849 -0.5538 -2.0221 -0.3952
   58SOL    HW2  769   1.919   6.318   6.976 -0.1673 -0.2587 -0.3156
   59SOL     OW  770   4.700   1.140   0.023 -0.4224  0.0856  0.6604
   59SOL    HW1  771   4.738   1.225  -0.002 -0.7449  0.4720  1.4782
   59SOL    HW2  772   4.712   1.085  -0.055 -0.7183  1.0548 -0.0833
   60SOL     OW  773   4.770   0.337   0.722 -0.1583  0.1222  0.3338
   60SOL    HW1  774   4.772   0.313   0.629 -3.1275 -0.8513  0.4553
   60SOL    HW2  775   4.712   0.413   0.726 -1.0023 -0.5467  1.4869
   61SOL     OW  776   3.081   4.711   3.442  0.4232  0.2966  0.2684
   61SOL    HW1  777   3.099   4.723   3.536  0.7192 -0.0932  0.2633
   61SOL    HW2  778   3.149   4.762   3.398 -1.0655  2.3598  0.2669
   62SOL     OW  779   1.020   1.320   3.889 -0.2401 -0.0336 -0.2382
   62SOL    HW1  780   1.096   1.299   3.943  0.1095 -0.0809 -0.7552
   62SOL    HW2  781   0.952   1.260   3.921 -0.2421  0.4169  0.6286
   63SOL     OW  782   3.232   0.928   2.941 -0.2710  0.1512 -0.2990
   63SOL    HW1  783   3.169   0.857   2.924 -1.2423  0.7583  0.7063
   63SOL    HW2  784   3.217   0.991   2.870  0.0710 -0.2868 -0.7659
   64SOL     OW  785   3.888   3.684   2.980 -0.1193 -0.2631 -0.2539
   64SOL    HW1  786   3.840   3.762   3.007 -2.0667 -1.5977  0.2837
   64SOL    HW2  787   3.820   3.618   2.966  1.4400 -1.7096 -1.2486
   65SOL     OW  788   6.275   0.240   1.871  0.1338  0.1879 -0.0678
   65SOL    HW1  789   6.310   0.192   1.796 -0.5437 -0.7737  0.2228
   65SOL    HW2  790   6.229   0.314   1.833  2.5821  1.5887 -0.4629
   66SOL     OW  791   1.798   7.124   3.599 -0.1571  0.2736  0.2338
   66SOL    HW1  792   1.829   7.162   3.516 -1.2344  0.2363 -0.2012
   66SOL    HW2  793   1.716   7.080   3.575  0.2867 -1.0083  1.0367
   67SOL     OW  794   5.783   3.213   6.994 -0.1736  0.2524 -0.3908
   67SOL    HW1  795   5.796   3.132   6.943 -0.2257  0.5296 -0.8502
   67SOL    HW2  796   5.796   3.283   6.930  1.3865  0.6431  0.3363
   68SOL     OW  797   6.691   2.104   7.008 -0.2813 -0.0727  0.3789
   68SOL    HW1  798   6.765   2.045   7.018  0.3549  0.0375 -3.1837
   68SOL    HW2  799   6.731   2.188   6.983 -1.5281  0.3929 -0.0600
   69SOL     OW  800   4.569   3.414   6.250 -0.3189 -0.4891 -0.0197
   69SOL    HW1  801   4.493   3.356   6.254 -0.3923 -0.4032 -0.1389
   69SOL    HW2  802   4.565   3.452   6.162  1.1102 -2.1410 -0.8019
   70SOL     OW  803   4.015   1.253   4.853 -0.9938 -0.0131 -0.2154
   70SOL    HW1  804   3.991   1.345   4.860 -0.0473  0.1672  0.9887
   70SOL    HW2  805   4.104   1.254   4.817 -0.4467 -0.3855  1.0944
   71SOL     OW  806   2.091   1.082   6.635  0.2310 -0.1444 -0.3678
   71SOL    HW1  807   2.124   1.154   6.582  1.2346  0.0388  0.4906
   71SOL    HW2  808   2.017   1.048   6.585 -0.6320  1.8460 -0.4954
   72SOL     OW  809   6.799   0.961   5.666  0.0596  0.1313  0.5403
   72SOL    HW1  810   6.867   0.940   5.730 -0.3695 -0.1186  0.9184
   72SOL    HW2  811   6.836   0.935   5.582  0.9863  1.3007  0.5680
   73SOL     OW  812   3.022   4.401   7.181 -0.2690  0.0695  0.2052
   73SOL    HW1  813   2.985   4.486   7.202 -0.1476 -0.6186  3.4714
   73SOL    HW2  814   3.111   4.404   7.217  0.0044 -1.1660 -0.3293
   74SOL     OW  815   5.020   6.226   0.055  0.4359  0.1185 -0.4472
   74SOL    HW1  816   5.007   6.143   0.102 -0.6502  0.5241  0.0024
   74SOL    HW2  817   5.083   6.274   0.109 -0.0378  0.1719  0.0645
   75SOL     OW  818   2.071   4.367   5.294  0.2995  0.5400 -0.8141
   75SOL    HW1  819   2.132   4.351   5.366 -0.4506 -1.8031 -0.6614
   75SOL    HW2  820   1.985   4.353   5.333 -0.2443  1.7447 -1.5603
   76SOL     OW  821   3.533   2.303   2.685  0.1152 -0.2005 -0.7417
   76SOL    HW1  822   3.505   2.327   2.773  0.9946  2.8586 -1.2157
   76SOL    HW2  823   3.628   2.293   2.692  0.2777  0.7489 -1.4480
   77SOL     OW  824   4.577   3.020   5.385  0.2613 -0.0998 -0.1029
   77SOL    HW1  825   4.670   3.001   5.374 -0.0069 -1.8342  0.4176
   77SOL    HW2  826   4.569   3.050   5.475  0.2601 -0.4556  0.0196
   78SOL     OW  827   3.078   5.015   6.427  0.3696  0.5026  0.8373
   78SOL    HW1  828   3.147   5.057   6.376  0.3420 -0.7694 -0.2764
   78SOL    HW2  829   3.008   5.081   6.432  0.1192  0.4299 -1.3172
   79SOL     OW  830   4.750   0.812   1.787 -0.3417  0.5414 -0.1628
   79SOL    HW1  831   4.690   0.745   1.754 -1.0894  2.1336 -2.0695
   79SOL    HW2  832   4.826   0.807   1.729 -1.0549  2.3722 -1.2974
   80SOL     OW  833   2.601   4.662   0.494 -0.4118  1.1051  0.0324
   80SOL    HW1  834   2.663   4.734   0.484 -0.9804  1.4093 -1.2928
   80SOL    HW2  835   2.616   4.606   0.417 -0.1185 -0.0920  0.9354
   81SOL     OW  836   4.426   0.309   1.311  0.0139  0.1929  0.0195
   81SOL    HW1  837   4.392   0.222   1.331  0.4407  0.1910  0.7503
   81SOL    HW2  838   4.519   0.295   1.294  0.6721  0.8952  2.8986
   82SOL     OW  839   2.917   0.709   3.631  0.2650 -0.6562  0.0026
   82SOL    HW1  840   2.883   0.737   3.716 -0.7919 -4.9910  1.1590
   82SOL    HW2  841   2.855   0.744   3.567  1.2873  2.9990  0.9206
   83SOL     OW  842   4.296   2.154   3.602 -0.5170  0.1823  0.4190
   83SOL    HW1  843   4.246   2.078   3.632  1.7128 -1.3919  0.3046
   83SOL    HW2  844   4.342   2.184   3.681  0.7080 -0.2752 -0.1093
   84SOL     OW  845   4.386   5.133   4.083 -0.0509  0.1986 -0.4212
   84SOL    HW1  846   4.390   5.078   4.004  2.1137  0.5157 -0.5575
   84SOL    HW2  847   4.454   5.098   4.140 -0.1753  1.3190  0.4243
   85SOL     OW  848   4.251   4.509   2.240  0.6950  0.4832 -0.3807
   85SOL    HW1  849   4.224   4.445   2.175 -2.5340  3.6260 -2.3503
   85SOL    HW2  850   4.209   4.481   2.321  1.1056 -1.0396 -0.6819
   86SOL     OW  851   4.540   2.258   6.013 -0.0395  0.5246 -0.2652
   86SOL    HW1  852   4.571   2.337   6.057 -0.1087  0.4650 -0.1086
   86SOL    HW2  853   4.620   2.214   5.984  0.0279  0.3607  0.1580
   87SOL     OW  854   2.238   4.999   1.025  0.2066  0.6933  0.2612
   87SOL    HW1  855   2.204   5.021   0.938 -2.0831  0.0753  0.9662
   87SOL    HW2  856   2.176   5.040   1.086  1.6787  0.9465  1.6061
   88SOL     OW  857   1.508   3.509   1.373 -0.6637  0.1724  0.1298
   88SOL    HW1  858   1.574   3.564   1.330  0.2455 -2.8150 -2.4824
   88SOL    HW2  859   1.425   3.544   1.343 -0.0824 -0.0376 -1.8634
   89SOL     OW  860   3.064   4.803   4.023  0.1045  0.3118 -0.3572
   89SOL    HW1  861   3.007   4.736   3.985 -0.1595  0.6654 -0.5890
   89SOL    HW2  862   3.014   4.885   4.014  0.2396  0.4718  0.3187
   90SOL     OW  863   4.432   4.068   3.612 -0.2426  0.0448  0.0479
   90SOL    HW1  864   4.520   4.097   3.634 -0.7053  1.3982  0.1405
   90SOL    HW2  865   4.388   4.057   3.696 -0.7109  1.1193 -0.0516
   91SOL     OW  866   2.468   3.535   5.817  0.2987  0.0757 -0.5120
   91SOL    HW1  867   2.559   3.506   5.809  0.7732  1.3590  0.0937
   91SOL    HW2  868   2.466   3.585   5.898 -0.6719  1.0909 -1.1525
   92SOL     OW  869   3.492   5.083   2.286 -0.0160 -0.1151 -0.0118
   92SOL    HW1  870   3.543   5.019   2.335 -0.1407 -0.7366 -0.6802
   92SOL    HW2  871   3.548   5.160   2.282  0.4060 -0.4061  0.2402
   93SOL     OW  872   3.781   4.336   3.620  0.0008  0.0178  0.1123
   93SOL    HW1  873   3.801   4.415   3.670 -0.2020 -0.9621  1.7769
   93SOL    HW2  874   3.706   4.361   3.565  1.2844  1.5982 -0.9724
   94SOL     OW  875   1.504   6.057   6.502  0.2832  0.1862  0.1020
   94SOL    HW1  876   1.591   6.029   6.532  0.1160  1.3909  1.7526
   94SOL    HW2  877   1.446   6.038   6.576 -0.7235  0.1527 -0.6906
   95SOL     OW  878   5.960   2.573   4.023 -0.0957  0.2706  0.3445
   95SOL    HW1  879   6.028   2.507   4.032  0.1015  0.4179 -0.0548
   95SOL    HW2  880   5.962   2.622   4.105  0.8830  0.8477 -0.0180
   96SOL     OW  881   4.017   0.313   6.684  0.3187  0.0577  0.1057
   96SOL    HW1  882   3.971   0.387   6.724 -0.1518  0.0739 -0.4476
   96SOL    HW2  883   4.078   0.283   6.751 -0.7316 -0.1646  0.9841
   97SOL     OW  884   2.888   4.904   2.592  0.0321 -0.0213  0.0043
   97SOL    HW1  885   2.842   4.829   2.628 -1.4427  0.6268 -0.4963
   97SOL    HW2  886   2.926   4.873   2.510 -2.1113  0.2438 -1.1201
   98SOL     OW  887   2.534   2.222   3.526 -0.3076 -0.3040  0.4899
   98SOL    HW1  888   2.494   2.284   3.464 -2.0259  0.4200  2.2565
   98SOL    HW2  889   2.628   2.239   3.519 -0.6700  1.7268  0.1101
   99SOL     OW  890   2.237   1.551   5.110  0.2791  0.1977  0.1867
   99SOL    HW1  891   2.215   1.458   5.103  0.9033  0.0090  0.6406
   99SOL    HW2  892   2.161   1.591   5.152  0.5784 -0.3577  1.2823
  100SOL     OW  893   1.492   2.264   1.847 -0.6938  0.2357  0.1004
  100SOL    HW1  894   1.506   2.261   1.942 -0.7035  0.8607  0.1238
  100SOL    HW2  895   1.536   2.187   1.814  0.9097  0.9990  0.4145
  101SOL     OW  896   5.364   0.411   5.189 -0.0532 -0.2475  0.3711
  101SOL    HW1  897   5.433   0.347   5.205 -0.0217 -0.4886 -0.6785
  101SOL    HW2  898   5.403   0.474   5.128 -0.0283  0.8767  1.5213
  102SOL     OW  899   1.039   4.310   2.911  0.1172 -0.1960 -0.0582
  102SOL    HW1  900   1.058   4.362   2.990  2.2218 -1.5524  0.3625
  102SOL    HW2  901   0.944   4.298   2.913 -0.2218  2.2695  0.6784
  103SOL     OW  902   3.282   3.722   2.175 -0.5031 -0.4472  0.7970
  103SOL    HW1  903   3.360   3.758   2.134 -0.2419 -0.1330  1.5672
  103SOL    HW2  904   3.209   3.757   2.124 -0.2346  0.9018  1.3402
  104SOL     OW  905   6.452   2.436   5.750  0.2301  0.7167  0.7883
  104SOL    HW1  906   6.473   2.359   5.697  1.9039  0.7325  1.3820
  104SOL    HW2  907   6.373   2.411   5.798  0.7592 -0.6438  0.9881
  105SOL     OW  908   5.282   1.404   1.289 -0.1646 -0.4857  0.2585
  105SOL    HW1  909   5.292   1.404   1.193 -2.8569 -1.3864 -0.0618
  105SOL    HW2  910   5.264   1.313   1.311 -1.8196  0.0703  1.3296
  106SOL     OW  911   2.972   4.654   3.763 -0.2171  0.4526  0.1047
  106SOL    HW1  912   2.912   4.640   3.836  1.4823  0.4915  1.5160
  106SOL    HW2  913   3.027   4.576   3.761  0.4253  0.9118 -0.4774
  107SOL     OW  914   2.830   6.302   6.042  0.2188 -0.0478  0.5603
  107SOL    HW1  915   2.853   6.305   5.949 -0.0201  0.4886  0.5171
  107SOL    HW2  916   2.825   6.394   6.069 -2.7100 -0.0930  0.3415
  108SOL     OW  917   1.355   5.173   0.093 -0.3311 -0.6913  0.0534
  108SOL    HW1  918   1.439   5.174   0.138  0.2811 -1.8035 -1.0258
  108SOL    HW2  919   1.348   5.259   0.052  1.2995 -1.3376 -1.6604
  109SOL     OW  920   0.386   1.616   1.495 -0.0978  0.0182 -0.1667
  109SOL    HW1  921   0.411   1.530   1.527  0.2569  0.0966 -0.2321
  109SOL    HW2  922   0.330   1.652   1.563  0.8235  0.2719  0.4598
  110SOL     OW  923   5.440   5.700   5.915  0.4550  0.1678  0.0284
  110SOL    HW1  924   5.470   5.616   5.879 -0.5747 -0.0318 -0.3632
  110SOL    HW2  925   5.351   5.710   5.883 -0.2813  0.2604  2.0283
  111SOL     OW  926   2.571   1.267   3.804  0.1641 -0.4193 -0.2142
  111SOL    HW1  927   2.534   1.193   3.851  0.0584 -0.5700 -0.5327
  111SOL    HW2  928   2.666   1.256   3.810  0.1560 -0.1529  0.4135
  112SOL     OW  929   2.586   5.826   6.870  0.2681 -0.1853 -0.1030
  112SOL    HW1  930   2.496   5.832   6.902  0.8463  0.6931  1.4002
  112SOL    HW2  931   2.638   5.811   6.948  1.5510  0.4201 -0.8247
  113SOL     OW  932   5.660   2.696   0.290 -0.3641 -0.2166 -0.5504
  113SOL    HW1  933   5.687   2.655   0.208 -0.2599  0.0847 -0.6677
  113SOL    HW2  934   5.664   2.790   0.273  0.2423 -0.1404 -0.0224
  114SOL     OW  935   1.135   5.075   2.118  1.0006  0.5979  0.5177
  114SOL    HW1  936   1.122   4.998   2.062  0.3228  1.3274 -0.3442
  114SOL    HW2  937   1.154   5.039   2.204  3.2314 -0.5585 -0.4226
  115SOL     OW  938   2.058   3.822   6.921  0.4226  0.0084  0.0048
  115SOL    HW1  939   1.981   3.879   6.921 -0.3177 -0.9523  1.5655
  115SOL    HW2  940   2.109   3.850   6.998  2.2837  1.4565 -1.6957
  116SOL     OW  941   6.777   0.442   2.621 -0.4152 -0.3994 -0.0559
  116SOL    HW1  942   6.800   0.527   2.582 -1.6137 -0.5242 -1.0590
  116SOL    HW2  943   6.846   0.383   2.592  0.5284  0.2542  0.7947
  117SOL     OW  944   2.843   4.741   4.302  0.4311  0.2829  0.0878
  117SOL    HW1  945   2.929   4.709   4.329  0.2644 -0.2826 -0.0671
  117SOL    HW2  946   2.789   4.735   4.380  0.4190  0.2658  0.0779
  118SOL     OW  947   3.311   3.463   3.679 -0.2077  0.5373 -0.6925
  118SOL    HW1  948   3.392   3.482   3.728 -0.4308 -0.7187  0.1946
  118SOL    HW2  949   3.254   3.538   3.696  1.2280  2.0705 -2.3842
  119SOL     OW  950   6.169   6.736   1.672 -0.2473 -0.2420 -0.1537
  119SOL    HW1  951   6.096   6.756   1.614 -0.8337  1.0645  1.0064
  119SOL    HW2  952   6.189   6.819   1.715  1.9951 -0.5528 -0.5149
  120SOL     OW  953   3.376   1.853   4.832  0.2221 -0.1443  0.2375
  120SOL    HW1  954   3.448   1.912   4.814  0.5895 -1.0009 -1.2606
  120SOL    HW2  955   3.330   1.846   4.748 -1.4468  0.1891  1.1068
  121SOL     OW  956   5.514   6.626   6.909  0.1019  0.1998 -0.5122
  121SOL    HW1  957   5.588   6.683   6.930  0.1117  0.0505 -0.1459
  121SOL    HW2  958   5.552   6.557   6.854  0.4079 -0.3716  0.4079
  122SOL     OW  959   6.551   4.890   5.958  0.4573 -0.1165  0.1226
  122SOL    HW1  960   6.624   4.911   6.017  0.4177  1.5396 -0.4140
  122SOL    HW2  961   6.592   4.845   5.884  0.7739 -0.2888  0.4004
  123SOL     OW  962   1.638   0.395   5.980 -0.5262 -0.0774  0.3557
  123SOL    HW1  963   1.613   0.407   6.072 -0.6156 -1.3079  0.4963
  123SOL    HW2  964   1.725   0.434   5.973 -0.4887 -0.0475  0.9834
  124SOL     OW  965   2.903   3.311   3.834 -0.4555 -0.3045 -0.1766
  124SOL    HW1  966   2.908   3.296   3.740  0.2452  1.0479 -0.3761
  124SOL    HW2  967   2.821   3.269   3.861 -1.9414  1.4208 -1.8366
  125SOL     OW  968   5.278   2.450   3.263 -0.2107 -0.4118 -0.1229
  125SOL    HW1  969   5.200   2.404   3.295 -0.9506  2.5109  2.6484
  125SOL    HW2  970   5.351   2.409   3.310 -0.4704 -1.0277 -0.2588
  126SOL     OW  971   6.541   1.566   1.216  0.0262  0.3931  0.0856
  126SOL    HW1  972   6.599   1.589   1.143  0.9527 -1.2257  0.2825
  126SOL    HW2  973   6.575   1.616   1.290  0.3950  0.4074 -0.0930
  127SOL     OW  974   4.118   5.280   2.894 -0.2510  0.1912  0.7248
  127SOL    HW1  975   4.136   5.233   2.975 -1.0405  1.2678  1.5382
  127SOL    HW2  976   4.198   5.332   2.878 -0.9123  1.6548  2.0079
  128SOL     OW  977   7.110   6.298   3.790  0.4549  0.3271 -0.0916
  128SOL    HW1  978   7.140   6.376   3.836  3.5742 -0.0601 -1.3822
  128SOL    HW2  979   7.068   6.331   3.711  0.4064  0.7538  0.1148
  129SOL     OW  980   5.036   2.536   5.162 -0.1903 -0.0791  0.3108
  129SOL    HW1  981   5.041   2.580   5.078 -0.0007 -0.2701  0.2225
  129SOL    HW2  982   5.117   2.485   5.168 -0.0364  0.2142  0.7654
  130SOL     OW  983   3.431   6.945   3.762 -0.2152  0.6381  0.2900
  130SOL    HW1  984   3.353   6.925   3.710 -0.8687  0.1125  1.4382
  130SOL    HW2  985   3.500   6.890   3.725 -0.2548  1.4926 -1.0682
  131SOL     OW  986   6.172   0.557   4.908 -0.4439  0.2903  0.2721
  131SOL    HW1  987   6.239   0.568   4.976 -0.9063 -0.0514  0.7915
  131SOL    HW2  988   6.182   0.466   4.879 -1.0705  0.0512  0.7812
  132SOL     OW  989   6.077   6.301   1.602 -0.1287 -0.1156 -0.0083
  132SOL    HW1  990   6.076   6.249   1.682  0.6842  0.4847  0.4042
  132SOL    HW2  991   6.112   6.242   1.535 -2.3182 -1.1198 -0.2928
  133SOL     OW  992   1.210   5.880   2.272  0.4670  0.3787 -0.4790
  133SOL    HW1  993   1.290   5.923   2.302  0.2206  1.0103 -0.7070
  133SOL    HW2  994   1.141   5.945   2.289 -0.0242 -0.2394 -0.0958
  134SOL     OW  995   4.064   4.194   6.327  0.9494 -0.0527 -0.6413
  134SOL    HW1  996   4.075   4.230   6.415  2.2142 -1.5508 -0.1580
  134SOL    HW2  997   4.088   4.101   6.336 -0.5705 -0.6263 -2.1988
  135SOL     OW  998   5.805   0.721   6.977  0.4361  0.0459  0.0637
  135SOL    HW1  999   5.784   0.640   7.023 -1.0825  0.5152  0.2225
  135SOL    HW2 1000   5.900   0.716   6.963  0.2617 -2.0588 -0.5411
  136SOL     OW 1001   0.365   0.352   5.995 -0.2093 -0.1036  0.4328
  136SOL    HW1 1002   0.446   0.347   6.046 -0.2519  0.0542  0.5166
  136SOL    HW2 1003   0.364   0.442   5.961  1.3187 -1.0940 -2.3302
  137SOL     OW 1004   6.944   1.986   7.017 -0.6509  0.0111  0.8689
  137SOL    HW1 1005   6.999   2.064   7.024 -0.1466 -0.1043 -1.3042
  137SOL    HW2 1006   6.993   1.919   7.064  0.8084  0.0746 -0.4805
  138SOL     OW 1007   1.632   2.843   5.450  0.1137 -0.3384 -0.3210
  138SOL    HW1 1008   1.580   2.772   5.487  0.2277 -0.2497  0.0120
  138SOL    HW2 1009   1.655   2.897   5.525  1.0852 -0.6394 -0.3940
  139SOL     OW 1010   2.427   2.117   2.259 -0.5837 -0.2276 -0.1575
  139SOL    HW1 1011   2.334   2.128   2.241 -0.9264 -1.8240  0.4863
  139SOL    HW2 1012   2.467   2.199   2.232 -1.8088 -0.4633 -2.8532
  140SOL     OW 1013   4.978   0.183   4.255  0.0250 -0.5029 -0.4772
  140SOL    HW1 1014   4.995   0.198   4.162 -1.9306  2.0518 -0.4795
  140SOL    HW2 1015   4.887   0.155   4.259  0.1079 -0.6258  0.6784
  141SOL     OW 1016   0.905   2.058   5.020  0.2576 -0.6190 -0.4134
  141SOL    HW1 1017   0.910   2.131   4.959  1.8203 -0.4841 -0.1206
  141SOL    HW2 1018   0.914   2.097   5.107 -0.0055 -1.0352 -0.1952
  142SOL     OW 1019   2.079   0.608   4.806  0.2197  0.6245 -0.2917
  142SOL    HW1 1020   2.067   0.605   4.711  0.1355 -1.5337 -0.2264
  142SOL    HW2 1021   2.148   0.545   4.824  0.7392  1.5348  1.0243
  143SOL     OW 1022   6.482   4.538   0.962  0.5480 -0.2173  0.1637
  143SOL    HW1 1023   6.461   4.445   0.947  0.9006 -0.1472 -0.8028
  143SOL    HW2 1024   6.411   4.585   0.920  0.9992 -0.0282 -0.3857
  144SOL     OW 1025   2.844   1.904   6.523 -0.1302 -0.4426  0.7448
  144SOL    HW1 1026   2.790   1.825   6.517 -1.0595  0.3445 -1.6467
  144SOL    HW2 1027   2.794   1.963   6.580 -0.9491 -0.3827 -0.0355
  145SOL     OW 1028   1.431   6.370   2.674 -0.3068 -0.0539  0.0636
  145SOL    HW1 1029   1.477   6.448   2.705 -0.5856 -0.7291  2.2209
  145SOL    HW2 1030   1.345   6.373   2.717 -1.5360  0.0990 -2.3085
  146SOL     OW 1031   4.607   3.569   1.049  0.4457  0.6376  0.3508
  146SOL    HW1 1032   4.545   3.637   1.024  0.6069  0.5709 -0.2448
  146SOL    HW2 1033   4.610   3.511   0.973  2.2562  1.3733 -0.1645
  147SOL     OW 1034   4.778   4.778   6.661  0.1255 -0.0890  0.2899
  147SOL    HW1 1035   4.761   4.872   6.675  0.6131  0.1839 -0.9414
  147SOL    HW2 1036   4.863   4.763   6.703  1.6537  0.7632 -2.4270
  148SOL     OW 1037   3.683   0.083   0.017 -0.6551 -0.4086  0.0886
  148SOL    HW1 1038   3.633   0.094   0.097 -2.1290 -1.6871 -0.6235
  148SOL    HW2 1039   3.773   0.069   0.046 -0.8857  0.8132  1.4355
  149SOL     OW 1040   1.607   0.707   2.105 -0.3190 -0.6278  1.2196
  149SOL    HW1 1041   1.685   0.653   2.110 -0.0656 -0.3507  0.3463
  149SOL    HW2 1042   1.556   0.671   2.032  0.0287  0.5178  0.3910
  150SOL     OW 1043   3.371   3.898   3.110 -0.1452 -0.3457  0.2180
  150SOL    HW1 1044   3.370   3.853   3.195  3.1553  1.9471  1.5463
  150SOL    HW2 1045   3.297   3.959   3.115 -2.6034 -3.1394 -0.3127
  151SOL     OW 1046   3.748   2.981   6.222  0.4224 -0.4659 -0.0814
  151SOL    HW1 1047   3.722   2.966   6.131 -0.0362  0.6311 -0.1366
  151SOL    HW2 1048   3.836   3.019   6.216  0.7837 -1.2718 -0.0187
  152SOL     OW 1049   3.809   5.883   0.197  0.2990  0.1248  0.0328
  152SOL    HW1 1050   3.838   5.855   0.110 -1.4916 -2.4314  0.2090
  152SOL    HW2 1051   3.720   5.916   0.184 -0.0930 -0.5509  0.9495
  153SOL     OW 1052   5.974   6.783   0.554  0.9363 -0.1583  0.1205
  153SOL    HW1 1053   6.043   6.840   0.589  1.3269 -1.7611  2.0356
  153SOL    HW2 1054   5.987   6.785   0.460  1.5552  2.1306  0.2111
  154SOL     OW 1055   0.763   6.773   0.984  0.5528  0.2149 -0.0102
  154SOL    HW1 1056   0.697   6.710   1.013 -0.6729  1.3041 -0.3842
  154SOL    HW2 1057   0.809   6.728   0.912 -0.9100  0.0748 -0.8805
  155SOL     OW 1058   2.297   7.059   3.767 -0.3679 -0.1809  0.0789
  155SOL    HW1 1059   2.289   7.009   3.848 -0.6895 -0.3165 -0.0370
  155SOL    HW2 1060   2.392   7.067   3.753 -0.2781  1.0097  1.1831
  156SOL     OW 1061   2.330   4.087   0.588 -0.4277 -0.0453  0.5511
  156SOL    HW1 1062   2.254   4.031   0.572 -0.5798  0.4023 -0.3225
  156SOL    HW2 1063   2.298   4.176   0.574  0.5334  0.0749 -0.9611
  157SOL     OW 1064   4.503   6.101   6.442 -0.4888  0.3958 -0.4791
  157SOL    HW1 1065   4.499   6.026   6.382 -0.1337 -0.1080  0.1127
  157SOL    HW2 1066   4.494   6.178   6.386  0.6340 -0.0374 -1.2841
  158SOL     OW 1067   5.715   2.459   6.215  0.2643  0.2966 -0.0263
  158SOL    HW1 1068   5.772   2.435   6.288 -0.8749 -0.2039  0.6976
  158SOL    HW2 1069   5.771   2.450   6.138  1.6127  1.3060  0.8108
  159SOL     OW 1070   5.632   3.670   3.933 -0.2709 -0.1988 -0.6794
  159SOL    HW1 1071   5.693   3.597   3.944 -0.7428 -0.9105 -2.5364
  159SOL    HW2 1072   5.635   3.717   4.016  1.6823 -1.0736 -0.2355
  160SOL     OW 1073   5.411   4.930   4.434  0.1611  0.1377  0.2050
  160SOL    HW1 1074   5.452   4.920   4.348 -0.9950  2.5300 -0.6715
  160SOL    HW2 1075   5.318   4.912   4.418  0.1382 -0.6399  1.2083
  161SOL     OW 1076   6.297   2.095   3.753  0.1775 -0.7766  0.4041
  161SOL    HW1 1077   6.312   2.063   3.842  0.8310 -1.4775  0.0540
  161SOL    HW2 1078   6.366   2.161   3.741 -1.2853  0.9316  1.1924
  162SOL     OW 1079   4.061   6.161   0.961 -0.0956  0.3917  0.1854
  162SOL    HW1 1080   3.981   6.162   1.013 -2.4167 -1.8096 -3.1095
  162SOL    HW2 1081   4.033   6.191   0.874  2.3394 -1.6510 -1.3746
  163SOL     OW 1082   2.993   2.001   2.219 -0.0213 -0.4240 -0.0355
  163SOL    HW1 1083   2.987   2.087   2.259  0.9106  0.3335 -1.4862
  163SOL    HW2 1084   2.910   1.990   2.173  0.1378  0.0212 -0.4403
  164SOL     OW 1085   3.811   6.606   0.831 -0.1115  0.2408 -0.3603
  164SOL    HW1 1086   3.735   6.664   0.837 -1.2917 -1.2596 -0.4843
  164SOL    HW2 1087   3.883   6.657   0.870 -0.3104  3.0523 -3.4486
  165SOL     OW 1088   6.383   6.292   0.209 -0.3449  0.4816  0.3628
  165SOL    HW1 1089   6.397   6.262   0.299  1.3849 -3.7616 -1.1863
  165SOL    HW2 1090   6.299   6.254   0.183  0.3292 -0.4029 -0.5815
  166SOL     OW 1091   4.083   3.375   1.574  0.5237 -0.2960 -0.4121
  166SOL    HW1 1092   4.044   3.333   1.650  0.1601  0.3043 -0.2630
  166SOL    HW2 1093   4.152   3.431   1.609  1.3720 -1.1669 -0.6549
  167SOL     OW 1094   5.317   6.902   0.953  0.0575 -0.1179 -0.6564
  167SOL    HW1 1095   5.243   6.847   0.978  0.4973 -0.7181 -0.6659
  167SOL    HW2 1096   5.390   6.841   0.939  0.4338  0.4181 -1.1098
  168SOL     OW 1097   6.361   4.483   6.225 -0.3637 -0.2519 -0.4194
  168SOL    HW1 1098   6.395   4.486   6.315 -1.6121 -0.8921  0.0971
  168SOL    HW2 1099   6.299   4.555   6.220  1.6431  1.4285 -1.6200
  169SOL     OW 1100   0.309   6.014   4.352  0.1539  0.5118 -0.0764
  169SOL    HW1 1101   0.358   6.062   4.419 -0.3522 -2.0082  2.2152
  169SOL    HW2 1102   0.350   5.927   4.351 -2.2714 -0.6814 -0.2831
  170SOL     OW 1103   4.427   4.417   6.137  0.0796 -0.1065 -0.5173
  170SOL    HW1 1104   4.461   4.469   6.065  1.8999  0.5349  0.7393
  170SOL    HW2 1105   4.500   4.412   6.199 -2.0199  1.0002  2.1583
  171SOL     OW 1106   2.390   7.119   1.712 -0.0617  0.3678  0.3842
  171SOL    HW1 1107   2.296   7.134   1.722 -0.1784 -0.0980  0.0110
  171SOL    HW2 1108   2.430   7.201   1.741 -0.7521  1.9739 -3.0128
  172SOL     OW 1109   2.691   2.612   1.630 -0.5710  0.1233  0.0542
  172SOL    HW1 1110   2.746   2.600   1.552  0.3903  1.7008  0.4693
  172SOL    HW2 1111   2.715   2.539   1.687  0.1787  0.0916 -0.2915
  173SOL     OW 1112   1.150   4.348   0.539  0.2465  0.0467  0.3601
  173SOL    HW1 1113   1.137   4.367   0.632  2.0395 -1.4774  0.9503
  173SOL    HW2 1114   1.067   4.308   0.511 -0.7381  1.6152  0.9895
  174SOL     OW 1115   6.821   2.291   2.967  0.4116 -0.0753 -0.0067
  174SOL    HW1 1116   6.781   2.272   3.052 -2.1074  1.0230 -0.9066
  174SOL    HW2 1117   6.833   2.386   2.966  1.5977 -0.2109 -0.4135
  175SOL     OW 1118   0.674   1.406   3.517 -0.0499  0.0779  0.9339
  175SOL    HW1 1119   0.754   1.417   3.569 -0.2641  0.3527  1.2087
  175SOL    HW2 1120   0.671   1.312   3.497  1.1477  0.3066 -0.3851
  176SOL     OW 1121   1.854   2.391   2.869  0.2533  0.8594  0.0782
  176SOL    HW1 1122   1.817   2.366   2.784 -2.5664 -1.6561  1.9210
  176SOL    HW2 1123   1.808   2.471   2.893  0.8756  1.4350 -0.5999
  177SOL     OW 1124   5.414   2.460   1.271 -0.0278 -0.7317  0.0597
  177SOL    HW1 1125   5.425   2.522   1.344  0.2566  0.8771 -1.3387
  177SOL    HW2 1126   5.321   2.437   1.274 -0.5461  1.1564 -0.4891
  178SOL     OW 1127   6.717   6.670   3.486 -0.5332 -0.1841 -0.1889
  178SOL    HW1 1128   6.648   6.735   3.495  0.4221  0.7836  0.2812
  178SOL    HW2 1129   6.699   6.606   3.556 -1.0044  0.0066 -0.1354
  179SOL     OW 1130   4.657   2.102   6.992  0.8186 -0.4180  0.2359
  179SOL    HW1 1131   4.573   2.094   7.037  1.7913  0.9403  2.3898
  179SOL    HW2 1132   4.637   2.084   6.900 -2.2917  2.2090  0.3190
  180SOL     OW 1133   6.862   7.086   5.206 -0.3114 -1.0160  0.2410
  180SOL    HW1 1134   6.951   7.121   5.208 -0.2531 -1.1182 -0.4653
  180SOL    HW2 1135   6.851   7.044   5.292  0.2807 -0.9096  0.3726
  181SOL     OW 1136   6.199   7.184   1.036  0.3161  0.1333  1.0102
  181SOL    HW1 1137   6.275   7.220   1.081  1.2154  1.0698 -1.1847
  181SOL    HW2 1138   6.232   7.160   0.949 -2.3987  2.7329 -0.8220
  182SOL     OW 1139   2.531   7.060   2.748  0.2547  0.1041 -0.1422
  182SOL    HW1 1140   2.571   6.979   2.717 -1.2091 -1.5229  2.0323
  182SOL    HW2 1141   2.488   7.097   2.671  0.2082 -1.6635 -0.9844
  183SOL     OW 1142   5.970   1.935   3.751  0.1952  0.2562  0.0926
  183SOL    HW1 1143   6.004   2.010   3.801 -2.2826  1.6133 -0.2083
  183SOL    HW2 1144   6.028   1.929   3.675  1.2964  0.9286  0.8547
  184SOL     OW 1145   2.420   5.034   6.192  0.4580  0.9446  0.0699
  184SOL    HW1 1146   2.335   5.076   6.178  0.6011  1.4556  0.7131
  184SOL    HW2 1147   2.479   5.077   6.131  0.4336  1.1373  0.1836
  185SOL     OW 1148   3.045   0.062   1.605  0.2031 -0.2978 -0.4041
  185SOL    HW1 1149   3.053   0.157   1.607  0.1161 -0.2732 -1.2093
  185SOL    HW2 1150   2.951   0.045   1.618  0.3337 -0.3128  0.6147
  186SOL     OW 1151   6.972   7.047   3.444 -0.0830 -0.1318  0.0140
  186SOL    HW1 1152   6.974   7.113   3.375  0.0919 -0.1478  0.0027
  186SOL    HW2 1153   6.934   6.970   3.402  1.3064 -0.5736 -0.4430
  187SOL     OW 1154   2.317   3.823   6.652  0.2226  0.6904 -0.2644
  187SOL    HW1 1155   2.251   3.887   6.677 -0.3595 -0.4484  1.1915
  187SOL    HW2 1156   2.339   3.845   6.562  0.1007  2.9848  0.2393
  188SOL     OW 1157   3.867   5.071   7.247 -0.4078 -0.5833  0.1220
  188SOL    HW1 1158   3.932   5.136   7.220 -0.1555  0.0255  2.0451
  188SOL    HW2 1159   3.812   5.118   7.310 -0.8409 -1.9500  0.7801
  189SOL     OW 1160   6.874   1.032   6.469  0.0616  0.2371 -0.1350
  189SOL    HW1 1161   6.953   1.077   6.440 -0.4807  0.3577 -1.4742
  189SOL    HW2 1162   6.903   0.943   6.489  0.5154  0.2392 -0.7631
  190SOL     OW 1163   4.212   1.473   6.301 -0.2606  0.4806 -0.0059
  190SOL    HW1 1164   4.213   1.529   6.379  1.8070  0.9151 -0.3293
  190SOL    HW2 1165   4.288   1.501   6.250  0.2272 -1.9292 -0.6635
  191SOL     OW 1166   2.903   6.766   4.132 -0.3486  0.2654  0.1949
  191SOL    HW1 1167   2.871   6.747   4.220  1.3680 -0.1795  0.7570
  191SOL    HW2 1168   2.954   6.847   4.142  0.2528 -0.0488 -0.2949
  192SOL     OW 1169   0.492   6.897   0.030  0.2895 -0.0108  0.4434
  192SOL    HW1 1170   0.517   6.827   0.090 -1.8759 -1.0335  0.2167
  192SOL    HW2 1171   0.528   6.977   0.069 -0.3710 -0.7653  2.6849
  193SOL     OW 1172   4.274   5.037   7.179  0.9340 -1.1725 -0.4801
  193SOL    HW1 1173   4.308   5.086   7.104 -0.2115  1.5444  0.7025
  193SOL    HW2 1174   4.348   5.028   7.238  0.7143  0.9101  0.1544
  194SOL     OW 1175   5.771   2.464   5.666 -0.2722 -0.1374  0.2385
  194SOL    HW1 1176   5.826   2.393   5.698  0.4799  0.1019 -0.4979
  194SOL    HW2 1177   5.695   2.420   5.629 -0.5535 -0.4765  1.1956
  195SOL     OW 1178   0.052   1.334   4.790  0.2877  0.0209  0.3494
  195SOL    HW1 1179  -0.011   1.406   4.784 -0.2597 -0.4615  0.2715
  195SOL    HW2 1180   0.023   1.271   4.724  1.7891  0.5066 -0.8115
  196SOL     OW 1181   4.771   4.830   1.673 -0.7140 -0.1915 -0.1291
  196SOL    HW1 1182   4.799   4.752   1.624 -0.7490 -0.0285 -0.4037
  196SOL    HW2 1183   4.712   4.795   1.740  2.2978 -0.9207  2.2597
  197SOL     OW 1184   0.182   6.386   6.753  0.0926  0.5092  0.0376
  197SOL    HW1 1185   0.122   6.349   6.818  1.4742 -0.1152  0.9927
  197SOL    HW2 1186   0.136   6.378   6.670 -1.1701  0.1052  0.7605
  198SOL     OW 1187   2.503   6.942   1.498 -0.1611 -0.5407 -0.5688
  198SOL    HW1 1188   2.564   6.980   1.562  0.2916 -1.1893 -0.6151
  198SOL    HW2 1189   2.442   7.013   1.480 -0.1177 -0.2486  0.3598
  199SOL     OW 1190   6.925   5.154   4.351 -0.1492  0.1059 -0.0430
  199SOL    HW1 1191   6.996   5.125   4.294  0.0337  0.6810 -0.1097
  199SOL    HW2 1192   6.850   5.164   4.292 -0.0731  0.2794 -0.1110
  200SOL     OW 1193   2.885   1.384   4.384 -0.2400  0.5301  0.3215
  200SOL    HW1 1194   2.896   1.438   4.305 -0.9985  0.7541  0.3689
  200SOL    HW2 1195   2.869   1.448   4.454  0.6376  0.3422  0.6936
  201SOL     OW 1196   2.139   4.666   6.618 -0.3022 -0.2051 -0.1050
  201SOL    HW1 1197   2.159   4.684   6.526  0.1628 -1.0588 -0.1731
  201SOL    HW2 1198   2.091   4.584   6.617  1.3566 -1.2064  0.5634
  202SOL     OW 1199   6.825   0.384   2.116 -0.9789  0.6059  0.2221
  202SOL    HW1 1200   6.909   0.419   2.145 -0.6974  0.1386 -0.0364
  202SOL    HW2 1201   6.762   0.417   2.181 -0.6734  1.3541  0.1416
  203SOL     OW 1202   0.541   6.165   0.440  0.3878  0.0921 -0.4897
  203SOL    HW1 1203   0.528   6.147   0.347  0.3184 -0.1628 -0.4314
  203SOL    HW2 1204   0.630   6.201   0.445 -0.2634  1.7992 -0.8784
  204SOL     OW 1205   6.977   1.152   5.943 -0.2287  0.4353  0.2874
  204SOL    HW1 1206   7.012   1.095   5.875 -0.2462  0.6784  0.0729
  204SOL    HW2 1207   7.030   1.232   5.937 -1.0849  0.9621 -0.3060
  205SOL     OW 1208   2.016   0.728   5.887  0.1964  0.4506  0.0459
  205SOL    HW1 1209   2.074   0.781   5.943  1.0453 -0.0600 -0.3402
  205SOL    HW2 1210   1.961   0.792   5.842 -0.9889  0.8465  1.9780
  206SOL     OW 1211   1.521   5.155   3.084 -0.6303 -0.2042 -0.0156
  206SOL    HW1 1212   1.595   5.206   3.052 -0.7020 -0.8492 -1.2483
  206SOL    HW2 1213   1.444   5.194   3.041 -0.5948 -1.8610 -1.6486
  207SOL     OW 1214   5.654   3.400   5.232  0.1071 -0.2197  0.1358
  207SOL    HW1 1215   5.719   3.404   5.162 -0.2074  1.9489 -0.0653
  207SOL    HW2 1216   5.631   3.491   5.249  0.7499 -0.6325  3.6179
  208SOL     OW 1217   2.197   2.822   2.196 -0.7025  0.0847 -0.6656
  208SOL    HW1 1218   2.239   2.743   2.163  3.2479  1.0667  1.6652
  208SOL    HW2 1219   2.202   2.814   2.291 -0.1210  3.1291 -0.3770
  209SOL     OW 1220   3.147   4.007   5.461  0.2757 -0.2467 -0.1300
  209SOL    HW1 1221   3.215   4.047   5.406 -0.7636  2.0668  0.1955
  209SOL    HW2 1222   3.194   3.976   5.538  1.7392 -3.4487 -2.2179
  210SOL     OW 1223   1.883   2.449   0.139 -0.1117 -0.1124 -0.1212
  210SOL    HW1 1224   1.802   2.494   0.113 -0.2023 -1.6062 -2.6383
  210SOL    HW2 1225   1.934   2.516   0.184 -3.0546  0.6534  2.2193
  211SOL     OW 1226   0.535   1.501   6.218 -0.2437 -0.3329  0.6335
  211SOL    HW1 1227   0.521   1.528   6.128  0.3185 -1.8761  0.0794
  211SOL    HW2 1228   0.564   1.410   6.213  0.1948 -0.3187  2.3407
  212SOL     OW 1229   0.728   1.086   2.529 -0.3300  0.5514  0.0694
  212SOL    HW1 1230   0.710   0.995   2.552 -0.7602  0.2002 -1.6338
  212SOL    HW2 1231   0.652   1.113   2.477  0.3764  1.5084 -0.4746
  213SOL     OW 1232   1.461   0.291   4.077  0.2237 -0.9202 -0.3133
  213SOL    HW1 1233   1.413   0.348   4.017  1.3979 -1.4271 -1.7546
  213SOL    HW2 1234   1.532   0.255   4.024  2.7043  0.4477  1.9506
  214SOL     OW 1235   3.088   6.994   5.175 -0.0310  0.5233  0.1877
  214SOL    HW1 1236   3.133   7.075   5.201  0.8493 -0.6149  2.3544
  214SOL    HW2 1237   3.143   6.959   5.105  0.7764  0.7181  0.7085
  215SOL     OW 1238   5.760   6.247   2.745 -0.3620  0.0848 -0.0954
  215SOL    HW1 1239   5.809   6.322   2.710 -0.4023  1.3641  2.4315
  215SOL    HW2 1240   5.691   6.231   2.681  0.7377  1.0534 -1.5654
  216SOL     OW 1241   5.113   2.547   0.840  0.4589 -0.3992 -0.2508
  216SOL    HW1 1242   5.088   2.464   0.880  0.4399 -0.0629  0.4400
  216SOL    HW2 1243   5.034   2.578   0.796 -0.1323  0.2677  1.2486
  217SOL     OW 1244   7.221   1.908   3.806  0.5021 -0.3047 -0.1649
  217SOL    HW1 1245   7.282   1.896   3.733  0.0356  1.5270 -0.8733
  217SOL    HW2 1246   7.268   1.965   3.868 -0.4350  1.0276 -0.6683
  218SOL     OW 1247   6.438   4.250   4.940 -0.2300 -0.0047  0.5509
  218SOL    HW1 1248   6.416   4.173   4.992 -0.7500 -0.1541  0.1204
  218SOL    HW2 1249   6.389   4.238   4.858  1.7741 -0.5193 -0.5844
  219SOL     OW 1250   0.410   4.667   3.033  0.0119 -0.2548  0.0020
  219SOL    HW1 1251   0.433   4.623   2.952 -0.4799  0.5777 -0.6092
  219SOL    HW2 1252   0.330   4.715   3.012  0.3482  0.6533  0.7375
  220SOL     OW 1253   5.286   6.725   1.275  0.2658  0.6141 -0.3277
  220SOL    HW1 1254   5.236   6.768   1.206  0.5062 -0.5849 -1.2613
  220SOL    HW2 1255   5.306   6.638   1.240 -0.1000 -0.2152  1.4750
  221SOL     OW 1256   6.171   1.785   2.573 -0.7800 -0.3877 -0.8390
  221SOL    HW1 1257   6.228   1.749   2.641 -2.4843 -2.3057 -0.3703
  221SOL    HW2 1258   6.228   1.795   2.497  0.8613  0.5941  0.4745
  222SOL     OW 1259   6.850   2.835   3.557  0.2939  0.6329  0.0283
  222SOL    HW1 1260   6.826   2.858   3.647 -0.5698  0.7385 -0.2205
  222SOL    HW2 1261   6.861   2.920   3.513 -0.9297  0.5886 -0.3831
  223SOL     OW 1262   2.023   2.363   6.842 -0.2764 -0.1943  0.6776
  223SOL    HW1 1263   1.950   2.344   6.901 -0.9003 -1.0032 -0.3467
  223SOL    HW2 1264   1.981   2.400   6.764  0.4325 -0.4406  0.1842
  224SOL     OW 1265   3.977   6.300   0.739 -0.2783  0.2383  0.1078
  224SOL    HW1 1266   3.997   6.381   0.786  0.1268 -0.1081  0.5405
  224SOL    HW2 1267   3.909   6.325   0.677 -0.6598  0.7616  0.7196
  225SOL     OW 1268   2.457   1.596   2.787 -0.0853  0.2932  0.4562
  225SOL    HW1 1269   2.513   1.659   2.743  2.1665 -1.8465  0.1895
  225SOL    HW2 1270   2.379   1.590   2.731  1.8783 -0.9168 -2.2822
  226SOL     OW 1271   1.257   3.745   4.118 -0.0262  0.5692  0.0268
  226SOL    HW1 1272   1.325   3.813   4.117  0.6196 -0.0818 -0.7376
  226SOL    HW2 1273   1.291   3.677   4.176  0.6576 -0.4324 -1.5113
  227SOL     OW 1274   4.300   4.175   5.096  0.0894 -0.5706  0.1199
  227SOL    HW1 1275   4.366   4.244   5.103  0.1872 -0.5583 -0.8410
  227SOL    HW2 1276   4.275   4.155   5.186  0.2836  0.5092  0.4119
  228SOL     OW 1277   2.536   1.637   0.685 -0.3122 -0.3031 -0.3968
  228SOL    HW1 1278   2.523   1.544   0.666 -0.3191 -0.7226  1.4800
  228SOL    HW2 1279   2.462   1.660   0.742  0.3126  0.5387  0.0914
  229SOL     OW 1280   0.370   0.400   4.938  0.0181 -0.3529 -0.3759
  229SOL    HW1 1281   0.358   0.483   4.985  0.8325 -0.2337 -0.3727
  229SOL    HW2 1282   0.369   0.333   5.006 -1.6340 -0.4543 -0.4676
  230SOL     OW 1283   3.315   4.538   1.816 -0.7650  0.6020 -0.2564
  230SOL    HW1 1284   3.346   4.623   1.784 -2.0063  0.9775 -0.4713
  230SOL    HW2 1285   3.236   4.521   1.764 -1.6396  0.2506  1.1851
  231SOL     OW 1286   6.419   4.216   3.068  0.3933  0.5545  0.3331
  231SOL    HW1 1287   6.335   4.249   3.100  0.7153  0.2959  1.4682
  231SOL    HW2 1288   6.467   4.294   3.042 -0.1557  0.7108 -0.2162
  232SOL     OW 1289   2.274   2.328   0.294  0.2402  0.3431 -0.6787
  232SOL    HW1 1290   2.196   2.296   0.248 -0.2859  0.3755  0.1894
  232SOL    HW2 1291   2.348   2.292   0.244 -0.3165  0.7999 -1.8600
  233SOL     OW 1292   5.099   3.529   0.790  0.0609 -0.0380 -0.5247
  233SOL    HW1 1293   5.033   3.598   0.784  0.5744  0.4611 -0.4256
  233SOL    HW2 1294   5.144   3.544   0.873  0.1427 -0.5247 -0.4751
  234SOL     OW 1295   7.021   1.604   5.754  0.0758 -0.2878 -0.0995
  234SOL    HW1 1296   6.955   1.619   5.686 -1.3282 -2.1178  0.8331
  234SOL    HW2 1297   7.038   1.691   5.790 -2.1863  0.1454 -0.0242
  235SOL     OW 1298   5.423   1.387   7.242  0.0689 -0.2126  0.2013
  235SOL    HW1 1299   5.366   1.457   7.211 -1.2491 -1.2681  0.1817
  235SOL    HW2 1300   5.435   1.405   7.335  0.2697  0.3919  0.0622
  236SOL     OW 1301   5.435   3.780   6.460 -0.1095 -0.7416  0.3071
  236SOL    HW1 1302   5.401   3.796   6.548  0.0501  0.1892  0.2106
  236SOL    HW2 1303   5.444   3.867   6.422  0.9190 -1.0636 -0.2180
  237SOL     OW 1304   4.463   4.789   4.493 -0.1787  0.2590 -0.2133
  237SOL    HW1 1305   4.384   4.826   4.452  0.6138  1.6676 -0.5263
  237SOL    HW2 1306   4.490   4.856   4.556 -0.4449 -1.1741  1.4501
  238SOL     OW 1307   4.849   5.985   5.099  0.7199  0.1034 -0.5384
  238SOL    HW1 1308   4.765   6.027   5.083 -0.3849 -1.8646 -0.0575
  238SOL    HW2 1309   4.885   5.969   5.012  0.9515  1.5676 -0.7358
  239SOL     OW 1310   1.003   4.861   6.287  0.1731  0.0103 -0.2172
  239SOL    HW1 1311   1.089   4.849   6.248 -0.2275 -0.4952 -0.9648
  239SOL    HW2 1312   0.999   4.794   6.356  0.0749 -0.4936 -0.7082
  240SOL     OW 1313   0.528   0.806   3.782 -0.3867 -0.2154 -0.5152
  240SOL    HW1 1314   0.482   0.884   3.749  1.3233  0.3291 -1.6608
  240SOL    HW2 1315   0.621   0.826   3.771  0.1568 -1.3865  1.5946
  241SOL     OW 1316   3.560   4.424   1.681  0.5432 -0.2768  0.0456
  241SOL    HW1 1317   3.626   4.488   1.706  0.1010 -0.7755  2.6389
  241SOL    HW2 1318   3.480   4.454   1.724 -0.1367 -1.4492 -0.3783
  242SOL     OW 1319   2.715   3.795   5.428  0.1044 -0.1315  0.4426
  242SOL    HW1 1320   2.772   3.860   5.468  0.8823 -1.4224  1.4826
  242SOL    HW2 1321   2.677   3.840   5.352  0.8546  1.4185  0.9615
  243SOL     OW 1322   2.680   5.035   0.047 -0.4152 -0.4721 -0.9198
  243SOL    HW1 1323   2.735   4.957   0.034 -0.0464 -0.3756 -0.0217
  243SOL    HW2 1324   2.594   5.000   0.071  0.0945 -0.5958  0.7588
  244SOL     OW 1325   3.801   5.630   5.199  0.2488  0.2898  0.2237
  244SOL    HW1 1326   3.790   5.562   5.265 -2.7479  0.7118  0.2119
  244SOL    HW2 1327   3.858   5.695   5.240 -0.3860 -0.1598  1.8495
  245SOL     OW 1328   7.056   5.239   1.334 -0.2215  0.0464  0.1466
  245SOL    HW1 1329   6.974   5.287   1.331  0.0743  0.5574  0.2543
  245SOL    HW2 1330   7.121   5.303   1.363  0.1190 -0.4886  0.5873
  246SOL     OW 1331   4.200   2.316   1.090 -0.3681  0.3946  0.1524
  246SOL    HW1 1332   4.294   2.317   1.073  0.0226  1.4023  2.2363
  246SOL    HW2 1333   4.184   2.393   1.144 -1.9829 -1.0929  1.8807
  247SOL     OW 1334   0.309   1.867   1.973  0.1134 -0.2039 -0.4979
  247SOL    HW1 1335   0.376   1.799   1.981  0.6943  0.5080  0.7370
  247SOL    HW2 1336   0.301   1.904   2.060 -0.9833  0.5941 -0.9203
  248SOL     OW 1337   4.232   5.221   0.538 -0.1076  0.0142 -0.1958
  248SOL    HW1 1338   4.178   5.240   0.615  0.7077  0.5110  0.2614
  248SOL    HW2 1339   4.190   5.145   0.497 -1.8914  1.1931 -0.5739
  249SOL     OW 1340   4.991   1.359   2.589  0.2302 -0.0868 -0.4724
  249SOL    HW1 1341   4.916   1.333   2.642 -0.8314 -0.1847 -1.9675
  249SOL    HW2 1342   5.048   1.408   2.648 -1.1160  0.1434  0.6372
  250SOL     OW 1343   5.537   2.512   0.073 -0.5176 -0.0037  0.3010
  250SOL    HW1 1344   5.629   2.513   0.048 -0.0755  2.5510  1.8243
  250SOL    HW2 1345   5.489   2.529  -0.008  0.4696  0.7712 -0.1204
  251SOL     OW 1346   6.898   3.297   4.231 -0.2597  0.0590  0.5718
  251SOL    HW1 1347   6.849   3.305   4.313  0.4843  0.8576  0.9480
  251SOL    HW2 1348   6.921   3.386   4.207 -1.4909 -0.0705 -1.1599
  252SOL     OW 1349   1.456   5.271   1.902 -0.2176 -0.2310 -0.1456
  252SOL    HW1 1350   1.448   5.249   1.995 -0.5366 -0.6514 -0.2686
  252SOL    HW2 1351   1.481   5.363   1.900  0.3696 -0.3811  0.3723
  253SOL     OW 1352   6.201   6.929   5.187 -0.1907  0.0852 -0.2981
  253SOL    HW1 1353   6.215   6.997   5.121 -1.2539 -0.5265 -1.1689
  253SOL    HW2 1354   6.215   6.847   5.140  1.7773 -0.3184  0.9046
  254SOL     OW 1355   7.103   6.933   4.225 -0.2661  0.4254  0.2104
  254SOL    HW1 1356   7.196   6.931   4.204 -0.2464  0.3157  0.3037
  254SOL    HW2 1357   7.069   6.851   4.191 -0.4171  0.6680 -0.2265
  255SOL     OW 1358   6.685   2.431   7.208  0.2328 -0.1909 -0.2626
  255SOL    HW1 1359   6.602   2.408   7.250 -0.3115 -0.5302 -1.4858
  255SOL    HW2 1360   6.746   2.364   7.237  0.4775  0.8991  1.8322
  256SOL     OW 1361   2.918   2.638   0.192 -0.3730  0.8504  0.3937
  256SOL    HW1 1362   2.902   2.732   0.185  0.6102  1.0988  1.2962
  256SOL    HW2 1363   2.887   2.615   0.280  1.3091  0.7474  0.9719
  257SOL     OW 1364   4.002   5.997   2.745  1.1111  0.0616  0.3972
  257SOL    HW1 1365   3.994   5.909   2.782 -0.1012 -0.0130 -0.0047
  257SOL    HW2 1366   4.077   5.991   2.686 -0.5558 -1.4694 -1.6725
  258SOL     OW 1367   5.356   6.511   0.494 -0.8639 -0.7005 -0.7828
  258SOL    HW1 1368   5.369   6.440   0.557  2.6701  0.3335 -0.2169
  258SOL    HW2 1369   5.326   6.585   0.547 -0.0401 -0.4670 -0.6331
  259SOL     OW 1370   0.998   6.296   5.439 -0.0084 -0.0517 -0.3451
  259SOL    HW1 1371   0.940   6.369   5.461  0.1775  0.1967 -0.6834
  259SOL    HW2 1372   0.995   6.239   5.516  0.1886  0.5297  0.0908
  260SOL     OW 1373   4.334   3.377   5.574 -0.6964  0.2048  0.0930
  260SOL    HW1 1374   4.355   3.449   5.634  0.5631 -1.2942  1.5237
  260SOL    HW2 1375   4.386   3.395   5.496 -0.2239  0.7386  0.5232
  261SOL     OW 1376   6.581   1.761   6.975  0.0047 -1.0572 -0.1208
  261SOL    HW1 1377   6.572   1.676   6.931  0.5712 -1.0509 -0.2634
  261SOL    HW2 1378   6.659   1.800   6.935  2.3069 -2.3137  2.9176
  262SOL     OW 1379   0.849   0.585   1.966 -0.0270 -0.6574 -0.5313
  262SOL    HW1 1380   0.914   0.641   2.009  1.1398 -0.2165 -2.7893
  262SOL    HW2 1381   0.767   0.632   1.975  0.7362  0.8762 -1.3396
  263SOL     OW 1382   3.692   0.898   7.038 -0.1805 -0.4462 -0.2126
  263SOL    HW1 1383   3.615   0.872   7.089 -0.2090  0.6326  0.3087
  263SOL    HW2 1384   3.666   0.883   6.947 -1.4062  0.8770 -0.1110
  264SOL     OW 1385   5.653   5.599   1.957  0.1103  0.1735  0.2585
  264SOL    HW1 1386   5.571   5.618   2.002 -0.7027 -1.4478 -0.4730
  264SOL    HW2 1387   5.709   5.559   2.024 -0.0385  0.4379  0.5392
  265SOL     OW 1388   5.397   4.940   4.704 -0.5242 -0.4901 -0.3139
  265SOL    HW1 1389   5.392   4.936   4.608 -1.9013 -0.1156 -0.2623
  265SOL    HW2 1390   5.440   5.024   4.722 -1.5317  0.0789 -0.5643
  266SOL     OW 1391   2.563   4.219   6.264 -0.1493  0.5966 -0.2808
  266SOL    HW1 1392   2.590   4.250   6.350  1.7955  0.2029 -0.7127
  266SOL    HW2 1393   2.591   4.288   6.204  0.8793 -0.2812 -0.8483
  267SOL     OW 1394   6.503   3.902   2.384  0.0757 -0.0989  0.1200
  267SOL    HW1 1395   6.436   3.835   2.375  1.3863 -1.3599 -0.4546
  267SOL    HW2 1396   6.533   3.919   2.294  0.4307  0.5635  0.3564
  268SOL     OW 1397   1.835   2.451   1.800  0.2489  0.1585 -0.3395
  268SOL    HW1 1398   1.742   2.477   1.798 -0.2700 -1.3795  2.0224
  268SOL    HW2 1399   1.875   2.501   1.728 -2.5616  0.2052 -1.9553
  269SOL     OW 1400   3.284   1.789   2.437  0.3276  0.2700  0.0670
  269SOL    HW1 1401   3.195   1.754   2.443  0.4501  0.1449  1.3591
  269SOL    HW2 1402   3.334   1.720   2.393 -0.3854  0.6934 -1.4364
  270SOL     OW 1403   0.238   1.947   6.538  0.5469 -0.8825  0.3447
  270SOL    HW1 1404   0.280   1.907   6.462  0.2780  0.6403 -0.6222
  270SOL    HW2 1405   0.309   1.992   6.584  0.3972 -0.2513 -0.0299
  271SOL     OW 1406   4.483   1.455   0.624  0.6327  0.0822  0.5550
  271SOL    HW1 1407   4.560   1.494   0.666  1.1257 -0.6102  0.3113
  271SOL    HW2 1408   4.519   1.390   0.564 -0.1637 -0.5286  0.7293
  272SOL     OW 1409   4.240   3.679   4.985  0.0411  0.7082 -0.0547
  272SOL    HW1 1410   4.171   3.739   4.957 -0.7089 -0.3385 -0.4974
  272SOL    HW2 1411   4.274   3.717   5.066  0.1551  2.1644 -0.7594
  273SOL     OW 1412   6.225   2.209   4.904  0.2356  0.7823  0.0052
  273SOL    HW1 1413   6.145   2.162   4.881  0.1386  0.4068  1.0516
  273SOL    HW2 1414   6.270   2.149   4.964 -0.2599  2.3472  1.9807
  274SOL     OW 1415   5.367   3.687   2.473 -0.0270  0.5627 -0.1228
  274SOL    HW1 1416   5.441   3.747   2.464  1.2763 -0.8431  0.9483
  274SOL    HW2 1417   5.372   3.656   2.564 -0.8829 -0.8829 -0.5469
  275SOL     OW 1418   0.003   1.261   6.847 -0.2129 -0.0660 -0.0290
  275SOL    HW1 1419   0.042   1.324   6.908  3.0529 -1.1042 -0.9223
  275SOL    HW2 1420  -0.004   1.309   6.764 -1.0390  0.1721  0.1736
  276SOL     OW 1421   0.551   5.092   0.694 -0.3376 -0.4330  0.0272
  276SOL    HW1 1422   0.546   5.187   0.707  0.6198 -0.3946  0.1902
  276SOL    HW2 1423   0.488   5.074   0.624  0.1761  0.4654 -0.6805
  277SOL     OW 1424   3.965   6.691   1.937 -0.1861  0.0785  0.1984
  277SOL    HW1 1425   3.968   6.759   2.004  0.2009 -1.6122  1.9465
  277SOL    HW2 1426   4.057   6.679   1.911 -0.6105  2.7824 -2.8275
  278SOL     OW 1427   1.708   6.283   4.952  0.2757  0.3355 -0.8689
  278SOL    HW1 1428   1.631   6.335   4.929 -0.3354 -0.6371 -1.0971
  278SOL    HW2 1429   1.779   6.346   4.961 -0.7616  1.3732  0.2885
  279SOL     OW 1430   2.217   7.062   4.076 -0.1001  0.2285  0.3902
  279SOL    HW1 1431   2.143   7.118   4.051 -0.0431  1.2028  2.3460
  279SOL    HW2 1432   2.280   7.122   4.116  1.1339 -0.8355  0.0613
  280SOL     OW 1433   6.647   4.359   6.480  0.3454 -0.2682  0.0538
  280SOL    HW1 1434   6.629   4.434   6.424  3.6612  1.0263  0.5929
  280SOL    HW2 1435   6.588   4.370   6.554 -1.7740 -0.2193 -1.5931
  281SOL     OW 1436   0.876   2.813   1.189 -0.6947 -0.0667 -0.2486
  281SOL    HW1 1437   0.854   2.720   1.191 -2.1822  0.2635 -1.0587
  281SOL    HW2 1438   0.871   2.840   1.280  0.4594 -0.9281  0.0923
  282SOL     OW 1439   5.794   7.021   5.344  0.3426  0.4743 -0.0610
  282SOL    HW1 1440   5.879   7.044   5.382 -0.0406 -0.0331  1.1202
  282SOL    HW2 1441   5.814   6.955   5.278  0.7220 -0.6371  1.1620
  283SOL     OW 1442   2.946   7.105   1.815  0.3398 -0.3993  0.0182
  283SOL    HW1 1443   2.895   7.089   1.894 -3.7227  0.1825 -2.3601
  283SOL    HW2 1444   2.993   7.187   1.833 -3.5923  1.8735  0.4781
  284SOL     OW 1445   0.294   2.238   6.305  0.3723 -0.1227 -0.2788
  284SOL    HW1 1446   0.347   2.164   6.274  0.0837  0.0701 -1.2603
  284SOL    HW2 1447   0.257   2.276   6.225 -0.2640  0.4922  0.3009
  285SOL     OW 1448   1.626   4.945   1.811  0.3139 -0.8208 -0.9494
  285SOL    HW1 1449   1.673   5.025   1.786 -0.5585 -1.0504 -3.4679
  285SOL    HW2 1450   1.535   4.961   1.786 -0.3343 -1.7048  0.7288
  286SOL     OW 1451   1.784   2.207   5.046  0.3532 -0.0183 -0.1262
  286SOL    HW1 1452   1.870   2.166   5.032  0.5284  0.2644  0.1341
  286SOL    HW2 1453   1.748   2.218   4.957  0.2127 -0.9396 -0.1895
  287SOL     OW 1454   3.604   4.873   1.556 -0.9565 -0.0004 -0.3919
  287SOL    HW1 1455   3.661   4.919   1.495 -1.0926 -0.3365 -0.7779
  287SOL    HW2 1456   3.534   4.837   1.501 -1.2304 -0.0706 -0.0006
  288SOL     OW 1457   4.912   3.507   5.539  0.4140 -0.2873  0.5986
  288SOL    HW1 1458   4.844   3.525   5.474  1.6407  1.8514 -0.1548
  288SOL    HW2 1459   4.957   3.429   5.506  1.5925  1.2823 -1.6555
  289SOL     OW 1460   4.589   3.752   4.688  0.7062 -0.0473 -0.8541
  289SOL    HW1 1461   4.524   3.727   4.623  0.2508  0.4311 -0.5888
  289SOL    HW2 1462   4.548   3.824   4.737  1.8758  1.0456 -1.4287
  290SOL     OW 1463   2.333   3.735   5.453 -0.1362 -0.4114 -0.3056
  290SOL    HW1 1464   2.311   3.823   5.423  3.2053  1.1346  1.5599
  290SOL    HW2 1465   2.377   3.694   5.377 -2.2521 -0.7567 -1.3837
  291SOL     OW 1466   3.436   6.746   1.481 -0.7284  0.5482  0.2593
  291SOL    HW1 1467   3.414   6.654   1.492  0.3027  0.0272 -1.8129
  291SOL    HW2 1468   3.496   6.766   1.552 -0.3705 -0.5655  0.2706
  292SOL     OW 1469   5.307   5.016   6.719  0.1874  0.6696 -0.0001
  292SOL    HW1 1470   5.264   5.059   6.793  1.4779  1.2418  0.4135
  292SOL    HW2 1471   5.337   5.087   6.663  1.0835  0.2859 -0.0170
  293SOL     OW 1472   1.119   2.511   3.069 -0.6812  0.7100 -0.3601
  293SOL    HW1 1473   1.051   2.570   3.102 -1.0897 -1.0688  2.1231
  293SOL    HW2 1474   1.185   2.511   3.139  0.8327  0.7079 -1.7708
  294SOL     OW 1475   5.423   7.010   2.938  0.1073  0.3264  0.7293
  294SOL    HW1 1476   5.468   7.076   2.885 -2.5611  0.5077 -1.4113
  294SOL    HW2 1477   5.492   6.950   2.966  2.5121  3.6270  2.1906
  295SOL     OW 1478   4.747   1.160   4.080 -0.0867 -0.6624  0.7046
  295SOL    HW1 1479   4.830   1.119   4.055  0.0857  0.6615 -0.9645
  295SOL    HW2 1480   4.684   1.088   4.082  1.0591 -1.6468  1.8226
  296SOL     OW 1481   5.804   6.090   6.239  0.0815  0.4793  0.7818
  296SOL    HW1 1482   5.812   6.108   6.145  1.5790  1.2818  1.0416
  296SOL    HW2 1483   5.715   6.057   6.249  0.3514 -0.9215 -1.1203
  297SOL     OW 1484   1.197   0.932   2.469  0.4556  0.4116  0.3402
  297SOL    HW1 1485   1.260   1.004   2.470  1.0342  0.0045 -2.5765
  297SOL    HW2 1486   1.251   0.853   2.460 -0.3724 -0.0455 -0.7770
  298SOL     OW 1487   2.652   1.716   1.753 -0.0114  0.3823 -0.1457
  298SOL    HW1 1488   2.576   1.707   1.695 -0.7626 -1.1753  1.0165
  298SOL    HW2 1489   2.614   1.715   1.841  1.4002 -1.1144  0.4776
  299SOL     OW 1490   1.150   3.978   2.441 -0.3000 -0.0827  0.4254
  299SOL    HW1 1491   1.185   3.974   2.352  2.7311 -0.1344  1.5664
  299SOL    HW2 1492   1.149   3.887   2.471 -1.7282 -0.1155  0.3274
  300SOL     OW 1493   2.946   4.015   4.988  0.4773  0.0929  0.1719
  300SOL    HW1 1494   2.894   3.942   5.021 -1.4455  1.0074 -0.7622
  300SOL    HW2 1495   2.963   4.069   5.066 -0.5192  0.1224  0.3741
  301SOL     OW 1496   6.895   2.203   5.545  0.4227 -0.1908  0.0169
  301SOL    HW1 1497   6.851   2.147   5.482  0.1857 -0.2135  0.2029
  301SOL    HW2 1498   6.850   2.187   5.628 -1.0674  1.8677 -0.3427
  302SOL     OW 1499   3.526   1.758   0.390 -0.1671  0.3068 -0.2461
  302SOL    HW1 1500   3.437   1.778   0.418 -1.3056 -0.9863 -2.7531
  302SOL    HW2 1501   3.542   1.669   0.421  1.1481  1.3829  2.2281
  303SOL     OW 1502   6.808   1.278   5.092 -0.3078  0.4213  0.1795
  303SOL    HW1 1503   6.850   1.346   5.146 -0.1585  1.0996 -0.7725
  303SOL    HW2 1504   6.801   1.318   5.005 -0.6819 -0.6073 -0.2684
  304SOL     OW 1505   1.090   4.578   4.880 -0.1871 -0.0650  0.2730
  304SOL    HW1 1506   0.998   4.604   4.884 -0.4807 -1.2075  1.3495
  304SOL    HW2 1507   1.088   4.490   4.843  0.4000 -0.3901  1.0012
  305SOL     OW 1508   5.288   5.211   4.161  0.2637  0.0875  0.3266
  305SOL    HW1 1509   5.315   5.297   4.193  1.6563  0.2444 -1.1827
  305SOL    HW2 1510   5.356   5.187   4.098 -1.2280 -1.1624 -0.8452
  306SOL     OW 1511   1.151   0.611   6.494  0.3271  0.6112 -0.4906
  306SOL    HW1 1512   1.139   0.595   6.588  2.1294 -2.7682 -0.7825
  306SOL    HW2 1513   1.124   0.703   6.483  0.7131  1.3105  3.4111
  307SOL     OW 1514   6.881   0.787   5.915  0.0804 -0.5743  0.2493
  307SOL    HW1 1515   6.871   0.697   5.885  0.0889 -0.2082 -0.8678
  307SOL    HW2 1516   6.948   0.782   5.982 -0.2265 -1.4672  0.4979
  308SOL     OW 1517   1.091   4.080   2.157 -0.0358 -0.8679  0.1902
  308SOL    HW1 1518   1.038   4.063   2.235  0.0649  0.1175  0.4807
  308SOL    HW2 1519   1.081   4.001   2.104  1.5495 -2.4596  2.1336
  309SOL     OW 1520   1.161   0.060   4.221  1.0589 -0.1280  0.2621
  309SOL    HW1 1521   1.096   0.113   4.265 -1.1349 -2.0446 -0.5569
  309SOL    HW2 1522   1.244   0.105   4.236 -0.2265  1.5163  2.6622
  310SOL     OW 1523   1.100   0.160   3.018  0.4560  0.2393 -0.3246
  310SOL    HW1 1524   1.017   0.169   3.065  0.9941 -1.0307  0.9206
  310SOL    HW2 1525   1.117   0.247   2.982 -1.0156  0.7108  0.0673
  311SOL     OW 1526   7.049   1.448   6.375  0.4183  0.0295 -0.1932
  311SOL    HW1 1527   7.053   1.497   6.293 -1.0793  0.3850 -0.0779
  311SOL    HW2 1528   7.060   1.357   6.349  1.9996  0.3104 -0.5477
  312SOL     OW 1529   6.402   3.962   6.648 -0.0493  0.7253  0.2138
  312SOL    HW1 1530   6.314   3.972   6.684  0.3190  2.4701  0.7071
  312SOL    HW2 1531   6.400   4.011   6.566  0.2259  0.0585 -0.1938
  313SOL     OW 1532   5.377   3.382   6.932  0.2578 -0.0451 -0.4987
  313SOL    HW1 1533   5.394   3.411   7.022  1.4618  1.6103 -1.2320
  313SOL    HW2 1534   5.303   3.437   6.903  2.4236  2.2829 -1.8292
  314SOL     OW 1535   1.782   6.341   0.658 -0.7311 -1.2233 -0.0733
  314SOL    HW1 1536   1.728   6.369   0.583 -0.9777  1.0602  0.9037
  314SOL    HW2 1537   1.780   6.246   0.655 -2.6399 -1.1688 -1.6242
  315SOL     OW 1538   1.266   5.517   7.016 -0.3128  0.6569 -0.0314
  315SOL    HW1 1539   1.251   5.426   6.992 -1.9936  0.8052  0.3763
  315SOL    HW2 1540   1.184   5.561   6.996  0.5468  2.1245 -0.3928
  316SOL     OW 1541   1.616   3.984   2.195  0.4862  0.3963  0.0196
  316SOL    HW1 1542   1.674   3.927   2.145  0.0692 -0.7159  0.7764
  316SOL    HW2 1543   1.611   4.065   2.144  2.9996  0.6624  0.1429
  317SOL     OW 1544   2.273   1.074   4.238  0.4119 -0.3140 -0.3684
  317SOL    HW1 1545   2.325   1.075   4.319  0.3676 -1.0079 -0.3283
  317SOL    HW2 1546   2.200   1.016   4.257  0.1642 -0.1336 -0.7642
  318SOL     OW 1547   2.518   2.771   1.741  0.1721  0.1492 -0.1857
  318SOL    HW1 1548   2.562   2.837   1.794 -0.1162 -0.7463  1.1937
  318SOL    HW2 1549   2.589   2.721   1.702  0.4022 -0.5621  1.1121
  319SOL     OW 1550   1.023   7.173   1.941 -0.1652  0.4197  0.5127
  319SOL    HW1 1551   1.029   7.078   1.938  0.1937  0.4403  0.5497
  319SOL    HW2 1552   0.957   7.191   2.008 -0.7964  0.1816 -0.0442
  320SOL     OW 1553   3.980   2.993   5.840  0.2302 -0.4975  0.1771
  320SOL    HW1 1554   3.974   2.899   5.858 -0.2523 -0.2803  1.1795
  320SOL    HW2 1555   3.898   3.029   5.874  1.4455  0.6248  1.9830
  321SOL     OW 1556   6.474   3.465   2.639  0.1241  0.1011  0.9865
  321SOL    HW1 1557   6.541   3.534   2.637 -1.3374  1.5431 -0.1088
  321SOL    HW2 1558   6.516   3.390   2.596  1.8265  0.2075  2.4148
  322SOL     OW 1559   0.453   1.496   6.493 -0.2209 -0.3975 -0.3600
  322SOL    HW1 1560   0.483   1.491   6.402 -1.4966 -3.1781 -0.6734
  322SOL    HW2 1561   0.531   1.476   6.545 -0.2550 -2.2907 -0.9901
  323SOL     OW 1562   0.782   1.255   1.715  0.1433 -0.5531  0.4300
  323SOL    HW1 1563   0.800   1.228   1.806 -2.9203 -1.6123  0.7524
  323SOL    HW2 1564   0.738   1.340   1.724  2.1792  0.6029 -0.2225
  324SOL     OW 1565   2.752   5.346   0.340 -0.0668 -0.0544 -0.1318
  324SOL    HW1 1566   2.712   5.375   0.258  2.0746  0.1656 -1.1360
  324SOL    HW2 1567   2.829   5.403   0.350 -1.7429  1.7395  3.4168
  325SOL     OW 1568   1.887   3.081   6.895  0.8528  0.1520  0.5109
  325SOL    HW1 1569   1.813   3.141   6.886 -1.0636 -1.8735  1.9942
  325SOL    HW2 1570   1.848   3.000   6.929  3.4228 -1.7308 -0.7797
  326SOL     OW 1571   2.076   5.726   0.516 -0.1060  0.2052 -0.4005
  326SOL    HW1 1572   2.000   5.693   0.469  0.7192 -1.3093 -0.6868
  326SOL    HW2 1573   2.098   5.658   0.579  1.9121 -0.0484 -1.3321
  327SOL     OW 1574   0.118   2.007   1.352 -0.5548 -0.2788 -0.1293
  327SOL    HW1 1575   0.122   1.957   1.271  0.0748 -1.9434  0.8973
  327SOL    HW2 1576   0.191   2.069   1.347 -0.9066  0.0611 -1.0916
  328SOL     OW 1577   3.143   4.913   0.897 -0.0020 -0.5424 -0.1824
  328SOL    HW1 1578   3.079   4.842   0.902 -0.9831  0.0368 -3.0236
  328SOL    HW2 1579   3.225   4.870   0.874 -0.5901 -0.8078 -1.8928
  329SOL     OW 1580   1.473   3.538   4.664  0.0853  0.1323 -0.3423
  329SOL    HW1 1581   1.502   3.605   4.602  1.9518 -0.2490  0.0713
  329SOL    HW2 1582   1.378   3.533   4.653 -0.1277  3.1094 -0.0907
  330SOL     OW 1583   0.437   5.630   1.602  0.4362 -0.3472  0.2631
  330SOL    HW1 1584   0.388   5.594   1.528 -1.2457  1.7368  0.3103
  330SOL    HW2 1585   0.441   5.559   1.666 -1.0496 -1.0713 -0.4445
  331SOL     OW 1586   2.348   2.664   1.974 -0.5556 -0.5440 -0.4123
  331SOL    HW1 1587   2.257   2.649   1.951 -0.8499  0.5680 -0.0138
  331SOL    HW2 1588   2.389   2.693   1.893 -0.9680  0.7087 -0.1777
  332SOL     OW 1589   7.256   7.145   6.099  0.0890  0.2261  0.2281
  332SOL    HW1 1590   7.233   7.236   6.115  1.6423  0.2155  2.7332
  332SOL    HW2 1591   7.338   7.149   6.050  0.2383  0.1509  0.4754
  333SOL     OW 1592   0.182   3.069   3.239 -0.0790  0.0329  0.4897
  333SOL    HW1 1593   0.176   3.163   3.222  0.1368  0.0625  0.5721
  333SOL    HW2 1594   0.206   3.031   3.155  0.7371  0.1515  0.6656
  334SOL     OW 1595   6.335   6.489   5.158 -0.2150  0.3821  0.3435
  334SOL    HW1 1596   6.336   6.399   5.125 -0.6908 -0.4401  2.5029
  334SOL    HW2 1597   6.427   6.508   5.180 -0.1660  0.3069  0.2018
  335SOL     OW 1598   6.656   3.408   4.856  0.6821 -0.7745 -0.2072
  335SOL    HW1 1599   6.601   3.477   4.894  0.6558 -1.0122  0.1806
  335SOL    HW2 1600   6.601   3.370   4.787  0.5283 -0.7042 -0.1247
  336SOL     OW 1601   0.776   4.640   1.374 -0.2571  0.2254 -0.5085
  336SOL    HW1 1602   0.771   4.669   1.283  1.3454  0.0878 -0.6530
  336SOL    HW2 1603   0.857   4.678   1.408 -0.2823 -0.6093  0.5377
  337SOL     OW 1604   2.986   2.633   2.291 -0.2682 -0.0629  0.4540
  337SOL    HW1 1605   2.897   2.667   2.288  0.2989  1.3549 -1.3957
  337SOL    HW2 1606   3.038   2.704   2.327  0.3756 -0.2315 -0.1174
  338SOL     OW 1607   3.489   6.861   3.323  0.7498 -0.4161  0.7230
  338SOL    HW1 1608   3.493   6.948   3.361  3.5630 -0.2674  0.2025
  338SOL    HW2 1609   3.527   6.804   3.390 -0.6077 -1.2054  0.8534
  339SOL     OW 1610   6.848   7.189   3.886  0.8506  0.1605  0.3406
  339SOL    HW1 1611   6.926   7.183   3.941  0.7244 -1.0050  0.4129
  339SOL    HW2 1612   6.874   7.148   3.803  0.8717  1.4176 -0.2748
  340SOL     OW 1613   7.191   3.567   3.722  0.0413  0.1933 -0.3014
  340SOL    HW1 1614   7.186   3.662   3.708  1.4545  0.0083 -2.3097
  340SOL    HW2 1615   7.219   3.558   3.813  0.9037  1.7195 -0.3966
  341SOL     OW 1616   0.701   6.139   4.056 -0.5501 -0.6626 -0.3387
  341SOL    HW1 1617   0.763   6.147   3.984 -0.3190  0.1918 -0.0491
  341SOL    HW2 1618   0.745   6.080   4.119 -0.2835 -0.5253 -0.3972
  342SOL     OW 1619   5.632   4.737   5.588  0.2002  0.0011 -0.1117
  342SOL    HW1 1620   5.710   4.768   5.634  0.2071  0.8198 -0.6653
  342SOL    HW2 1621   5.559   4.778   5.635  0.1513 -0.0538 -0.1413
  343SOL     OW 1622   5.658   0.994   5.018  0.3444 -0.7728  0.1315
  343SOL    HW1 1623   5.748   1.008   4.989 -0.1506  1.2965 -0.4976
  343SOL    HW2 1624   5.607   1.061   4.972 -1.6021 -2.2768  0.0448
  344SOL     OW 1625   1.397   4.885   3.698  0.2337 -0.5271  0.2242
  344SOL    HW1 1626   1.364   4.971   3.723  0.1897 -0.7795  1.0521
  344SOL    HW2 1627   1.432   4.849   3.779  1.4724 -0.7443 -0.3999
  345SOL     OW 1628   7.067   3.005   0.685  0.1764  0.1743  0.2874
  345SOL    HW1 1629   7.124   3.060   0.738 -0.1764  1.5915 -0.7802
  345SOL    HW2 1630   7.040   2.935   0.744  1.1051  0.8049  1.4867
  346SOL     OW 1631   5.299   0.629   4.767 -0.3586  0.0135 -0.2932
  346SOL    HW1 1632   5.333   0.694   4.705 -0.4985  0.5669  0.2054
  346SOL    HW2 1633   5.207   0.652   4.778  0.1927  1.3575  1.8824
  347SOL     OW 1634   0.624   7.112   3.898 -0.2338  0.5722  0.9818
  347SOL    HW1 1635   0.575   7.039   3.934 -0.1527  0.6829  1.3184
  347SOL    HW2 1636   0.716   7.090   3.913 -0.2247  1.0083  1.6147
  348SOL     OW 1637   0.882   0.310   1.338  0.3314  0.1026 -0.3182
  348SOL    HW1 1638   0.858   0.224   1.374 -0.7671  1.4839  2.3815
  348SOL    HW2 1639   0.943   0.346   1.402 -1.0518  2.3218 -0.2152
  349SOL     OW 1640   0.895   0.673   5.776  0.0404 -0.7359  0.7473
  349SOL    HW1 1641   0.825   0.721   5.731  1.2310  0.1651 -0.2111
  349SOL    HW2 1642   0.889   0.584   5.743 -0.5448 -0.6129  0.5241
  350SOL     OW 1643   5.133   6.078   3.997  0.0356  0.1117 -0.0800
  350SOL    HW1 1644   5.164   6.056   4.084  0.4077  0.2616 -0.1753
  350SOL    HW2 1645   5.143   5.997   3.947 -2.8431 -0.8286  0.7458
  351SOL     OW 1646   2.448   3.620   6.274 -0.3631 -0.2423  0.0771
  351SOL    HW1 1647   2.358   3.597   6.299 -1.7486  3.3904 -1.2454
  351SOL    HW2 1648   2.489   3.648   6.356 -0.8439 -0.5950  0.4434
  352SOL     OW 1649   3.642   0.590   1.349  0.2269 -0.2734 -0.4763
  352SOL    HW1 1650   3.712   0.619   1.407  0.3608 -1.5081  0.0071
  352SOL    HW2 1651   3.612   0.507   1.387 -1.4299  0.1803 -0.7321
  353SOL     OW 1652   6.094   6.220   0.981  1.3677  0.2275 -0.1044
  353SOL    HW1 1653   6.039   6.270   1.042  0.0360  1.8847 -2.6037
  353SOL    HW2 1654   6.174   6.272   0.974  1.1781  0.4739 -0.4332
  354SOL     OW 1655   1.677   0.745   2.791 -0.2379  0.0201  0.4791
  354SOL    HW1 1656   1.689   0.817   2.729 -1.2162  0.0798  0.3568
  354SOL    HW2 1657   1.766   0.718   2.813  0.1384 -0.7168 -1.7644
  355SOL     OW 1658   5.306   0.129   4.395 -0.0490 -0.3610  0.0374
  355SOL    HW1 1659   5.257   0.211   4.407  0.4551 -0.1819  0.9266
  355SOL    HW2 1660   5.248   0.062   4.430  0.0633 -0.2242  0.4947
  356SOL     OW 1661   5.603   7.002   1.253  0.4959  0.2298 -0.5058
  356SOL    HW1 1662   5.640   6.944   1.187  0.7874  0.3037 -0.4096
  356SOL    HW2 1663   5.556   6.944   1.312 -1.4876  0.3631 -1.9071
  357SOL     OW 1664   1.943   1.738   5.548 -0.0785 -0.5759 -0.0939
  357SOL    HW1 1665   1.919   1.671   5.611 -2.6849  0.8125  0.4814
  357SOL    HW2 1666   1.862   1.788   5.534  1.2240  1.0579 -2.1788
  358SOL     OW 1667   4.854   1.362   3.880  0.0833 -0.3944  0.9138
  358SOL    HW1 1668   4.856   1.457   3.871 -2.6053 -0.4177 -0.2323
  358SOL    HW2 1669   4.841   1.348   3.974 -0.5365  0.4176  0.9613
  359SOL     OW 1670   3.124   2.094   6.851  0.2787 -0.1558  0.3523
  359SOL    HW1 1671   3.120   2.063   6.942 -1.3153  0.8929  0.6776
  359SOL    HW2 1672   3.196   2.045   6.812  1.0643 -0.5527  2.2128
  360SOL     OW 1673   2.458   6.894   1.822 -0.1841 -0.0783  0.5781
  360SOL    HW1 1674   2.460   6.936   1.908 -1.4305  1.3043 -0.0343
  360SOL    HW2 1675   2.452   6.967   1.760 -2.3347 -1.1163 -0.5087
  361SOL     OW 1676   0.566   6.628   1.083 -0.0600 -0.6239 -0.0079
  361SOL    HW1 1677   0.536   6.538   1.093 -2.8459  0.2233 -0.3938
  361SOL    HW2 1678   0.583   6.658   1.172 -1.2951 -0.8192  0.2981
  362SOL     OW 1679   4.870   3.158   3.614  0.5186  0.0523  0.3058
  362SOL    HW1 1680   4.862   3.105   3.694  0.5568 -0.8420 -0.2701
  362SOL    HW2 1681   4.962   3.146   3.587  0.8542  1.3991  0.8415
  363SOL     OW 1682   0.428   1.732   0.908 -0.0356  0.4409  0.3651
  363SOL    HW1 1683   0.386   1.685   0.981 -0.2992  0.3417  0.1477
  363SOL    HW2 1684   0.474   1.804   0.950  1.6645 -0.9039  0.8879
  364SOL     OW 1685   6.450   1.130   0.901  0.2400 -0.3465  0.1498
  364SOL    HW1 1686   6.388   1.177   0.956  1.5173  0.1861  1.1525
  364SOL    HW2 1687   6.460   1.185   0.823  0.2291  0.0626  0.4398
  365SOL     OW 1688   2.446   4.201   7.194  0.4454  0.2678  0.2497
  365SOL    HW1 1689   2.443   4.278   7.137 -1.7036 -0.3387 -0.5048
  365SOL    HW2 1690   2.515   4.221   7.257  0.2442  2.6113 -0.2114
  366SOL     OW 1691   5.277   5.917   7.206 -0.0720  0.3455 -0.0221
  366SOL    HW1 1692   5.338   5.846   7.184 -0.9142 -0.7822  1.1929
  366SOL    HW2 1693   5.330   5.978   7.257  0.5258  0.3346 -0.6164
  367SOL     OW 1694   3.043   0.170   2.015 -0.0987  0.4111  0.6233
  367SOL    HW1 1695   3.094   0.218   1.950 -0.1137 -0.3432  0.0442
  367SOL    HW2 1696   3.108   0.120   2.064 -0.1467  0.5206  0.7994
  368SOL     OW 1697   6.074   1.392   3.640 -0.3146 -0.1429 -0.2529
  368SOL    HW1 1698   6.114   1.333   3.576 -0.0516 -0.2007 -0.0392
  368SOL    HW2 1699   6.019   1.335   3.693  0.0093 -0.2146  0.0109
  369SOL     OW 1700   1.506   4.416   2.513 -0.1313 -0.3987  0.0110
  369SOL    HW1 1701   1.591   4.376   2.533  0.9506  0.7156 -2.2181
  369SOL    HW2 1702   1.470   4.439   2.599  2.1112 -0.2819  0.9553
  370SOL     OW 1703   1.324   2.901   5.871  1.0037  0.1523 -0.1053
  370SOL    HW1 1704   1.292   2.942   5.791  0.3049 -0.1098  0.0388
  370SOL    HW2 1705   1.360   2.817   5.841  0.6067 -0.0121 -0.1298
  371SOL     OW 1706   3.908   6.572   6.888 -0.6272 -0.3058 -0.1017
  371SOL    HW1 1707   3.828   6.624   6.901  0.8097  1.3743  2.3561
  371SOL    HW2 1708   3.895   6.495   6.943 -0.3235  0.2554  0.7664
  372SOL     OW 1709   6.715   2.105   5.718 -0.1613 -0.5571 -0.1867
  372SOL    HW1 1710   6.727   2.163   5.793 -2.4079  0.7282 -0.7718
  372SOL    HW2 1711   6.702   2.019   5.757  0.3232 -0.1901  0.8173
  373SOL     OW 1712   0.436   6.074   2.486  0.4356  0.1276  0.3254
  373SOL    HW1 1713   0.504   6.073   2.554 -0.2631 -1.0006  1.0310
  373SOL    HW2 1714   0.479   6.114   2.410  2.0254 -0.9532  0.6160
  374SOL     OW 1715   4.922   3.535   3.940  0.1350  0.4028 -0.2627
  374SOL    HW1 1716   4.891   3.464   3.883  1.3352 -1.0812  0.8893
  374SOL    HW2 1717   5.012   3.550   3.912  0.0554  1.1307 -0.1441
  375SOL     OW 1718   2.618   2.128   6.154 -0.0380  0.0496  0.3939
  375SOL    HW1 1719   2.680   2.178   6.207  0.4371  0.9908 -1.0190
  375SOL    HW2 1720   2.587   2.190   6.088 -4.4243  0.3178  2.5565
  376SOL     OW 1721   5.831   0.846   2.486 -0.3210 -0.1054 -0.1292
  376SOL    HW1 1722   5.877   0.784   2.430  1.2202  0.1734  0.8066
  376SOL    HW2 1723   5.899   0.905   2.519 -1.4483  0.7948  0.6602
  377SOL     OW 1724   5.012   7.068   3.529 -0.3164  0.0191  0.2946
  377SOL    HW1 1725   4.979   7.031   3.610 -0.2960 -0.6048  0.0216
  377SOL    HW2 1726   4.939   7.120   3.495 -0.7958 -0.8318  0.0185
  378SOL     OW 1727   1.984   4.623   2.304  0.5105  0.1162  0.4377
  378SOL    HW1 1728   1.935   4.542   2.287  0.5676 -0.2388  1.9329
  378SOL    HW2 1729   1.977   4.636   2.399 -1.4277  3.0677 -0.0149
  379SOL     OW 1730   4.378   1.130   2.019 -0.0762 -0.2704 -0.7160
  379SOL    HW1 1731   4.379   1.079   1.937 -0.6174 -1.1542 -0.1811
  379SOL    HW2 1732   4.447   1.195   2.007  1.9343 -2.3224 -0.6638
  380SOL     OW 1733   0.871   4.100   6.589 -0.3904 -0.0819  0.0931
  380SOL    HW1 1734   0.815   4.135   6.519 -0.2945 -1.2627 -0.5977
  380SOL    HW2 1735   0.915   4.026   6.548  0.1379 -0.4053  1.2423
  381SOL     OW 1736   5.880   2.150   0.488  0.9456 -0.0518 -0.2570
  381SOL    HW1 1737   5.843   2.143   0.577  2.8979  0.1562  0.5799
  381SOL    HW2 1738   5.849   2.234   0.456  0.0556 -0.2159  0.1431
  382SOL     OW 1739   3.092   3.490   4.317 -0.1314  0.1026 -0.2530
  382SOL    HW1 1740   3.119   3.511   4.407 -1.0228 -0.1806  0.0877
  382SOL    HW2 1741   3.088   3.575   4.274  1.7237  0.1136 -0.4441
  383SOL     OW 1742   4.580   2.240   1.410  0.1442 -0.5481 -0.0103
  383SOL    HW1 1743   4.602   2.147   1.415 -2.3627 -1.2649 -1.7219
  383SOL    HW2 1744   4.495   2.247   1.452  0.3031  0.9794  0.0816
  384SOL     OW 1745   3.655   2.202   3.943  0.2337  0.0700  0.1393
  384SOL    HW1 1746   3.712   2.194   3.866  0.1966  0.6854  0.0412
  384SOL    HW2 1747   3.566   2.207   3.906  0.3580  2.5076  0.0736
  385SOL     OW 1748   5.654   3.516   3.151  0.1932 -0.0851 -0.2585
  385SOL    HW1 1749   5.704   3.505   3.232 -0.0700 -0.9630 -0.2162
  385SOL    HW2 1750   5.614   3.431   3.136  1.6998 -0.4758 -2.2973
  386SOL     OW 1751   2.206   1.742   0.645  0.3265  0.4304 -0.1289
  386SOL    HW1 1752   2.250   1.673   0.695  2.5392  2.1019  0.3194
  386SOL    HW2 1753   2.114   1.718   0.649  0.7556 -1.1028  2.2424
  387SOL     OW 1754   4.858   0.447   6.437  0.0296  0.1630  0.4406
  387SOL    HW1 1755   4.813   0.369   6.469 -1.0472  1.6353  2.6544
  387SOL    HW2 1756   4.890   0.491   6.516  1.9114  1.1975 -0.8638
  388SOL     OW 1757   5.159   5.049   1.939  0.3261  0.1230  0.1424
  388SOL    HW1 1758   5.161   5.127   1.994 -0.3075  1.0510 -1.1302
  388SOL    HW2 1759   5.249   5.040   1.906  0.4238  0.2385  0.3777
  389SOL     OW 1760   3.976   5.143   5.508  0.4516 -0.2485  0.0839
  389SOL    HW1 1761   4.036   5.081   5.469  0.5814  0.4059 -0.7663
  389SOL    HW2 1762   3.986   5.223   5.456 -0.2759  0.2382  0.6722
  390SOL     OW 1763   6.129   4.219   5.747  0.3895  0.3483 -0.4153
  390SOL    HW1 1764   6.110   4.224   5.840  0.8249 -0.1355 -0.2931
  390SOL    HW2 1765   6.202   4.279   5.734  0.2835  0.4684 -0.4581
  391SOL     OW 1766   4.140   2.272   0.196  0.0591  0.1289  0.0135
  391SOL    HW1 1767   4.117   2.364   0.188  0.5537  0.2998  0.5520
  391SOL    HW2 1768   4.121   2.250   0.287  0.3286 -0.1930 -0.0069
  392SOL     OW 1769   4.698   2.329   5.383  0.2977  0.5981 -0.2466
  392SOL    HW1 1770   4.756   2.253   5.377 -1.2231 -0.6959  0.9427
  392SOL    HW2 1771   4.633   2.304   5.449  0.0732  3.1423  0.5588
  393SOL     OW 1772   3.868   0.599   3.046 -0.2551  0.1961 -0.0593
  393SOL    HW1 1773   3.908   0.684   3.030 -1.9503  0.9127 -0.6045
  393SOL    HW2 1774   3.884   0.549   2.966 -0.0854  0.3418 -0.1137
  394SOL     OW 1775   3.497   2.916   6.317 -0.2512 -0.7703 -0.5353
  394SOL    HW1 1776   3.489   2.823   6.335  1.1685 -1.1228 -1.6896
  394SOL    HW2 1777   3.591   2.933   6.319 -0.5911  1.2178  2.5113
  395SOL     OW 1778   4.475   6.385   3.335 -0.3625 -0.2552  0.1935
  395SOL    HW1 1779   4.467   6.339   3.251 -2.8007 -0.3492  0.4596
  395SOL    HW2 1780   4.499   6.475   3.310 -0.7801 -0.3545 -0.5901
  396SOL     OW 1781   1.305   7.165   0.041  0.1627  0.0056 -0.0327
  396SOL    HW1 1782   1.373   7.199  -0.018  2.4875 -2.2035  1.2638
  396SOL    HW2 1783   1.322   7.208   0.125  0.0097 -0.6095  0.3154
  397SOL     OW 1784   3.375   4.340   0.742 -0.4957 -0.3367  0.5099
  397SOL    HW1 1785   3.290   4.380   0.723 -1.1275 -1.7674  0.2454
  397SOL    HW2 1786   3.381   4.338   0.837 -0.3277  0.6378  0.5254
  398SOL     OW 1787   7.012   1.041   4.775 -0.3476  0.3365 -0.1420
  398SOL    HW1 1788   7.037   1.006   4.860 -0.0004  2.6901  0.7492
  398SOL    HW2 1789   7.087   1.093   4.747 -0.0827 -1.1675 -2.3346
  399SOL     OW 1790   2.676   0.934   3.031  0.4097 -0.5172  0.4626
  399SOL    HW1 1791   2.662   0.847   3.068  0.6176 -0.5167  0.5456
  399SOL    HW2 1792   2.754   0.967   3.076 -1.1279  0.7361  2.3165
  400SOL     OW 1793   1.534   5.385   5.888  0.0526 -0.2663 -0.8650
  400SOL    HW1 1794   1.468   5.447   5.860 -0.1150  0.0377  0.1739
  400SOL    HW2 1795   1.616   5.417   5.851  0.2828  1.6393  1.2000
  401SOL     OW 1796   5.865   6.582   3.750  0.3310 -0.0496 -0.0719
  401SOL    HW1 1797   5.896   6.620   3.832 -0.1384 -1.0240  0.5612
  401SOL    HW2 1798   5.908   6.496   3.745  1.5807  0.6190 -1.6130
  402SOL     OW 1799   3.399   0.174   0.800 -0.2999  0.0894 -0.4097
  402SOL    HW1 1800   3.336   0.126   0.745 -0.1261  0.0332 -0.5610
  402SOL    HW2 1801   3.425   0.110   0.867 -0.4331  0.1247 -0.3247
  403SOL     OW 1802   2.120   5.291   6.564  0.3242  0.3709  0.0819
  403SOL    HW1 1803   2.183   5.283   6.493 -0.0705  0.5293 -0.2926
  403SOL    HW2 1804   2.151   5.366   6.615  0.1511  0.7711 -0.3996
  404SOL     OW 1805   4.080   1.450   5.591  0.3224  0.4241 -0.3569
  404SOL    HW1 1806   4.063   1.541   5.617  0.0711  0.2041  0.2852
  404SOL    HW2 1807   4.133   1.456   5.512 -0.7454  1.1350 -1.0261
  405SOL     OW 1808   2.956   5.925   4.393 -0.3472 -0.2689  0.2806
  405SOL    HW1 1809   2.864   5.903   4.377  0.2141 -1.5381 -1.3013
  405SOL    HW2 1810   3.004   5.873   4.329  1.2994  2.6399 -0.9196
  406SOL     OW 1811   4.013   1.493   4.807 -0.5695  0.5204  0.2020
  406SOL    HW1 1812   4.105   1.519   4.797 -0.3404 -0.5175 -0.4455
  406SOL    HW2 1813   3.963   1.570   4.780  0.1161  1.0825  0.5372
  407SOL     OW 1814   4.618   5.135   1.019 -0.6518 -0.0399  0.1042
  407SOL    HW1 1815   4.529   5.116   1.050 -1.0791 -0.5213 -1.3982
  407SOL    HW2 1816   4.655   5.192   1.087 -1.7125 -0.7332  1.2975
  408SOL     OW 1817   1.018   1.219   5.406 -0.4013  0.3647  0.2338
  408SOL    HW1 1818   1.106   1.208   5.369 -0.7525  3.3449 -1.6688
  408SOL    HW2 1819   1.032   1.262   5.490  0.0833 -1.8415  1.3338
  409SOL     OW 1820   5.335   4.677   5.186 -0.0622 -0.0680 -0.1459
  409SOL    HW1 1821   5.404   4.673   5.252 -0.6761  0.1287  0.5027
  409SOL    HW2 1822   5.321   4.771   5.171 -1.1560 -0.0948  0.7247
  410SOL     OW 1823   3.648   6.572   2.982  0.2209 -0.1567  0.1740
  410SOL    HW1 1824   3.671   6.655   3.024 -0.5088 -0.5221  1.3115
  410SOL    HW2 1825   3.570   6.542   3.029  1.4023 -2.2999  0.8373
  411SOL     OW 1826   6.967   0.297   6.660 -0.4581 -0.0828 -0.1729
  411SOL    HW1 1827   6.931   0.250   6.735  2.4391 -0.7005  0.8922
  411SOL    HW2 1828   6.987   0.384   6.695  0.1218 -0.1033 -0.4595
  412SOL     OW 1829   6.831   5.311   5.375 -0.0352 -0.0232  0.2594
  412SOL    HW1 1830   6.891   5.385   5.385 -0.9352  0.7494 -0.0610
  412SOL    HW2 1831   6.815   5.281   5.464 -0.3428  0.7045  0.4485
  413SOL     OW 1832   6.298   3.087   5.939 -0.5160  0.2706  0.2509
  413SOL    HW1 1833   6.297   3.123   5.850  0.3887 -1.2299 -0.3923
  413SOL    HW2 1834   6.300   2.992   5.926  0.0423  0.0473  1.8754
  414SOL     OW 1835   6.589   2.132   4.217 -0.7216  0.1570 -0.3978
  414SOL    HW1 1836   6.524   2.064   4.238 -0.9390  0.6304  0.5210
  414SOL    HW2 1837   6.542   2.192   4.159 -0.9561  0.2380 -0.1276
  415SOL     OW 1838   0.924   2.022   1.477 -0.3170 -0.2397 -0.1628
  415SOL    HW1 1839   0.847   1.990   1.429  0.3749 -0.0455 -1.4278
  415SOL    HW2 1840   0.995   2.018   1.413  0.7510 -0.5071  1.0292
  416SOL     OW 1841   2.260   5.355   0.212 -0.1110 -0.3459 -0.1964
  416SOL    HW1 1842   2.294   5.276   0.169  2.4513  0.4102  0.3365
  416SOL    HW2 1843   2.256   5.420   0.142  0.3645 -0.2080 -0.1001
  417SOL     OW 1844   6.891   3.239   3.598  0.0599  0.1248 -0.0425
  417SOL    HW1 1845   6.815   3.296   3.592  0.0705  0.1301 -0.1350
  417SOL    HW2 1846   6.959   3.294   3.639  0.7793  0.9256 -2.2199
  418SOL     OW 1847   4.723   3.441   6.980  0.2924 -0.0281 -0.0671
  418SOL    HW1 1848   4.665   3.440   6.905  0.1403 -0.1489  0.0522
  418SOL    HW2 1849   4.676   3.492   7.046  0.8915  1.0099 -0.4270
  419SOL     OW 1850   4.409   3.184   3.344 -0.1866 -0.1459 -0.1170
  419SOL    HW1 1851   4.374   3.264   3.383  1.1237  1.2960 -1.8663
  419SOL    HW2 1852   4.427   3.127   3.419  0.2758  1.7568  1.2558
  420SOL     OW 1853   7.056   7.252   2.371 -0.5441  0.0918  0.5641
  420SOL    HW1 1854   7.118   7.323   2.387  0.7993 -0.6143 -1.4221
  420SOL    HW2 1855   7.006   7.280   2.294 -1.5742 -0.1008  1.1436
  421SOL     OW 1856   3.939   3.972   3.831  0.0233 -0.1141 -0.4115
  421SOL    HW1 1857   3.935   4.014   3.745 -1.2975 -0.0298 -0.3194
  421SOL    HW2 1858   4.008   3.907   3.822 -1.1753 -1.2088 -2.0575
  422SOL     OW 1859   2.612   3.620   0.009 -0.3329  0.7348  0.4593
  422SOL    HW1 1860   2.654   3.614   0.094 -0.1718 -0.9265  0.2782
  422SOL    HW2 1861   2.589   3.713  -0.000  1.1742  1.2328  1.5573
  423SOL     OW 1862   5.878   0.125   3.739 -0.0409  0.5383 -0.1559
  423SOL    HW1 1863   5.832   0.064   3.797  1.6216  0.0953  0.7263
  423SOL    HW2 1864   5.970   0.115   3.762  0.3683  2.5016 -0.8650
  424SOL     OW 1865   3.540   1.489   4.722 -0.4217 -0.1845 -0.3690
  424SOL    HW1 1866   3.567   1.512   4.633  1.2781  1.3309  0.5062
  424SOL    HW2 1867   3.565   1.397   4.730 -1.6742 -0.6850 -1.8379
  425SOL     OW 1868   2.093   5.389   5.712 -0.2232 -0.1583 -0.4847
  425SOL    HW1 1869   2.114   5.326   5.642  0.9689 -1.5296  1.0771
  425SOL    HW2 1870   2.166   5.451   5.711  0.0171 -0.4320 -0.1847
  426SOL     OW 1871   5.039   2.227   7.195  0.0112  0.0171  0.8420
  426SOL    HW1 1872   5.042   2.322   7.208  0.6181  0.6399 -3.1613
  426SOL    HW2 1873   5.128   2.198   7.215  0.9523  0.9367 -1.8016
  427SOL     OW 1874   3.811   1.341   5.516  0.2212  0.4662  0.0137
  427SOL    HW1 1875   3.859   1.307   5.591 -1.9871  0.3459  1.4139
  427SOL    HW2 1876   3.865   1.413   5.484  0.9301  0.8894  2.0689
  428SOL     OW 1877   2.053   1.962   5.035  0.6929  0.1730 -0.0646
  428SOL    HW1 1878   2.073   2.055   5.042  1.0169  0.0479  0.6418
  428SOL    HW2 1879   2.136   1.920   5.014  1.0087 -0.2196  1.8495
  429SOL     OW 1880   4.173   4.295   6.581 -0.4587  0.0820  0.6487
  429SOL    HW1 1881   4.221   4.375   6.602 -1.5415  0.1020  3.2239
  429SOL    HW2 1882   4.087   4.306   6.623 -0.7510 -2.2782  0.7536
  430SOL     OW 1883   6.462   2.575   3.329  0.1214  0.3711  0.5454
  430SOL    HW1 1884   6.406   2.624   3.269  0.0731  0.5432  0.7303
  430SOL    HW2 1885   6.548   2.618   3.321  0.5713 -0.7024 -0.7101
  431SOL     OW 1886   3.561   2.622   4.784  0.0442 -0.0220 -0.0574
  431SOL    HW1 1887   3.595   2.612   4.695 -3.1831 -0.9692 -1.2740
  431SOL    HW2 1888   3.529   2.713   4.787  2.2531  0.7501  0.9550
  432SOL     OW 1889   7.186   0.743   4.198 -0.2035  0.9437  0.4789
  432SOL    HW1 1890   7.234   0.815   4.238  0.6326  0.3946  0.4887
  432SOL    HW2 1891   7.122   0.785   4.141 -0.2292  1.7001  1.0507
  433SOL     OW 1892   3.793   0.394   0.746 -0.1322 -0.1162 -0.1483
  433SOL    HW1 1893   3.886   0.417   0.741 -0.0838 -0.6937 -2.0757
  433SOL    HW2 1894   3.774   0.396   0.840  1.5700  0.9774  0.2065
  434SOL     OW 1895   5.594   2.201   2.179 -0.0175 -0.4294  0.1692
  434SOL    HW1 1896   5.688   2.181   2.174 -0.0499 -0.6952  0.5949
  434SOL    HW2 1897   5.552   2.121   2.146 -0.1012 -0.3897  0.1816
  435SOL     OW 1898   4.723   1.564   2.348  0.3027  0.1160 -0.5049
  435SOL    HW1 1899   4.642   1.598   2.310 -0.9458 -1.1534  0.9712
  435SOL    HW2 1900   4.759   1.637   2.398 -0.1525  0.5510 -0.8039
  436SOL     OW 1901   2.810   5.809   0.732  0.1190 -0.3160 -0.5584
  436SOL    HW1 1902   2.870   5.801   0.806  1.0850  1.2880 -1.1442
  436SOL    HW2 1903   2.813   5.723   0.690 -0.6119 -1.3195  1.3726
  437SOL     OW 1904   2.146   4.981   3.774 -0.5090 -0.2811 -0.1071
  437SOL    HW1 1905   2.191   4.896   3.770  1.1076  0.5831 -0.8641
  437SOL    HW2 1906   2.206   5.038   3.823 -1.0926  0.7121 -0.5241
  438SOL     OW 1907   0.219   4.941   0.071  0.2347 -0.1082  0.4713
  438SOL    HW1 1908   0.188   4.851   0.067  0.5881 -0.2170  0.1867
  438SOL    HW2 1909   0.298   4.937   0.126  0.1343  0.0607  0.6304
  439SOL     OW 1910   3.729   2.155   4.543 -0.1393 -0.0004  0.1151
  439SOL    HW1 1911   3.809   2.202   4.521 -0.3367 -0.1663 -0.9842
  439SOL    HW2 1912   3.670   2.172   4.469 -0.2369 -1.9066 -0.2586
  440SOL     OW 1913   4.872   6.474   3.000 -0.2667  0.1434  0.0090
  440SOL    HW1 1914   4.879   6.457   3.094 -0.0334 -3.0002 -0.5134
  440SOL    HW2 1915   4.777   6.478   2.983 -0.3440 -1.1001  0.1092
  441SOL     OW 1916   6.365   0.566   1.064  0.1983 -0.3521 -0.0273
  441SOL    HW1 1917   6.416   0.625   1.007  0.6397  1.5337  2.2257
  441SOL    HW2 1918   6.279   0.606   1.069 -0.0307 -0.8571  0.0969
  442SOL     OW 1919   3.471   4.804   4.565  0.0253 -0.9903 -0.1243
  442SOL    HW1 1920   3.552   4.763   4.595  1.6210  0.9960 -1.5817
  442SOL    HW2 1921   3.472   4.791   4.470 -0.5900  0.3628 -0.3287
  443SOL     OW 1922   6.164   1.351   5.658  0.6408 -0.4698 -0.2533
  443SOL    HW1 1923   6.137   1.442   5.667 -0.1002 -0.5420 -1.6117
  443SOL    HW2 1924   6.246   1.356   5.609  0.6153 -0.5334 -0.3024
  444SOL     OW 1925   5.457   2.988   2.780 -0.1939 -0.1411 -0.3603
  444SOL    HW1 1926   5.538   2.942   2.801 -0.2699 -1.0013 -1.8518
  444SOL    HW2 1927   5.463   3.006   2.686 -1.7758 -0.3624 -0.5224
  445SOL     OW 1928   6.908   0.178   1.235  0.1068 -0.1072  0.3068
  445SOL    HW1 1929   6.896   0.218   1.321  1.0124 -0.8416  0.7903
  445SOL    HW2 1930   6.993   0.211   1.205 -0.2566  0.2328 -0.3615
  446SOL     OW 1931   4.884   0.840   1.209  0.1485 -0.0510  0.0839
  446SOL    HW1 1932   4.870   0.773   1.143  2.2336  0.2340 -0.6994
  446SOL    HW2 1933   4.817   0.824   1.275  0.2775 -2.5725 -0.3614
  447SOL     OW 1934   3.839   0.681   1.531  0.3379 -0.1469 -0.0138
  447SOL    HW1 1935   3.930   0.652   1.535  0.2953 -0.3789 -0.7123
  447SOL    HW2 1936   3.829   0.739   1.608  0.9049 -0.5775  0.3878
  448SOL     OW 1937   1.279   6.387   1.296  0.1644 -0.9198 -0.1792
  448SOL    HW1 1938   1.193   6.357   1.266 -0.2198 -1.5281  1.4895
  448SOL    HW2 1939   1.341   6.329   1.252 -0.3331 -1.2475 -0.4614
  449SOL     OW 1940   2.670   2.642   6.843  0.0168  0.3160  0.0485
  449SOL    HW1 1941   2.686   2.568   6.785 -1.1003 -0.3413  0.5666
  449SOL    HW2 1942   2.647   2.603   6.927 -0.8245  1.2384  0.2630
  450SOL     OW 1943   5.934   4.236   6.265  0.2116 -0.2521  0.2266
  450SOL    HW1 1944   5.852   4.189   6.246  0.2651 -0.4900  0.5992
  450SOL    HW2 1945   6.002   4.170   6.256  0.1709 -0.5653  2.0417
  451SOL     OW 1946   5.944   6.829   2.284 -0.1610  0.2893  0.9566
  451SOL    HW1 1947   6.038   6.820   2.298 -0.1397 -0.1970  0.5286
  451SOL    HW2 1948   5.936   6.906   2.228 -0.0317  0.4413  1.1467
  452SOL     OW 1949   3.828   0.560   6.388 -0.2812 -0.0420 -0.3791
  452SOL    HW1 1950   3.775   0.571   6.467 -1.0771 -1.5037 -0.6948
  452SOL    HW2 1951   3.766   0.530   6.321  1.1504 -2.9819 -0.4390
  453SOL     OW 1952   4.353   3.468   0.317 -0.1523  0.6179  0.0280
  453SOL    HW1 1953   4.319   3.397   0.371  0.8978  1.6560  2.1348
  453SOL    HW2 1954   4.443   3.441   0.297  0.0386  1.0250  0.3081
  454SOL     OW 1955   4.785   3.727   1.230  0.0221  0.4663 -0.2362
  454SOL    HW1 1956   4.737   3.701   1.151 -2.6895 -2.1961  2.1692
  454SOL    HW2 1957   4.849   3.657   1.243 -0.9119 -0.1859  0.9920
  455SOL     OW 1958   2.947   4.950   5.021  0.2344  0.1875  0.5358
  455SOL    HW1 1959   2.929   4.871   5.070 -1.0463  0.3164  0.2978
  455SOL    HW2 1960   3.007   4.923   4.952 -0.6395 -0.6927  0.1179
  456SOL     OW 1961   2.551   0.594   5.927 -0.5809  0.1020  0.0301
  456SOL    HW1 1962   2.642   0.564   5.933 -1.2846 -2.2190 -0.1269
  456SOL    HW2 1963   2.499   0.516   5.950 -2.5415  1.0748 -0.9519
  457SOL     OW 1964   5.450   6.803   2.577  0.3709  0.1395 -0.3688
  457SOL    HW1 1965   5.505   6.741   2.624  1.0344  1.7471  1.0516
  457SOL    HW2 1966   5.392   6.749   2.523  0.1821 -1.7199  1.6488
  458SOL     OW 1967   5.028   2.972   0.895 -0.0412 -0.3529  0.1620
  458SOL    HW1 1968   5.119   2.993   0.913  0.6571  2.0121 -5.2321
  458SOL    HW2 1969   4.979   3.049   0.926  0.4701  0.8835 -1.9944
  459SOL     OW 1970   3.928   3.312   1.137 -0.1443 -0.7313 -0.1331
  459SOL    HW1 1971   3.994   3.259   1.181  0.8744  0.0140 -0.7600
  459SOL    HW2 1972   3.884   3.252   1.077 -0.3253 -1.3251  0.5979
  460SOL     OW 1973   4.329   4.873   4.843  0.1383  0.5932  0.2529
  460SOL    HW1 1974   4.414   4.909   4.871  0.7670 -0.5445 -0.1674
  460SOL    HW2 1975   4.312   4.916   4.759  0.4790  0.5455  0.1562
  461SOL     OW 1976   4.178   3.840   4.533 -0.0528 -0.4059 -0.2017
  461SOL    HW1 1977   4.230   3.769   4.496 -0.7782  0.4311 -2.9898
  461SOL    HW2 1978   4.094   3.799   4.556  0.2218 -0.8395  0.0266
  462SOL     OW 1979   6.567   1.816   5.427  0.3433 -0.2557  0.5948
  462SOL    HW1 1980   6.551   1.882   5.494 -1.9439  0.7465 -0.8718
  462SOL    HW2 1981   6.483   1.806   5.382  1.4550 -1.9037 -1.2231
  463SOL     OW 1982   2.723   1.248   0.478 -0.0444 -0.6315  0.4936
  463SOL    HW1 1983   2.742   1.154   0.485 -1.9951 -1.1032 -0.4056
  463SOL    HW2 1984   2.795   1.282   0.424  0.2631 -1.7411  0.1755
  464SOL     OW 1985   0.567   4.405   6.158 -0.3036  0.0092 -0.0538
  464SOL    HW1 1986   0.595   4.316   6.176  0.9384 -0.1305 -2.4826
  464SOL    HW2 1987   0.635   4.441   6.102 -1.5239  1.9992 -0.3145
  465SOL     OW 1988   3.342   0.920   0.616  0.8339 -0.0112  0.2567
  465SOL    HW1 1989   3.392   0.842   0.591  1.4569  0.0621  1.2738
  465SOL    HW2 1990   3.265   0.886   0.661  1.5596 -0.0133  1.5085
  466SOL     OW 1991   0.345   4.083   0.356  0.7564 -0.8386 -0.2811
  466SOL    HW1 1992   0.337   3.991   0.380  0.5635 -0.3985  1.3828
  466SOL    HW2 1993   0.414   4.084   0.289  0.1340 -2.2898 -0.9731
  467SOL     OW 1994   3.266   3.508   4.988 -1.1294 -0.0610 -0.5376
  467SOL    HW1 1995   3.269   3.543   5.077 -0.8556 -2.2486  0.3477
  467SOL    HW2 1996   3.233   3.580   4.935  2.3646  2.5619  0.6598
  468SOL     OW 1997   1.706   5.535   3.706 -0.1556  0.0335  0.0585
  468SOL    HW1 1998   1.665   5.592   3.771  0.3812 -0.1211  0.5398
  468SOL    HW2 1999   1.635   5.478   3.677 -0.7192  0.9863 -0.4825
  469SOL     OW 2000   1.070   1.339   4.629 -0.7516 -0.0452 -0.2171
  469SOL    HW1 2001   1.011   1.395   4.580 -0.2229  0.2200 -0.5585
  469SOL    HW2 2002   1.158   1.363   4.597 -0.3172  0.8653  1.5898
  470SOL     OW 2003   7.055   5.653   4.106  0.5306  0.7548  0.4453
  470SOL    HW1 2004   7.116   5.579   4.104  1.2334  1.3648 -0.7304
  470SOL    HW2 2005   6.968   5.612   4.106  0.9128 -0.0625 -0.8322
  471SOL     OW 2006   0.921   1.143   0.158  0.1107 -0.5413 -0.2108
  471SOL    HW1 2007   0.857   1.075   0.178  0.8431 -0.8655  1.0784
  471SOL    HW2 2008   0.997   1.095   0.126 -0.7591 -0.0840 -3.1840
  472SOL     OW 2009   4.782   3.011   3.409 -0.2052 -0.0199  0.1776
  472SOL    HW1 2010   4.808   3.097   3.442 -0.2257  0.2666 -0.5558
  472SOL    HW2 2011   4.843   2.992   3.338  0.1537 -0.8660  0.6922
  473SOL     OW 2012   3.192   2.176   3.745 -0.7272 -0.4331 -0.0343
  473SOL    HW1 2013   3.135   2.121   3.691 -0.7291 -1.3196  0.8628
  473SOL    HW2 2014   3.202   2.128   3.827  0.7541  0.0513  0.0837
  474SOL     OW 2015   4.114   3.000   2.092  0.1925  0.6351  0.5656
  474SOL    HW1 2016   4.161   3.050   2.158 -0.0004  2.8232 -0.9005
  474SOL    HW2 2017   4.156   3.025   2.009 -1.7793  0.5772 -0.4750
  475SOL     OW 2018   0.719   6.938   2.727 -0.0463 -0.1505 -0.0145
  475SOL    HW1 2019   0.687   6.878   2.660  0.3903  0.7417 -1.0292
  475SOL    HW2 2020   0.805   6.966   2.696  0.5919 -0.4983  1.4068
  476SOL     OW 2021   2.942   5.268   3.045  0.2936 -0.2059 -0.1474
  476SOL    HW1 2022   2.884   5.339   3.015 -1.6187 -1.3985  0.6286
  476SOL    HW2 2023   2.883   5.195   3.063  1.9989 -1.2849  1.2188
  477SOL     OW 2024   2.557   4.983   5.309 -0.0062 -0.5216  0.3734
  477SOL    HW1 2025   2.589   5.071   5.290 -3.3074  0.7059  0.1830
  477SOL    HW2 2026   2.564   4.936   5.226  1.0244 -0.2070  0.2802
  478SOL     OW 2027   5.643   0.309   7.073  0.0367  0.3408  0.3043
  478SOL    HW1 2028   5.621   0.387   7.125 -0.3812 -0.0334  0.6930
  478SOL    HW2 2029   5.635   0.237   7.135  0.0860 -0.0497 -0.1495
  479SOL     OW 2030   1.451   2.638   1.131 -0.7131 -0.5309  0.0023
  479SOL    HW1 2031   1.462   2.629   1.226 -0.2201  0.5714  0.0682
  479SOL    HW2 2032   1.372   2.691   1.121 -1.0547 -1.0893 -0.2112
  480SOL     OW 2033   0.377   1.779   3.533  0.3968 -0.4218 -0.0530
  480SOL    HW1 2034   0.472   1.775   3.545  0.4105  0.9977  0.3924
  480SOL    HW2 2035   0.348   1.689   3.548  1.7259 -1.0059 -0.7925
  481SOL     OW 2036   7.109   1.396   6.637  0.1577 -0.1392 -0.1911
  481SOL    HW1 2037   7.101   1.425   6.546  0.0258  0.9987  0.1737
  481SOL    HW2 2038   7.062   1.312   6.640 -0.3772  0.1282 -1.0263
  482SOL     OW 2039   3.590   3.675   0.529 -0.6166  0.2726  0.6286
  482SOL    HW1 2040   3.575   3.581   0.531  3.0532 -0.3539  2.0533
  482SOL    HW2 2041   3.619   3.693   0.440  2.2179 -0.6041  1.3330
  483SOL     OW 2042   2.448   6.529   0.984 -0.6402 -0.1470  0.2770
  483SOL    HW1 2043   2.379   6.584   0.949 -0.4131  0.6160  1.0122
  483SOL    HW2 2044   2.458   6.557   1.075  0.8122 -0.0561  0.1101
  484SOL     OW 2045   1.406   5.679   3.688 -0.4429 -0.0276 -0.7379
  484SOL    HW1 2046   1.383   5.743   3.756 -1.9409  0.7887 -1.9891
  484SOL    HW2 2047   1.432   5.732   3.613 -0.3852 -0.9087 -1.3446
  485SOL     OW 2048   6.955   0.375   0.816 -0.1846 -0.1883  0.2135
  485SOL    HW1 2049   6.952   0.458   0.769  0.9078 -0.3787 -0.2185
  485SOL    HW2 2050   6.864   0.348   0.823 -0.5321  0.9444  0.1730
  486SOL     OW 2051   6.615   0.835   5.900  0.0697 -0.0280  0.2072
  486SOL    HW1 2052   6.703   0.811   5.870  0.4140 -1.2699  2.2024
  486SOL    HW2 2053   6.565   0.753   5.899 -0.6142  0.3765  0.6860
  487SOL     OW 2054   4.337   5.061   1.480 -0.4014  1.0476 -0.5187
  487SOL    HW1 2055   4.280   5.017   1.417  0.3251  0.3062 -0.6729
  487SOL    HW2 2056   4.364   4.992   1.540 -1.7947  1.9171  1.1640
  488SOL     OW 2057   6.383   7.092   3.817 -0.0338  0.4034  0.0270
  488SOL    HW1 2058   6.408   7.148   3.890 -2.4687  1.1878  0.3019
  488SOL    HW2 2059   6.440   7.120   3.745  2.3836 -0.3789  1.5653
  489SOL     OW 2060   4.342   3.142   2.222 -0.0858  0.7452  0.0039
  489SOL    HW1 2061   4.309   3.229   2.198 -0.0197  0.6029 -0.6316
  489SOL    HW2 2062   4.414   3.127   2.161  0.1139  0.3793  0.3274
  490SOL     OW 2063   5.148   5.442   3.810 -0.4335  0.0246 -0.0166
  490SOL    HW1 2064   5.123   5.499   3.883 -2.5708 -0.0832 -0.6280
  490SOL    HW2 2065   5.121   5.490   3.732  1.1869 -0.1841 -0.7199
  491SOL     OW 2066   1.707   0.358   1.962  0.1368  0.1428  0.2607
  491SOL    HW1 2067   1.616   0.386   1.952 -0.9398 -2.6164  1.8175
  491SOL    HW2 2068   1.739   0.345   1.873 -1.2773  0.2293 -0.2643
  492SOL     OW 2069   6.149   4.102   3.412 -0.6544  1.0643  0.1634
  492SOL    HW1 2070   6.223   4.046   3.388 -1.3880  0.7622 -1.5247
  492SOL    HW2 2071   6.183   4.160   3.479  1.6574  2.1156 -1.8355
  493SOL     OW 2072   4.324   3.338   2.464  0.1218 -0.0474 -0.2490
  493SOL    HW1 2073   4.338   3.282   2.387  0.5162 -1.1510  0.6178
  493SOL    HW2 2074   4.412   3.353   2.499 -0.2257 -1.0224  1.0289
  494SOL     OW 2075   4.210   1.344   5.823  0.1868  0.6350  0.6047
  494SOL    HW1 2076   4.282   1.406   5.817  1.4165 -0.9069 -1.2273
  494SOL    HW2 2077   4.143   1.379   5.764  0.5764  0.6153  0.1472
  495SOL     OW 2078   4.239   2.934   6.564  0.4370 -0.2677 -0.3903
  495SOL    HW1 2079   4.329   2.910   6.542  0.1089 -0.9163 -1.0377
  495SOL    HW2 2080   4.202   2.855   6.604 -0.1206 -0.2954 -0.9555
  496SOL     OW 2081   3.057   2.850   2.591 -0.2709 -0.2975 -0.2979
  496SOL    HW1 2082   3.130   2.800   2.554  0.6159  0.5413  0.2805
  496SOL    HW2 2083   3.033   2.802   2.670  0.1127 -0.1976 -0.1196
  497SOL     OW 2084   1.491   5.456   5.459  0.0486 -0.0296  0.0264
  497SOL    HW1 2085   1.407   5.434   5.500 -0.7668 -0.3887 -1.7671
  497SOL    HW2 2086   1.549   5.479   5.532 -1.2711 -0.9132  1.3679
  498SOL     OW 2087   4.439   1.498   0.987 -0.4680  0.2573  0.1796
  498SOL    HW1 2088   4.406   1.535   0.905  1.0908  1.2837  0.0018
  498SOL    HW2 2089   4.488   1.420   0.961 -0.8146  0.0208  0.2314
  499SOL     OW 2090   0.767   0.892   7.145  0.2279 -0.3354 -0.2464
  499SOL    HW1 2091   0.751   0.854   7.058 -0.2729 -0.6954  0.0018
  499SOL    HW2 2092   0.817   0.825   7.192 -2.1535 -1.4356  0.7807
  500SOL     OW 2093   6.957   5.215   5.688  0.1103  0.2314 -0.1085
  500SOL    HW1 2094   7.009   5.296   5.691  0.5046 -0.0535  1.0348
  500SOL    HW2 2095   7.022   5.145   5.689 -0.2846 -0.1222  0.9118
  501SOL     OW 2096   5.972   2.607   0.803 -0.3472 -0.3421 -0.1871
  501SOL    HW1 2097   5.910   2.578   0.737 -0.3170 -0.7885 -0.0223
  501SOL    HW2 2098   5.944   2.696   0.826  0.0453  0.0716 -1.2829
  502SOL     OW 2099   1.943   1.488   6.231  0.2637 -0.0160 -0.1233
  502SOL    HW1 2100   2.017   1.517   6.284  0.6239 -2.0560  0.5298
  502SOL    HW2 2101   1.980   1.423   6.172 -0.6980  0.1502 -0.9152
  503SOL     OW 2102   2.394   0.391   2.104  0.0820  0.6055 -0.2871
  503SOL    HW1 2103   2.428   0.478   2.081  0.4976  0.2759 -0.9219
  503SOL    HW2 2104   2.316   0.409   2.156  0.6656  1.3718  0.3564
  504SOL     OW 2105   4.097   0.419   6.441 -0.5137  0.3377 -0.2373
  504SOL    HW1 2106   4.026   0.459   6.390 -1.2900 -1.1297 -0.3207
  504SOL    HW2 2107   4.056   0.396   6.525  1.1701  4.3782  1.8338
  505SOL     OW 2108   0.961   2.380   0.524 -0.0182 -0.0827 -0.2559
  505SOL    HW1 2109   0.931   2.471   0.526  0.3122  0.0577 -1.2181
  505SOL    HW2 2110   1.052   2.385   0.494  0.3478 -0.6553  0.7026
  506SOL     OW 2111   1.549   3.752   1.181  0.3783 -0.8999  0.1659
  506SOL    HW1 2112   1.579   3.834   1.142 -0.1097 -0.4771  0.6706
  506SOL    HW2 2113   1.473   3.727   1.129  1.4790 -1.8814 -1.0052
  507SOL     OW 2114   4.402   1.543   5.799 -0.4868  0.0692  0.4524
  507SOL    HW1 2115   4.421   1.610   5.734 -0.6097  0.6036  0.9675
  507SOL    HW2 2116   4.426   1.582   5.883 -0.4317 -0.5775  0.7425
  508SOL     OW 2117   0.022   3.223   6.840 -0.6200 -0.1514  0.1265
  508SOL    HW1 2118  -0.041   3.198   6.908 -2.0842  2.3081 -0.2867
  508SOL    HW2 2119   0.056   3.307   6.869 -0.1210  0.1824 -1.4319
  509SOL     OW 2120   4.403   6.927   2.950 -0.1415 -0.2637  0.5116
  509SOL    HW1 2121   4.369   6.848   2.910 -0.3310  0.1539 -0.1641
  509SOL    HW2 2122   4.372   6.924   3.040  0.0620 -1.0760  0.5548
  510SOL     OW 2123   3.695   3.520   2.292 -0.0739  0.1597 -0.1154
  510SOL    HW1 2124   3.663   3.442   2.338  1.4328 -1.3784 -1.6118
  510SOL    HW2 2125   3.628   3.539   2.227 -0.3286 -0.0143  0.0969
  511SOL     OW 2126   3.193   1.213   6.175 -0.1376 -0.5162 -0.2031
  511SOL    HW1 2127   3.160   1.271   6.106 -0.7304 -0.5421  0.0544
  511SOL    HW2 2128   3.218   1.273   6.246  0.4082 -0.4942 -0.4120
  512SOL     OW 2129   0.471   1.412   2.647 -0.4870  0.6151 -0.7434
  512SOL    HW1 2130   0.487   1.456   2.563 -0.4454  0.9429 -0.5634
  512SOL    HW2 2131   0.557   1.408   2.689 -0.5814  0.8387 -0.5277
  513SOL     OW 2132   5.682   1.523   6.392 -0.1787 -0.2830  0.2865
  513SOL    HW1 2133   5.740   1.477   6.331 -3.2447 -2.7363 -0.9307
  513SOL    HW2 2134   5.705   1.489   6.478  0.5961 -0.7882 -0.1154
  514SOL     OW 2135   3.667   1.429   6.413 -0.3054 -0.0184 -0.0570
  514SOL    HW1 2136   3.666   1.505   6.354  0.0954 -1.8086 -2.4338
  514SOL    HW2 2137   3.760   1.412   6.428 -0.3631 -0.6977 -0.4385
  515SOL     OW 2138   6.140   0.687   5.502 -0.1849  0.0196  0.5926
  515SOL    HW1 2139   6.149   0.656   5.412  1.2437 -1.5070  1.2398
  515SOL    HW2 2140   6.217   0.742   5.517 -0.8929  1.0268  0.5985
  516SOL     OW 2141   6.655   7.025   0.475 -0.5445  0.5671 -0.5466
  516SOL    HW1 2142   6.700   6.955   0.428 -0.0973  1.3640 -1.3214
  516SOL    HW2 2143   6.722   7.062   0.533 -1.3536 -1.0515  1.4520
  517SOL     OW 2144   5.535   6.395   6.111  0.2761  0.2294 -0.3985
  517SOL    HW1 2145   5.528   6.405   6.016  0.7426  1.7258 -0.2962
  517SOL    HW2 2146   5.621   6.433   6.132 -0.1513  0.5978  0.7085
  518SOL     OW 2147   5.289   1.509   3.017 -0.4438  0.7414  0.2047
  518SOL    HW1 2148   5.255   1.596   2.999  0.3472  0.5493 -2.3851
  518SOL    HW2 2149   5.368   1.524   3.069 -0.4186  1.5610 -0.0692
  519SOL     OW 2150   1.997   3.258   6.030  0.1178  0.2293  0.6966
  519SOL    HW1 2151   1.977   3.253   6.124  0.3792 -0.6959  0.7085
  519SOL    HW2 2152   1.972   3.173   5.995  2.6614 -0.4678  0.4638
  520SOL     OW 2153   4.990   3.772   5.558 -0.7792 -0.3473  0.3122
  520SOL    HW1 2154   4.972   3.679   5.566  0.0661 -0.6176 -0.8707
  520SOL    HW2 2155   5.059   3.789   5.623 -0.1878 -0.7631 -0.2024
  521SOL     OW 2156   6.361   4.301   2.226 -0.1371  0.2393  0.3481
  521SOL    HW1 2157   6.360   4.396   2.225 -1.3026  0.2384  1.0869
  521SOL    HW2 2158   6.315   4.276   2.146 -0.8642  0.2985  0.7461
  522SOL     OW 2159   1.677   4.934   3.591 -0.0550 -0.1896 -0.8208
  522SOL    HW1 2160   1.585   4.934   3.619 -0.0472  0.8787 -0.7588
  522SOL    HW2 2161   1.680   4.997   3.519  0.6425 -0.1915 -0.7931
  523SOL     OW 2162   0.387   0.376   5.470  0.6020  0.3071  0.0166
  523SOL    HW1 2163   0.299   0.403   5.497  0.4336  0.7494 -0.9753
  523SOL    HW2 2164   0.444   0.448   5.497  0.4778  0.6097 -0.5388
  524SOL     OW 2165   0.804   2.447   5.449 -0.0566  0.3152 -0.2241
  524SOL    HW1 2166   0.747   2.474   5.377  0.8085  0.5407 -0.8290
  524SOL    HW2 2167   0.882   2.413   5.407 -0.8129 -2.4840  0.5280
  525SOL     OW 2168   3.859   3.563   3.634 -0.2498  0.2043  0.2284
  525SOL    HW1 2169   3.796   3.617   3.682 -0.5752 -0.2645  0.3336
  525SOL    HW2 2170   3.842   3.584   3.542 -0.6804 -0.0527  0.2484
  526SOL     OW 2171   5.100   1.447   1.692  0.2898  0.1519 -0.0499
  526SOL    HW1 2172   5.189   1.420   1.671  0.8664  1.7987  0.1830
  526SOL    HW2 2173   5.110   1.535   1.727 -1.2828 -0.2253  1.3900
  527SOL     OW 2174   3.862   0.185   4.233  0.2032 -0.1433 -0.3213
  527SOL    HW1 2175   3.782   0.133   4.236  0.7884 -1.0174  0.1081
  527SOL    HW2 2176   3.924   0.138   4.289  0.9181  0.6993 -0.3909
  528SOL     OW 2177   1.002   0.448   5.657  0.2243 -0.5960 -0.1363
  528SOL    HW1 2178   1.084   0.496   5.650  0.4083 -1.0426 -1.1348
  528SOL    HW2 2179   1.022   0.360   5.625 -0.1769 -1.2756  1.4295
  529SOL     OW 2180   3.568   1.923   1.684 -0.1360 -0.2514  0.0448
  529SOL    HW1 2181   3.602   1.862   1.749 -1.7208 -1.0370  0.1599
  529SOL    HW2 2182   3.534   1.868   1.614 -0.5442  0.5204 -0.3798
  530SOL     OW 2183   5.039   6.468   3.524  0.0217 -0.1164 -0.1189
  530SOL    HW1 2184   5.086   6.551   3.537  2.5250 -1.6990  1.2227
  530SOL    HW2 2185   4.979   6.463   3.599  0.6910 -0.0695  0.4224
  531SOL     OW 2186   1.633   0.792   2.390  0.4913 -0.2928  0.2809
  531SOL    HW1 2187   1.636   0.887   2.381 -1.2843  0.0623  2.9698
  531SOL    HW2 2188   1.638   0.759   2.300  0.0678  2.3714 -0.7586
  532SOL     OW 2189   2.881   6.411   3.272 -0.0721  0.0895 -0.0540
  532SOL    HW1 2190   2.953   6.350   3.290 -0.0823  0.9752  3.2134
  532SOL    HW2 2191   2.925   6.495   3.255 -0.2758  0.6265  1.9264
  533SOL     OW 2192   4.841   1.748   3.164 -0.4161 -0.2298  0.1300
  533SOL    HW1 2193   4.779   1.798   3.112  0.6783  0.9102 -0.1102
  533SOL    HW2 2194   4.798   1.664   3.178 -1.0920 -0.2597 -1.9137
  534SOL     OW 2195   1.519   6.112   2.638 -0.2259 -0.5456  0.2119
  534SOL    HW1 2196   1.509   6.206   2.656 -0.2253 -0.4566 -0.2365
  534SOL    HW2 2197   1.613   6.100   2.627 -0.4189 -0.1274 -2.1809
  535SOL     OW 2198   3.142   7.135   3.577  0.4643  0.1469 -0.8962
  535SOL    HW1 2199   3.183   7.051   3.557  0.3386 -0.0233 -0.4583
  535SOL    HW2 2200   3.049   7.114   3.589  0.6848  0.0490  0.8876
  536SOL     OW 2201   5.353   1.859   3.573 -0.4422  0.0560 -0.5221
  536SOL    HW1 2202   5.391   1.772   3.581 -1.1255 -0.2270 -0.3247
  536SOL    HW2 2203   5.344   1.890   3.663  0.8179  0.7745 -0.6457
  537SOL     OW 2204   2.846   5.998   2.137  0.2487  0.0956  0.5924
  537SOL    HW1 2205   2.788   5.965   2.205 -0.9717  0.7351 -0.1342
  537SOL    HW2 2206   2.818   5.953   2.057  1.1693 -0.0738  0.3539
  538SOL     OW 2207   2.531   6.668   2.006  0.3169  0.2138  0.4083
  538SOL    HW1 2208   2.614   6.636   2.043  0.7300  1.3813  0.5015
  538SOL    HW2 2209   2.557   6.708   1.923 -0.4601 -1.4174 -0.6442
  539SOL     OW 2210   3.970   4.170   2.480  0.1551 -0.1499  0.1448
  539SOL    HW1 2211   3.891   4.197   2.528 -0.3981  0.2193 -0.9635
  539SOL    HW2 2212   4.006   4.251   2.445  0.2431 -0.4822 -0.5414
  540SOL     OW 2213   4.182   6.987   5.644  0.0507  0.1608 -0.1205
  540SOL    HW1 2214   4.254   7.022   5.695 -0.5997  1.6379 -0.2024
  540SOL    HW2 2215   4.165   7.053   5.577 -2.2102  0.4568  0.6865
  541SOL     OW 2216   0.680   4.827   6.460  0.2468 -0.0590 -0.0102
  541SOL    HW1 2217   0.668   4.804   6.368  0.8345 -1.0174  0.1381
  541SOL    HW2 2218   0.615   4.774   6.507 -1.6773  2.2048 -0.0623
  542SOL     OW 2219   4.041   5.292   0.326 -0.2061  0.4455 -0.1332
  542SOL    HW1 2220   4.029   5.200   0.351 -2.1462  0.7090  0.0237
  542SOL    HW2 2221   4.041   5.292   0.231  0.6018  0.1921 -0.1337
  543SOL     OW 2222   1.954   0.584   1.660  0.0083 -0.1403  0.2092
  543SOL    HW1 2223   1.870   0.615   1.694  0.5491  2.7687 -0.9293
  543SOL    HW2 2224   1.932   0.537   1.580 -0.6858 -1.0587  0.9342
  544SOL     OW 2225   3.991   2.068   1.506  0.0542 -0.2949  0.2089
  544SOL    HW1 2226   3.903   2.091   1.537  0.1185 -0.0832  0.2298
  544SOL    HW2 2227   4.043   2.058   1.586  0.2224  0.2603  0.1678
  545SOL     OW 2228   1.442   6.600   1.588 -0.3101  0.5095  0.1153
  545SOL    HW1 2229   1.348   6.587   1.601 -0.4096  1.1360  0.0436
  545SOL    HW2 2230   1.467   6.665   1.654  0.5352 -1.3310  1.6674
  546SOL     OW 2231   4.746   5.894   0.129 -0.2031  0.2653  0.5423
  546SOL    HW1 2232   4.815   5.835   0.098 -1.5059 -1.2270  0.4310
  546SOL    HW2 2233   4.703   5.925   0.049  0.3402  1.2021  0.6106
  547SOL     OW 2234   6.865   6.303   6.035  0.1435 -0.2521 -0.0165
  547SOL    HW1 2235   6.946   6.353   6.049  0.2942 -0.5902  0.3297
  547SOL    HW2 2236   6.817   6.352   5.968  1.9425 -1.6129 -2.3534
  548SOL     OW 2237   6.855   2.715   6.440  0.3858  0.4489  0.1319
  548SOL    HW1 2238   6.945   2.736   6.413  0.2907  0.5604 -0.1030
  548SOL    HW2 2239   6.829   2.790   6.494 -0.1154  1.1626 -1.0821
  549SOL     OW 2240   3.897   0.729   6.986  0.1868 -0.6051 -0.1036
  549SOL    HW1 2241   3.929   0.696   7.070  1.7053  1.9845  0.3644
  549SOL    HW2 2242   3.826   0.789   7.009 -0.5669 -1.2243 -0.7828
  550SOL     OW 2243   2.966   4.712   2.131 -0.2926 -0.1439  0.0167
  550SOL    HW1 2244   2.934   4.757   2.053  1.1659  1.9847  0.6138
  550SOL    HW2 2245   3.023   4.643   2.098 -0.7427 -0.1156 -0.8314
  551SOL     OW 2246   1.392   4.590   4.282 -0.0671  0.1828 -0.2718
  551SOL    HW1 2247   1.450   4.657   4.319 -3.4754  3.6216 -0.7605
  551SOL    HW2 2248   1.395   4.518   4.345  1.8745  1.8027  1.5565
  552SOL     OW 2249   5.862   7.070   0.436  0.3151 -0.1610 -0.5527
  552SOL    HW1 2250   5.901   7.079   0.349  1.6500  1.1117  0.1611
  552SOL    HW2 2251   5.921   7.117   0.494 -0.4204 -1.2367  1.0985
  553SOL     OW 2252   0.807   2.379   0.250 -0.4618 -0.4091 -0.0504
  553SOL    HW1 2253   0.885   2.349   0.203 -0.2263 -0.1765  0.1937
  553SOL    HW2 2254   0.807   2.329   0.332 -0.5245 -0.3452 -0.0111
  554SOL     OW 2255   4.080   0.365   3.755  0.2205  0.6901  0.3090
  554SOL    HW1 2256   4.112   0.453   3.773 -0.9767  0.9927  0.9645
  554SOL    HW2 2257   4.013   0.376   3.687 -0.0392  0.3019  0.4990
  555SOL     OW 2258   5.411   3.241   1.503 -0.2118  0.2768  0.2291
  555SOL    HW1 2259   5.415   3.306   1.573  1.0073  1.2065 -0.7004
  555SOL    HW2 2260   5.485   3.183   1.520  0.4923  0.9009 -0.6719
  556SOL     OW 2261   2.941   4.144   0.807  0.1548  0.1904  0.0168
  556SOL    HW1 2262   2.992   4.113   0.882 -0.6686  0.0848  0.5359
  556SOL    HW2 2263   2.873   4.078   0.795  0.6637 -0.1256 -1.2319
  557SOL     OW 2264   4.426   7.121   4.457 -0.0100  0.2711  0.2963
  557SOL    HW1 2265   4.433   7.081   4.370  1.6608  1.7450 -0.2806
  557SOL    HW2 2266   4.346   7.084   4.494  1.5597 -3.7852 -0.0789
  558SOL     OW 2267   5.044   3.225   1.389 -0.4039  0.0806  0.0408
  558SOL    HW1 2268   5.029   3.317   1.409 -2.4969 -0.5501  1.4578
  558SOL    HW2 2269   4.966   3.180   1.421 -0.2953 -1.9515 -2.4212
  559SOL     OW 2270   6.018   1.738   6.072  0.2268 -0.2387  0.0797
  559SOL    HW1 2271   6.102   1.739   6.118 -0.3986  1.5108  1.2550
  559SOL    HW2 2272   5.954   1.761   6.139 -1.1334 -1.0489 -0.9209
  560SOL     OW 2273   0.508   1.965   2.917 -0.2424  0.1948 -0.1008
  560SOL    HW1 2274   0.592   1.996   2.883  0.5344  0.4265  1.9400
  560SOL    HW2 2275   0.531   1.897   2.981 -1.5510  0.8500  1.1044
  561SOL     OW 2276   0.354   2.938   2.528  0.5342  0.7070 -0.5207
  561SOL    HW1 2277   0.420   2.886   2.482 -1.4116 -1.5811 -0.7951
  561SOL    HW2 2278   0.313   2.877   2.589 -0.6488  2.3680  0.3920
  562SOL     OW 2279   5.248   3.151   7.013  0.1185  0.0683 -0.0561
  562SOL    HW1 2280   5.273   3.240   6.987 -1.0744  0.3804 -0.1506
  562SOL    HW2 2281   5.237   3.104   6.930  2.2256 -0.6006  0.0079
  563SOL     OW 2282   4.573   0.582   3.675 -0.2373 -0.0217  0.1715
  563SOL    HW1 2283   4.503   0.517   3.678 -1.8532  1.6163 -0.9600
  563SOL    HW2 2284   4.571   0.615   3.585 -0.1819  2.3913  1.0162
  564SOL     OW 2285   0.683   3.944   4.796  0.0767  0.6188 -0.2104
  564SOL    HW1 2286   0.678   4.022   4.852  0.0570  1.5195 -1.4504
  564SOL    HW2 2287   0.667   3.977   4.708 -0.8362 -0.9367 -0.6424
  565SOL     OW 2288   1.139   6.368   2.504  0.2879 -0.2157 -0.3840
  565SOL    HW1 2289   1.197   6.392   2.576 -0.4496 -2.0620  0.8759
  565SOL    HW2 2290   1.134   6.446   2.449  0.0062  1.6137  2.1683
  566SOL     OW 2291   5.790   6.348   0.915  0.0702  0.1213 -0.0665
  566SOL    HW1 2292   5.778   6.262   0.955  0.4575  0.0764 -0.0513
  566SOL    HW2 2293   5.710   6.362   0.864  0.0969 -0.3306 -0.2312
  567SOL     OW 2294   5.709   0.103   0.004 -0.2077  0.1669  0.0642
  567SOL    HW1 2295   5.751   0.115   0.089 -0.7826  1.7452  0.1315
  567SOL    HW2 2296   5.662   0.020   0.012 -0.4108  0.4033  1.3480
  568SOL     OW 2297   0.121   7.088   5.617  0.1007  0.7853  0.1085
  568SOL    HW1 2298   0.133   7.022   5.686 -0.0394  3.1314  2.4927
  568SOL    HW2 2299   0.203   7.137   5.616  0.9250 -0.5555 -2.9603
  569SOL     OW 2300   7.143   5.116   3.921 -0.2869 -0.1288 -0.1234
  569SOL    HW1 2301   7.230   5.108   3.881 -0.6914  0.5951 -1.1922
  569SOL    HW2 2302   7.110   5.026   3.925  0.9250 -0.5268  1.2606
  570SOL     OW 2303   4.382   4.355   5.575  0.7541  0.1882 -0.1425
  570SOL    HW1 2304   4.364   4.277   5.627 -0.4098  1.5904  1.6106
  570SOL    HW2 2305   4.475   4.373   5.590  0.9067 -0.5892 -0.1741
  571SOL     OW 2306   0.459   3.893   5.702 -0.5903  0.0354  0.1554
  571SOL    HW1 2307   0.401   3.934   5.638 -0.8682 -1.6927 -0.7270
  571SOL    HW2 2308   0.407   3.823   5.740 -0.5785  1.2960  2.6330
  572SOL     OW 2309   2.195   5.426   2.014  0.5803 -0.4394 -0.0369
  572SOL    HW1 2310   2.217   5.519   2.016 -0.7319 -0.1021 -0.2128
  572SOL    HW2 2311   2.269   5.385   1.970  0.2146  0.8231 -1.9056
  573SOL     OW 2312   1.588   4.079   6.372  0.5398  0.1812 -0.0364
  573SOL    HW1 2313   1.638   4.038   6.301 -1.0756 -0.6725 -0.7253
  573SOL    HW2 2314   1.561   4.005   6.427  0.1850  0.6446  0.4104
  574SOL     OW 2315   4.895   0.235   3.356 -0.7049  0.0358 -0.3765
  574SOL    HW1 2316   4.940   0.155   3.328 -1.3985 -1.2588  2.0450
  574SOL    HW2 2317   4.965   0.300   3.363  0.0362 -0.6422 -1.2850
  575SOL     OW 2318   6.139   5.590   4.161  0.0190  0.5157  0.5090
  575SOL    HW1 2319   6.216   5.534   4.170  0.0242  0.1780 -1.4573
  575SOL    HW2 2320   6.095   5.584   4.246 -0.0631 -2.6167  0.3179
  576SOL     OW 2321   5.196   4.107   6.557 -0.4006 -0.1842 -0.1172
  576SOL    HW1 2322   5.115   4.110   6.506 -0.5936  1.0820  0.2580
  576SOL    HW2 2323   5.265   4.116   6.492 -0.6670  2.1428 -0.1025
  577SOL     OW 2324   5.028   6.914   1.165  0.0149  0.2292  0.0789
  577SOL    HW1 2325   5.009   6.849   1.098  1.8733  0.4310 -0.6683
  577SOL    HW2 2326   4.959   6.981   1.153  0.0104 -0.0014 -1.2751
  578SOL     OW 2327   5.504   6.759   6.552  0.1088 -0.7677  0.3518
  578SOL    HW1 2328   5.513   6.665   6.536  0.3455 -0.4115 -1.7334
  578SOL    HW2 2329   5.444   6.765   6.626  0.5380 -2.5735  0.8646
  579SOL     OW 2330   7.122   1.710   1.929  0.0879 -0.2880 -0.5561
  579SOL    HW1 2331   7.190   1.684   1.991  0.1219 -1.9327 -1.2622
  579SOL    HW2 2332   7.040   1.701   1.977  0.1189 -1.5117 -0.7222
  580SOL     OW 2333   3.707   0.098   3.963 -0.3279  0.3881  0.4007
  580SOL    HW1 2334   3.633   0.109   4.022  0.5909  2.1155  1.2474
  580SOL    HW2 2335   3.710   0.179   3.912  0.5252  0.0206 -0.1442
  581SOL     OW 2336   5.515   0.036   6.221  0.6061 -0.3247  0.2082
  581SOL    HW1 2337   5.431   0.076   6.199  0.0323 -1.2534  0.7100
  581SOL    HW2 2338   5.541   0.078   6.302  0.6466 -0.0052  0.0303
  582SOL     OW 2339   5.926   2.949   0.163 -0.3364  0.0014 -0.2269
  582SOL    HW1 2340   6.001   2.988   0.119 -0.6289  0.4039 -0.3809
  582SOL    HW2 2341   5.962   2.905   0.240 -0.0455  0.9875  0.2140
  583SOL     OW 2342   4.944   2.329   3.971 -0.5658 -0.1370 -0.0442
  583SOL    HW1 2343   4.937   2.235   3.954  2.1335 -0.8330  2.3331
  583SOL    HW2 2344   4.866   2.349   4.024 -0.2566 -1.4285  0.9494
  584SOL     OW 2345   0.884   1.669   0.247  0.0586 -0.0863  0.6396
  584SOL    HW1 2346   0.841   1.632   0.169  1.2728 -0.2103  0.0183
  584SOL    HW2 2347   0.865   1.763   0.242  0.6288 -0.0085 -0.1304
  585SOL     OW 2348   2.811   2.748   6.546  0.2162 -0.0488 -0.4083
  585SOL    HW1 2349   2.755   2.670   6.541  0.9710 -0.6274  0.0725
  585SOL    HW2 2350   2.886   2.720   6.599  0.4601  1.0256 -0.1827
  586SOL     OW 2351   3.772   2.262   5.892 -0.3804  0.0056  0.0786
  586SOL    HW1 2352   3.830   2.338   5.888 -0.0609 -0.3283 -2.1010
  586SOL    HW2 2353   3.698   2.286   5.837 -2.1268  0.2315  2.4482
  587SOL     OW 2354   6.077   2.170   1.305  0.1876 -0.2734  0.3363
  587SOL    HW1 2355   6.108   2.260   1.318  1.1467 -0.7029  1.1848
  587SOL    HW2 2356   5.982   2.176   1.314  0.4367  0.2245  3.2912
  588SOL     OW 2357   6.351   1.895   1.192  0.1206 -0.1243 -0.3185
  588SOL    HW1 2358   6.261   1.911   1.221  0.1666 -0.3623 -0.0438
  588SOL    HW2 2359   6.390   1.843   1.262  0.7527  0.7821  0.0131
  589SOL     OW 2360   5.015   6.681   3.848  0.4267 -0.3369  0.1027
  589SOL    HW1 2361   4.990   6.597   3.809 -0.4111  0.0043 -0.1106
  589SOL    HW2 2362   5.009   6.744   3.776 -1.5367  0.3730  0.8319
  590SOL     OW 2363   1.244   1.202   4.067  0.3096 -0.6740 -0.6636
  590SOL    HW1 2364   1.154   1.184   4.095 -0.8141  0.4329 -3.2940
  590SOL    HW2 2365   1.280   1.116   4.046  0.2656 -1.2324  1.4468
  591SOL     OW 2366   6.176   1.746   4.936  0.0465  0.6115 -0.0719
  591SOL    HW1 2367   6.162   1.651   4.941 -1.2051  0.7986  0.0163
  591SOL    HW2 2368   6.089   1.783   4.923  0.5108  1.7674  0.0463
  592SOL     OW 2369   5.231   0.258   1.582  0.1842  0.1631 -0.2067
  592SOL    HW1 2370   5.153   0.270   1.529  0.7051 -0.3182 -1.1061
  592SOL    HW2 2371   5.230   0.330   1.644  0.3303  1.5712 -1.8232
  593SOL     OW 2372   4.102   5.509   0.607  0.3906 -0.1889 -0.2659
  593SOL    HW1 2373   4.143   5.553   0.681  0.4042 -2.8598  1.3780
  593SOL    HW2 2374   4.008   5.521   0.620  0.3981 -0.5301  0.1366
  594SOL     OW 2375   4.328   7.159   4.138  0.0179 -0.0998  0.1260
  594SOL    HW1 2376   4.302   7.248   4.114  0.3038  0.0749  0.4513
  594SOL    HW2 2377   4.248   7.120   4.174  0.5031  0.8638  2.3342
  595SOL     OW 2378   6.380   3.965   6.236 -0.6971  0.2983  0.0172
  595SOL    HW1 2379   6.371   3.872   6.256  5.1744 -0.1581  1.3815
  595SOL    HW2 2380   6.364   4.009   6.319  0.1587  0.2142  0.2283
  596SOL     OW 2381   3.836   4.613   0.610  0.3540  0.4428  0.1014
  596SOL    HW1 2382   3.880   4.546   0.664 -0.6494  0.4836  1.0055
  596SOL    HW2 2383   3.759   4.568   0.576 -0.5798  1.2517  1.0919
  597SOL     OW 2384   3.764   4.974   1.359 -0.1401  0.1724 -0.3042
  597SOL    HW1 2385   3.818   4.985   1.437  0.9206 -1.1254 -0.8259
  597SOL    HW2 2386   3.810   5.022   1.290  0.0654 -0.4960 -0.6330
  598SOL     OW 2387   6.720   4.702   1.030  0.1588  0.2882 -0.1858
  598SOL    HW1 2388   6.729   4.734   0.940  0.0569 -2.4333 -1.2064
  598SOL    HW2 2389   6.635   4.657   1.030 -0.0117  0.5963  1.3886
  599SOL     OW 2390   5.924   5.554   6.535  0.2902  0.2794 -0.9333
  599SOL    HW1 2391   5.995   5.526   6.478 -0.6107  0.5429 -2.2133
  599SOL    HW2 2392   5.905   5.478   6.590  0.8611 -0.1212 -1.2927
  600SOL     OW 2393   4.336   0.534   1.435 -0.1384  0.4117  0.0562
  600SOL    HW1 2394   4.260   0.489   1.472 -0.4232  1.6377  0.9876
  600SOL    HW2 2395   4.379   0.468   1.382 -1.1577 -0.6551  0.5330
  601SOL     OW 2396   3.208   4.834   4.346  0.1034 -0.3818 -0.5067
  601SOL    HW1 2397   3.227   4.886   4.424  2.5025  0.1353 -1.4167
  601SOL    HW2 2398   3.198   4.898   4.276 -0.4452 -0.9547 -0.9600
  602SOL     OW 2399   6.952   0.725   0.280  0.0191 -0.1359 -0.3678
  602SOL    HW1 2400   6.867   0.748   0.318 -0.5267 -1.5701 -0.6701
  602SOL    HW2 2401   7.013   0.730   0.354 -0.8369 -1.7803  0.5002
  603SOL     OW 2402   0.592   1.093   7.131  0.4325  0.5130  0.2947
  603SOL    HW1 2403   0.607   1.177   7.174 -2.1656  0.7145  0.8609
  603SOL    HW2 2404   0.655   1.033   7.172  0.4530  1.5388  1.7902
  604SOL     OW 2405   1.955   1.195   6.351  0.4000  0.3655  0.2003
  604SOL    HW1 2406   1.955   1.214   6.257  0.6946  0.8342  0.2923
  604SOL    HW2 2407   1.864   1.173   6.371  0.0675  1.5582  0.0547
  605SOL     OW 2408   3.146   0.915   5.653 -0.1494  0.1150 -0.6104
  605SOL    HW1 2409   3.075   0.861   5.620 -0.0916  0.5011 -1.3700
  605SOL    HW2 2410   3.103   0.983   5.705 -0.3678  0.5553 -1.3549
  606SOL     OW 2411   5.245   4.648   4.799 -0.7224 -0.6898  0.5821
  606SOL    HW1 2412   5.263   4.555   4.782  0.7905 -0.2511 -0.3246
  606SOL    HW2 2413   5.168   4.667   4.746 -0.9803 -1.4105  0.6903
  607SOL     OW 2414   0.719   7.224   0.725  0.2109 -0.0998 -0.5069
  607SOL    HW1 2415   0.791   7.161   0.736  0.9097  0.9930  1.4284
  607SOL    HW2 2416   0.658   7.180   0.666  1.6809 -1.7279 -0.8756
  608SOL     OW 2417   0.248   4.748   4.535  0.5688  0.8162  0.0185
  608SOL    HW1 2418   0.308   4.674   4.534 -0.6411 -0.1836 -0.7665
  608SOL    HW2 2419   0.207   4.745   4.621  0.2652  0.3643 -0.1439
  609SOL     OW 2420   0.809   3.021   0.451 -0.0489 -0.2731  0.6162
  609SOL    HW1 2421   0.790   3.004   0.359  1.7689  0.3305  0.1119
  609SOL    HW2 2422   0.873   2.953   0.475 -0.9748 -0.8021  1.6086
  610SOL     OW 2423   6.338   1.879   6.077  0.3342  0.8832 -0.1456
  610SOL    HW1 2424   6.296   1.810   6.128  0.3833  1.1123  0.2034
  610SOL    HW2 2425   6.292   1.959   6.102 -0.2256  0.8638 -1.1110
  611SOL     OW 2426   0.837   2.803   5.014  0.0713 -0.3363  0.0338
  611SOL    HW1 2427   0.797   2.747   5.081  1.4057 -0.8901  0.3774
  611SOL    HW2 2428   0.799   2.889   5.029 -0.0066 -0.5660  1.1863
  612SOL     OW 2429   6.520   3.948   5.142  0.3823  0.3165  0.0470
  612SOL    HW1 2430   6.581   3.879   5.117 -0.0460 -0.2630  0.5856
  612SOL    HW2 2431   6.476   3.972   5.060  0.5605 -0.0263 -0.1481
  613SOL     OW 2432   0.828   4.579   0.115 -0.5481 -0.1634 -0.0387
  613SOL    HW1 2433   0.811   4.543   0.028 -0.4331 -0.3432  0.0123
  613SOL    HW2 2434   0.824   4.503   0.173 -1.3541  0.0660  0.2111
  614SOL     OW 2435   5.198   3.867   2.621 -0.4598  0.5366  0.4589
  614SOL    HW1 2436   5.245   3.784   2.623 -0.1794  0.6125 -1.7160
  614SOL    HW2 2437   5.116   3.849   2.666 -1.4492 -1.6282 -2.0552
  615SOL     OW 2438   4.159   4.955   5.437 -0.1159  0.4008 -0.1442
  615SOL    HW1 2439   4.090   4.889   5.432 -0.6198  1.0137 -1.1597
  615SOL    HW2 2440   4.239   4.906   5.417 -0.4405  0.0191 -0.5250
  616SOL     OW 2441   6.283   0.300   4.870 -0.5968 -0.1312 -0.4052
  616SOL    HW1 2442   6.360   0.340   4.912 -1.5067  0.0781  1.1008
  616SOL    HW2 2443   6.308   0.209   4.857 -0.4213 -0.2772  0.9086
  617SOL     OW 2444   4.029   3.758   6.904 -0.7329 -0.5528 -0.5570
  617SOL    HW1 2445   3.946   3.713   6.892 -0.5188 -1.2738  0.5538
  617SOL    HW2 2446   4.024   3.795   6.992  0.5956 -1.6667  0.0040
  618SOL     OW 2447   1.644   0.608   5.766  0.4853  0.2322 -0.1822
  618SOL    HW1 2448   1.599   0.548   5.825 -1.2862  1.2747 -0.4633
  618SOL    HW2 2449   1.629   0.572   5.679 -1.3847  1.5581 -0.4384
  619SOL     OW 2450   0.544   3.666   2.973 -0.6001 -0.6058  0.1442
  619SOL    HW1 2451   0.476   3.620   3.023  0.8707 -0.5865  2.1998
  619SOL    HW2 2452   0.619   3.607   2.975  1.0761  1.4956  2.1800
  620SOL     OW 2453   6.910   7.125   6.253  0.3927  0.2056 -0.2703
  620SOL    HW1 2454   6.973   7.175   6.304  1.2656  1.1619 -2.2320
  620SOL    HW2 2455   6.834   7.117   6.310  1.5509  0.7328  1.3849
  621SOL     OW 2456   4.345   3.571   4.742 -0.6137 -0.1476 -0.2619
  621SOL    HW1 2457   4.293   3.581   4.663 -2.3819 -0.3343  0.8649
  621SOL    HW2 2458   4.292   3.608   4.812  0.7579 -0.3277  0.9130
  622SOL     OW 2459   1.437   4.257   1.716 -0.1178 -0.8798 -0.7321
  622SOL    HW1 2460   1.428   4.266   1.810  0.0713 -0.1181 -0.7905
  622SOL    HW2 2461   1.475   4.170   1.704  1.7304 -0.1889 -0.0052
  623SOL     OW 2462   1.073   1.876   7.160 -0.6489 -0.0308 -0.2987
  623SOL    HW1 2463   1.046   1.895   7.071  2.1600 -0.1979 -1.2402
  623SOL    HW2 2464   1.168   1.889   7.160 -0.4859 -0.8086  2.4542
  624SOL     OW 2465   6.085   2.741   7.123 -0.0846 -0.0445 -0.5293
  624SOL    HW1 2466   6.166   2.707   7.084  0.7506  1.3135 -0.0121
  624SOL    HW2 2467   6.099   2.836   7.127 -1.5759  0.1598 -0.1352
  625SOL     OW 2468   1.601   1.597   2.530  0.3389  0.4045  0.2434
  625SOL    HW1 2469   1.528   1.542   2.500  0.5876  1.0798 -1.6582
  625SOL    HW2 2470   1.667   1.534   2.560  0.4633 -0.3383 -1.5309
  626SOL     OW 2471   2.537   0.165   2.608  0.7632 -0.1255 -0.1017
  626SOL    HW1 2472   2.541   0.229   2.536  2.7603 -1.5609 -1.3008
  626SOL    HW2 2473   2.513   0.083   2.566  1.2490 -0.8331  0.9913
  627SOL     OW 2474   1.559   4.151   5.338  0.0011  0.1422  0.0654
  627SOL    HW1 2475   1.634   4.155   5.398 -0.1091  0.8129  0.1565
  627SOL    HW2 2476   1.523   4.239   5.339 -0.7262 -0.1532 -0.0658
  628SOL     OW 2477   3.923   1.913   0.919  0.5309 -0.3941 -0.0207
  628SOL    HW1 2478   3.853   1.913   0.984 -1.0056 -0.2451 -1.6515
  628SOL    HW2 2479   3.978   1.838   0.943 -0.0548 -0.3821  1.3903
  629SOL     OW 2480   3.231   1.723   6.458 -0.0728 -0.4220 -0.3824
  629SOL    HW1 2481   3.208   1.816   6.458  1.8317  0.0615 -0.9943
  629SOL    HW2 2482   3.326   1.722   6.455 -0.0297 -2.3990  0.9551
  630SOL     OW 2483   5.130   6.130   2.278 -0.3269  0.3298  0.6198
  630SOL    HW1 2484   5.125   6.071   2.203  0.2149  0.0692  0.7856
  630SOL    HW2 2485   5.048   6.114   2.325 -0.2054 -0.2674  0.6398
  631SOL     OW 2486   6.234   3.284   1.343  0.0764 -0.9874  0.1730
  631SOL    HW1 2487   6.249   3.190   1.351 -0.4884 -1.1458 -0.5811
  631SOL    HW2 2488   6.139   3.293   1.338  0.0909 -0.3152  0.9261
  632SOL     OW 2489   7.025   6.404   2.779 -0.0915 -0.4051  0.0938
  632SOL    HW1 2490   6.974   6.372   2.704 -1.9447  1.4108  0.5227
  632SOL    HW2 2491   7.093   6.458   2.739  0.9090 -2.0086 -0.4270
  633SOL     OW 2492   6.619   4.813   4.935 -0.1530 -0.0347 -0.5343
  633SOL    HW1 2493   6.668   4.793   5.014 -1.7086 -0.1525  0.4282
  633SOL    HW2 2494   6.683   4.852   4.875  1.1543 -0.4831  0.5574
  634SOL     OW 2495   2.293   1.282   5.157 -0.1821  0.1174  0.6294
  634SOL    HW1 2496   2.366   1.271   5.097 -0.1312 -1.9229  1.0083
  634SOL    HW2 2497   2.215   1.268   5.104 -0.2095  0.3233  0.6174
  635SOL     OW 2498   3.518   6.035   5.432  0.2613  0.4570 -0.5751
  635SOL    HW1 2499   3.609   6.063   5.438  0.9009 -1.5051 -0.8546
  635SOL    HW2 2500   3.501   5.987   5.514 -0.3197  0.2739 -0.7935
  636SOL     OW 2501   6.966   7.059   4.741 -0.4654  0.0535  0.1994
  636SOL    HW1 2502   6.942   7.036   4.651 -1.5336  1.9530 -0.0411
  636SOL    HW2 2503   6.926   6.990   4.795  0.4212 -1.2483 -0.7910
  637SOL     OW 2504   5.663   5.327   2.648 -0.1814 -0.2739  0.2033
  637SOL    HW1 2505   5.615   5.325   2.730 -2.4044 -0.7833 -1.0879
  637SOL    HW2 2506   5.678   5.235   2.626 -1.7874 -0.2117 -1.2114
  638SOL     OW 2507   3.525   3.147   1.845  0.3958 -0.1142  0.0347
  638SOL    HW1 2508   3.448   3.200   1.827 -1.2423 -2.2285  0.6065
  638SOL    HW2 2509   3.524   3.135   1.940  2.7337  1.7129  0.3377
  639SOL     OW 2510   1.204   4.340   3.843  0.2822  0.3862 -0.1927
  639SOL    HW1 2511   1.224   4.410   3.904  0.8157  0.2075 -0.1559
  639SOL    HW2 2512   1.289   4.298   3.826 -0.2061 -1.0304  0.7480
  640SOL     OW 2513   4.383   5.475   4.645 -0.4821  0.2374 -0.4997
  640SOL    HW1 2514   4.465   5.436   4.674  0.0292  1.0763 -0.7994
  640SOL    HW2 2515   4.407   5.527   4.568 -1.3284  0.3193 -0.7112
  641SOL     OW 2516   7.048   1.842   5.244 -1.0321  0.0168  0.3283
  641SOL    HW1 2517   7.038   1.870   5.335 -1.6409  0.5820  0.0952
  641SOL    HW2 2518   6.959   1.818   5.217 -1.1000  1.2144 -0.5452
  642SOL     OW 2519   7.138   4.237   2.524  0.1157 -0.1217  0.0375
  642SOL    HW1 2520   7.118   4.325   2.494  0.7525  0.2863  0.8010
  642SOL    HW2 2521   7.059   4.209   2.571  1.1823  1.4033  2.8590
  643SOL     OW 2522   5.432   2.011   3.343 -0.0688  0.1607  0.1229
  643SOL    HW1 2523   5.409   1.941   3.405  1.9411 -0.3429  0.3433
  643SOL    HW2 2524   5.527   2.020   3.352 -0.2639  2.7080 -0.1444
  644SOL     OW 2525   3.345   4.638   0.282  0.6660 -0.5328  0.1182
  644SOL    HW1 2526   3.279   4.623   0.350  0.7998 -1.1434  0.1168
  644SOL    HW2 2527   3.407   4.566   0.292  1.0394 -0.2649 -0.2346
  645SOL     OW 2528   5.273   7.219   3.533  0.0247 -0.3656  0.0615
  645SOL    HW1 2529   5.182   7.190   3.520 -0.3483  1.0638 -0.5889
  645SOL    HW2 2530   5.268   7.314   3.534  1.7252 -0.2467 -1.3777
  646SOL     OW 2531   4.554   1.305   3.508 -0.2778 -0.4993 -0.4307
  646SOL    HW1 2532   4.525   1.214   3.516  0.4751 -0.6166  0.9908
  646SOL    HW2 2533   4.602   1.307   3.425 -1.8518 -0.9579 -1.3990
  647SOL     OW 2534   3.872   1.287   4.511 -0.1804  0.2803 -0.5834
  647SOL    HW1 2535   3.802   1.343   4.545 -0.2846 -0.1800 -0.0254
  647SOL    HW2 2536   3.926   1.345   4.458 -1.5018  0.4495 -1.7766
  648SOL     OW 2537   0.169   5.515   4.356  0.0405  0.0605 -0.2924
  648SOL    HW1 2538   0.222   5.435   4.353 -0.1670 -0.0408 -2.1574
  648SOL    HW2 2539   0.191   5.561   4.275 -0.4351  1.5227  0.3918
  649SOL     OW 2540   5.492   0.789   0.018  0.4383 -0.0306 -0.0438
  649SOL    HW1 2541   5.409   0.837   0.026 -0.2239 -0.8275 -1.8428
  649SOL    HW2 2542   5.545   0.842  -0.041  0.0449 -1.0283 -1.3133
  650SOL     OW 2543   3.296   4.188   3.871  0.2075  0.6196  0.2871
  650SOL    HW1 2544   3.292   4.276   3.908 -0.3053  0.6543  0.1537
  650SOL    HW2 2545   3.347   4.198   3.791  0.5077  0.7204  0.4923
  651SOL     OW 2546   2.763   4.895   2.910  0.3737 -0.2156 -0.4295
  651SOL    HW1 2547   2.840   4.886   2.966 -0.6291 -0.5095  0.9329
  651SOL    HW2 2548   2.708   4.821   2.934 -1.6808  1.6482  0.7790
  652SOL     OW 2549   7.000   0.987   6.175 -0.5398 -0.0851  0.4490
  652SOL    HW1 2550   6.950   0.906   6.171 -0.0697 -0.3936  0.6475
  652SOL    HW2 2551   7.034   0.999   6.087 -2.4028  1.0609 -0.1182
  653SOL     OW 2552   3.482   6.028   4.443 -0.4320 -0.1040 -0.4207
  653SOL    HW1 2553   3.485   5.932   4.450 -0.4579  0.0412  2.4226
  653SOL    HW2 2554   3.460   6.045   4.352 -2.6629 -2.8710 -0.4856
  654SOL     OW 2555   3.255   4.303   6.074 -0.0160 -0.3445  0.0525
  654SOL    HW1 2556   3.321   4.369   6.094  0.9977 -1.5454  0.7555
  654SOL    HW2 2557   3.273   4.276   5.984 -0.2555  0.1380 -0.1386
  655SOL     OW 2558   4.621   2.683   3.149  0.7147  0.4421  0.6642
  655SOL    HW1 2559   4.705   2.694   3.105  1.2893  0.0139  1.6239
  655SOL    HW2 2560   4.563   2.745   3.106  1.5470  0.8063  0.0504
  656SOL     OW 2561   5.526   0.323   4.872 -0.2459 -0.5412 -0.2736
  656SOL    HW1 2562   5.554   0.236   4.903 -0.6415 -0.7298 -0.4453
  656SOL    HW2 2563   5.604   0.358   4.827 -0.6196 -1.5312 -1.7326
  657SOL     OW 2564   2.805   6.503   1.516 -0.1626  0.3060 -0.4800
  657SOL    HW1 2565   2.868   6.453   1.569 -0.1581  0.0520 -0.7261
  657SOL    HW2 2566   2.824   6.594   1.537  0.4347  0.2403 -0.7066
  658SOL     OW 2567   0.484   3.176   1.345 -0.1775  0.3329  0.1298
  658SOL    HW1 2568   0.470   3.144   1.256 -1.0207  1.5371 -0.1987
  658SOL    HW2 2569   0.424   3.125   1.399  0.2178 -0.2885 -0.0193
  659SOL     OW 2570   2.098   1.462   0.627 -0.5365  0.8199 -0.2129
  659SOL    HW1 2571   2.017   1.457   0.678 -1.2719  3.1842 -1.0760
  659SOL    HW2 2572   2.070   1.455   0.536  0.3427  0.7373 -0.4831
  660SOL     OW 2573   7.252   0.448   1.505 -0.2676 -0.3105 -0.5918
  660SOL    HW1 2574   7.219   0.532   1.474  0.3373  1.1246  2.4784
  660SOL    HW2 2575   7.190   0.422   1.574 -0.2393 -2.1879 -1.2519
  661SOL     OW 2576   3.339   6.342   1.604  0.6676 -0.6525 -0.1734
  661SOL    HW1 2577   3.347   6.332   1.699  0.8353  1.2385  0.0416
  661SOL    HW2 2578   3.419   6.389   1.579  0.6048 -1.1247 -1.2397
  662SOL     OW 2579   2.361   1.949   0.055 -0.1103  0.6031 -0.1385
  662SOL    HW1 2580   2.359   1.872  -0.002 -0.9389 -0.1189  0.8494
  662SOL    HW2 2581   2.454   1.970   0.064  0.1270 -0.3529 -0.3425
  663SOL     OW 2582   6.680   4.806   4.167 -0.1632  0.1205 -0.2081
  663SOL    HW1 2583   6.668   4.856   4.248  1.4318  0.0181  0.1219
  663SOL    HW2 2584   6.692   4.873   4.100  1.3296  0.2069  0.1257
  664SOL     OW 2585   5.774   4.123   4.669 -0.3544  0.3266  0.9550
  664SOL    HW1 2586   5.771   4.139   4.764 -0.0903  0.2128  0.9832
  664SOL    HW2 2587   5.702   4.062   4.653 -1.2767  1.4138  0.8715
  665SOL     OW 2588   5.893   4.883   1.500  0.2365 -0.2255 -0.7479
  665SOL    HW1 2589   5.844   4.907   1.421 -3.1428  0.5582  1.5123
  665SOL    HW2 2590   5.922   4.966   1.537 -1.9916 -0.2558  1.1611
  666SOL     OW 2591   0.610   3.274   6.289 -0.2138  0.5598  0.5814
  666SOL    HW1 2592   0.614   3.217   6.366  2.7083  0.0894  0.1516
  666SOL    HW2 2593   0.578   3.218   6.218 -0.3148  0.2793  0.8501
  667SOL     OW 2594   2.246   6.642   0.840  0.3685 -0.2370 -0.3059
  667SOL    HW1 2595   2.256   6.699   0.763 -0.2465 -2.1295 -1.8298
  667SOL    HW2 2596   2.171   6.679   0.887  1.3305  1.4976 -0.0771
  668SOL     OW 2597   3.836   1.005   2.091 -0.5945  0.0510  0.9924
  668SOL    HW1 2598   3.893   1.079   2.109 -1.7088  1.1156  0.2003
  668SOL    HW2 2599   3.765   1.041   2.038 -0.5306 -1.8001 -0.4279
  669SOL     OW 2600   2.305   3.820   5.164  0.3798 -0.5265 -0.1513
  669SOL    HW1 2601   2.294   3.910   5.197 -0.0043 -1.0803  1.2913
  669SOL    HW2 2602   2.256   3.818   5.082  1.7524  1.0402 -1.0436
  670SOL     OW 2603   0.624   2.904   7.099 -0.0020  0.3472 -0.2601
  670SOL    HW1 2604   0.708   2.950   7.097  1.2696 -1.7767  1.9465
  670SOL    HW2 2605   0.643   2.821   7.140 -3.6130  0.6573  2.2529
  671SOL     OW 2606   7.185   5.159   3.078 -0.0346  0.3393 -0.1124
  671SOL    HW1 2607   7.270   5.203   3.073 -0.4079  0.8594 -2.4911
  671SOL    HW2 2608   7.122   5.223   3.045 -1.2667 -0.3007  0.9295
  672SOL     OW 2609   6.905   0.520   3.198  0.3468  0.0620 -0.0084
  672SOL    HW1 2610   6.921   0.548   3.289 -0.3327  1.0940 -0.2006
  672SOL    HW2 2611   6.970   0.569   3.147 -0.9008  1.3795 -0.3568
  673SOL     OW 2612   1.270   2.569   1.988  0.0022  0.0382 -0.1780
  673SOL    HW1 2613   1.248   2.658   1.962 -0.8082 -0.1100 -0.0335
  673SOL    HW2 2614   1.303   2.578   2.078  1.9735  0.4421 -0.9258
  674SOL     OW 2615   3.041   5.574   7.082 -0.3186  0.2173  0.6041
  674SOL    HW1 2616   3.079   5.543   7.164  0.8480  1.4375  0.5499
  674SOL    HW2 2617   3.048   5.670   7.087 -1.1453  0.3501 -0.4874
  675SOL     OW 2618   0.093   6.653   3.786  0.1154 -0.3724  0.4736
  675SOL    HW1 2619   0.149   6.681   3.713  0.0935 -0.6138  0.3613
  675SOL    HW2 2620   0.006   6.687   3.764 -0.1688 -1.5194 -0.2539
  676SOL     OW 2621   6.394   5.494   0.975  0.0318 -0.4417 -0.2633
  676SOL    HW1 2622   6.354   5.543   0.903  0.9021  0.6450 -0.0155
  676SOL    HW2 2623   6.466   5.549   1.005  0.7692 -1.6877  0.3065
  677SOL     OW 2624   2.166   6.600   1.861 -0.8661 -0.4624  0.2927
  677SOL    HW1 2625   2.194   6.686   1.829 -0.4880  0.4078  2.8853
  677SOL    HW2 2626   2.073   6.612   1.880 -1.1125 -1.0120 -0.5332
  678SOL     OW 2627   6.556   6.345   0.020 -0.2838  0.0583 -0.9951
  678SOL    HW1 2628   6.502   6.312   0.092  0.9745 -1.3354 -0.6794
  678SOL    HW2 2629   6.517   6.430  -0.001 -0.5163  0.6156  1.4930
  679SOL     OW 2630   5.720   0.738   5.663  0.3845 -0.6208 -0.1105
  679SOL    HW1 2631   5.757   0.826   5.662 -0.2446 -0.3416  0.7584
  679SOL    HW2 2632   5.682   0.728   5.576  3.1127 -1.2004 -1.2951
  680SOL     OW 2633   7.132   0.430   5.545  0.3912 -0.1493  0.6445
  680SOL    HW1 2634   7.051   0.464   5.582 -0.2688 -1.1588  0.1495
  680SOL    HW2 2635   7.118   0.335   5.540  0.8108 -0.1284 -1.3169
  681SOL     OW 2636   6.935   2.265   4.575  0.0785  0.7071  0.1738
  681SOL    HW1 2637   6.964   2.174   4.590 -3.4709 -0.9732 -2.5211
  681SOL    HW2 2638   7.001   2.302   4.516 -0.6898 -1.5737 -2.2074
  682SOL     OW 2639   3.931   6.887   5.968  0.1088 -0.5632 -0.0439
  682SOL    HW1 2640   3.940   6.927   5.882 -1.1746 -1.4451 -0.6040
  682SOL    HW2 2641   3.931   6.793   5.951 -2.0866 -0.7297  0.6785
  683SOL     OW 2642   1.692   2.955   5.692 -0.5712  0.4727 -0.1594
  683SOL    HW1 2643   1.619   3.007   5.725  0.1956  0.6475  1.2814
  683SOL    HW2 2644   1.721   2.904   5.767  0.2245 -0.2705 -0.9564
  684SOL     OW 2645   0.829   5.067   6.433 -0.0733  0.4997 -0.1196
  684SOL    HW1 2646   0.890   5.016   6.380 -0.9292 -2.1378  1.3537
  684SOL    HW2 2647   0.762   5.004   6.460 -1.9029  2.7200  0.6329
  685SOL     OW 2648   4.092   1.098   5.738  0.6005  0.6398  0.1263
  685SOL    HW1 2649   4.166   1.041   5.715  1.1327  1.6814 -0.8237
  685SOL    HW2 2650   4.132   1.185   5.746 -0.7793  1.4819 -1.9332
  686SOL     OW 2651   3.006   6.376   1.241  0.2297  0.0821  0.1619
  686SOL    HW1 2652   3.009   6.409   1.331 -2.0891  0.0033  0.2753
  686SOL    HW2 2653   3.012   6.455   1.187 -2.0471  0.4407  0.4151
  687SOL     OW 2654   5.512   6.772   1.434 -0.0627  0.5686 -0.0909
  687SOL    HW1 2655   5.432   6.754   1.385  0.6552  0.4589 -1.2321
  687SOL    HW2 2656   5.481   6.810   1.517 -1.3774 -1.3428  0.3258
  688SOL     OW 2657   6.161   2.106   2.684 -0.0003  0.2022 -0.2008
  688SOL    HW1 2658   6.097   2.050   2.728 -0.5571  0.3496 -0.8122
  688SOL    HW2 2659   6.233   2.047   2.661  0.5856  0.2400  1.4522
  689SOL     OW 2660   2.294   2.313   6.514  0.0982  0.5477  0.1344
  689SOL    HW1 2661   2.284   2.271   6.600  1.3622 -0.6077 -0.2552
  689SOL    HW2 2662   2.267   2.403   6.528 -1.1871 -0.0076  1.3832
  690SOL     OW 2663   6.020   4.515   2.252  0.4055  0.1695  0.5147
  690SOL    HW1 2664   6.037   4.482   2.340 -1.0492 -1.5550  0.1763
  690SOL    HW2 2665   6.073   4.459   2.194  0.3578  0.4529  0.1946
  691SOL     OW 2666   1.877   5.419   5.232 -0.0329 -0.5949 -0.3222
  691SOL    HW1 2667   1.886   5.449   5.322 -1.4502 -1.0639 -0.0156
  691SOL    HW2 2668   1.920   5.487   5.180 -1.3154  0.9112  0.5294
  692SOL     OW 2669   6.262   2.607   6.291 -0.3804  0.5910 -0.6779
  692SOL    HW1 2670   6.336   2.601   6.352  0.5527  0.7676 -1.7579
  692SOL    HW2 2671   6.186   2.619   6.347  0.1256 -1.7109  0.5798
  693SOL     OW 2672   4.982   1.244   1.275 -0.5309  0.2193 -0.2619
  693SOL    HW1 2673   5.001   1.301   1.200  0.6282  0.5603  0.2809
  693SOL    HW2 2674   4.929   1.173   1.238 -2.3690  1.8531 -0.8543
  694SOL     OW 2675   6.086   1.650   5.648 -0.5222  0.3014  0.0479
  694SOL    HW1 2676   6.057   1.652   5.557  0.6828  0.7140 -0.3392
  694SOL    HW2 2677   6.041   1.724   5.689 -1.7607 -0.4183  0.0154
  695SOL     OW 2678   6.463   3.034   0.874  0.2830 -0.0925 -0.2437
  695SOL    HW1 2679   6.460   2.974   0.948 -1.2330  0.3376  0.0807
  695SOL    HW2 2680   6.549   3.021   0.835  0.8942 -0.7111  1.2754
  696SOL     OW 2681   0.207   4.487   2.397 -0.1180 -0.1456  0.2700
  696SOL    HW1 2682   0.158   4.440   2.329  0.1611  0.1555 -0.1467
  696SOL    HW2 2683   0.289   4.512   2.353 -0.3862  0.9703  0.4067
  697SOL     OW 2684   0.600   4.345   2.401  0.4985  0.2742 -0.1909
  697SOL    HW1 2685   0.639   4.388   2.477 -0.6091 -0.3500  0.7323
  697SOL    HW2 2686   0.640   4.258   2.399  0.5158  0.2838 -0.3365
  698SOL     OW 2687   3.666   6.688   6.949  0.4718 -1.0801 -0.4063
  698SOL    HW1 2688   3.658   6.660   7.041  0.5882 -1.6372 -0.5640
  698SOL    HW2 2689   3.578   6.678   6.913  0.2482 -0.0785 -0.1348
  699SOL     OW 2690   4.594   4.277   2.504 -0.4685  0.4103  0.0239
  699SOL    HW1 2691   4.514   4.307   2.547 -0.0730  2.1227 -0.4148
  699SOL    HW2 2692   4.658   4.271   2.575 -0.9681 -0.9682  0.3779
  700SOL     OW 2693   2.912   1.604   6.041 -0.0896 -0.0745  0.3910
  700SOL    HW1 2694   2.826   1.580   6.008  0.3741  0.1833 -1.0479
  700SOL    HW2 2695   2.899   1.621   6.134 -1.9015  1.5286 -0.1425
  701SOL     OW 2696   6.160   2.572   2.927  0.0961 -0.0355 -0.0649
  701SOL    HW1 2697   6.232   2.548   2.984 -0.7728  0.1816  1.1473
  701SOL    HW2 2698   6.173   2.521   2.847  0.0410 -2.0823  1.2220
  702SOL     OW 2699   2.829   3.930   1.845  0.6066  0.3777  0.2263
  702SOL    HW1 2700   2.885   3.864   1.804  1.1502  0.0192  1.5097
  702SOL    HW2 2701   2.880   3.962   1.919 -0.4358  0.8525  0.7518
  703SOL     OW 2702   4.740   7.146   0.850 -0.4624  0.0361 -0.1175
  703SOL    HW1 2703   4.716   7.238   0.843  0.4474  0.2768 -0.1549
  703SOL    HW2 2704   4.659   7.101   0.875 -0.7794  0.9191  0.4256
  704SOL     OW 2705   2.894   4.751   6.134 -0.1745  0.3584 -0.8771
  704SOL    HW1 2706   2.860   4.825   6.083 -0.9627  0.8699  0.3858
  704SOL    HW2 2707   2.817   4.710   6.172  0.3475 -0.5299 -0.7474
  705SOL     OW 2708   6.704   4.210   4.895  0.1202 -0.3152  0.5454
  705SOL    HW1 2709   6.743   4.286   4.939 -0.1158  0.1931 -0.1117
  705SOL    HW2 2710   6.611   4.215   4.916 -0.4055  1.2628 -1.8780
  706SOL     OW 2711   6.529   1.283   7.101  0.0095  0.6563  0.4923
  706SOL    HW1 2712   6.472   1.293   7.177  0.0926 -4.2715  1.3601
  706SOL    HW2 2713   6.618   1.296   7.136 -0.0722  0.2551  0.8510
  707SOL     OW 2714   0.963   3.261   5.085 -0.3775  0.6370 -0.1653
  707SOL    HW1 2715   0.958   3.340   5.031 -0.9843 -0.1672 -1.3125
  707SOL    HW2 2716   0.897   3.275   5.154 -1.2069  0.7005 -0.9573
  708SOL     OW 2717   1.751   5.966   6.129 -0.1650  0.0390  0.3025
  708SOL    HW1 2718   1.783   5.879   6.155 -2.1077 -0.2509  1.8478
  708SOL    HW2 2719   1.818   6.027   6.160  0.4903 -0.7882  0.5384
  709SOL     OW 2720   4.969   6.162   4.923 -0.1479 -0.1475 -0.2176
  709SOL    HW1 2721   5.050   6.161   4.873  1.0994 -1.5069  1.7513
  709SOL    HW2 2722   4.949   6.255   4.935  1.0657  0.1961 -0.8038
  710SOL     OW 2723   0.272   2.425   6.498 -0.0627  0.3785 -0.1913
  710SOL    HW1 2724   0.311   2.489   6.438  0.8534 -0.6820 -0.7356
  710SOL    HW2 2725   0.274   2.342   6.450 -0.2292 -0.2845  0.9283
  711SOL     OW 2726   0.957   2.189   5.255  0.0818 -0.8611 -0.4941
  711SOL    HW1 2727   1.051   2.172   5.264  0.3114  0.8997  0.8020
  711SOL    HW2 2728   0.917   2.139   5.326  0.1460 -0.7768 -0.3984
  712SOL     OW 2729   5.317   5.634   6.206  0.0600 -0.2048  0.5409
  712SOL    HW1 2730   5.396   5.636   6.260  0.1733 -1.4887  0.4250
  712SOL    HW2 2731   5.349   5.652   6.117  0.2126 -0.7030  0.4968
  713SOL     OW 2732   1.248   2.826   5.398  0.5526 -0.0700 -0.1848
  713SOL    HW1 2733   1.300   2.879   5.338  0.8286 -0.4977 -0.3262
  713SOL    HW2 2734   1.200   2.765   5.342  2.1545 -1.6659  0.1070
  714SOL     OW 2735   4.473   5.833   3.834  0.2048  0.2860  0.1163
  714SOL    HW1 2736   4.525   5.782   3.772  1.7097  0.0827  1.5055
  714SOL    HW2 2737   4.457   5.772   3.907  1.3132  1.5154  1.4175
  715SOL     OW 2738   7.075   2.366   0.567 -0.0557 -0.1179 -0.6378
  715SOL    HW1 2739   7.141   2.436   0.574 -0.9645  0.8444 -1.3654
  715SOL    HW2 2740   7.126   2.286   0.558  1.0140  0.4377  0.3110
  716SOL     OW 2741   1.409   2.279   0.412  0.6355 -0.0450 -0.8101
  716SOL    HW1 2742   1.457   2.227   0.477 -0.3057 -0.1159 -0.1630
  716SOL    HW2 2743   1.330   2.228   0.394  0.3263  0.5389 -1.1312
  717SOL     OW 2744   0.076   6.774   1.743 -0.2578 -0.2351  0.4210
  717SOL    HW1 2745   0.111   6.687   1.721  2.4533  0.6753  1.0041
  717SOL    HW2 2746   0.070   6.773   1.838 -0.6246  0.0832  0.3998
  718SOL     OW 2747   6.117   3.103   0.615 -0.0979  0.4082 -0.2462
  718SOL    HW1 2748   6.140   3.041   0.547  0.6695  0.4828 -0.0565
  718SOL    HW2 2749   6.144   3.061   0.697  1.5297  1.4733 -0.2059
  719SOL     OW 2750   0.107   4.667   7.241 -0.1042  0.0158 -0.1063
  719SOL    HW1 2751   0.021   4.628   7.254  0.2893 -0.2126  1.9579
  719SOL    HW2 2752   0.118   4.669   7.146 -2.1232 -0.5075 -0.3728
  720SOL     OW 2753   3.383   2.682   0.821 -0.3032 -0.3102 -0.5604
  720SOL    HW1 2754   3.408   2.731   0.743  1.0414 -0.3759 -0.1805
  720SOL    HW2 2755   3.343   2.747   0.879  1.3277  0.3181 -0.1223
  721SOL     OW 2756   5.806   1.728   6.242 -0.8395 -0.0985 -0.0126
  721SOL    HW1 2757   5.758   1.810   6.254  1.9594  1.5078  0.6426
  721SOL    HW2 2758   5.761   1.666   6.299 -1.2341  1.7301  1.7296
  722SOL     OW 2759   1.258   4.193   0.065  0.2702 -0.3456 -0.5067
  722SOL    HW1 2760   1.228   4.138  -0.007 -0.0705 -0.2844 -0.4140
  722SOL    HW2 2761   1.326   4.142   0.108  0.3247 -0.4724 -0.7435
  723SOL     OW 2762   4.119   3.795   1.310 -0.2747 -0.1883  0.0190
  723SOL    HW1 2763   4.092   3.785   1.402  1.7328  0.9723  0.7681
  723SOL    HW2 2764   4.198   3.849   1.314 -1.3517  1.6846 -2.5871
  724SOL     OW 2765   6.134   1.699   2.946  0.0972 -0.0798 -0.1814
  724SOL    HW1 2766   6.063   1.678   3.007 -0.0181 -1.4505 -0.7817
  724SOL    HW2 2767   6.179   1.616   2.932  0.1060  0.2137 -1.9876
  725SOL     OW 2768   1.815   3.975   6.230 -0.0237 -0.7481  0.6507
  725SOL    HW1 2769   1.779   3.962   6.143 -1.1289  0.5251  0.8996
  725SOL    HW2 2770   1.837   3.887   6.261 -2.8031 -1.5609  0.4309
  726SOL     OW 2771   0.137   3.187   2.646  0.0393 -0.4550 -0.0024
  726SOL    HW1 2772   0.217   3.239   2.643  0.4321 -1.1374 -1.8777
  726SOL    HW2 2773   0.074   3.236   2.593 -0.8797  0.1828  1.6312
  727SOL     OW 2774   5.251   5.949   3.374 -0.3924 -0.4575 -0.1059
  727SOL    HW1 2775   5.303   5.970   3.452  0.9856  1.2656 -1.4470
  727SOL    HW2 2776   5.237   5.854   3.379 -0.4013 -0.3624  2.2566
  728SOL     OW 2777   6.041   4.994   7.031  0.4693 -0.0990  0.0365
  728SOL    HW1 2778   6.012   4.903   7.027  0.9108 -0.2819  0.8776
  728SOL    HW2 2779   6.047   5.013   7.125  1.2340  0.5173 -0.1357
  729SOL     OW 2780   1.077   3.139   3.237  0.1396  0.7195 -0.1042
  729SOL    HW1 2781   1.160   3.155   3.282  0.1263  2.2913 -0.5822
  729SOL    HW2 2782   1.033   3.072   3.289  1.6118  0.0378  0.2783
  730SOL     OW 2783   4.682   6.751   7.255  0.0612  0.3129  0.1379
  730SOL    HW1 2784   4.628   6.758   7.334  2.1614  2.1436  1.4877
  730SOL    HW2 2785   4.758   6.701   7.283 -0.2737 -1.0416 -1.3648
  731SOL     OW 2786   6.355   6.042   5.674 -0.7244  0.0163 -0.3169
  731SOL    HW1 2787   6.366   5.954   5.636 -0.6646  0.6419 -1.7845
  731SOL    HW2 2788   6.306   6.091   5.607  0.7105  1.5834 -0.2588
  732SOL     OW 2789   1.317   6.143   3.263 -0.1543  0.8128 -0.5178
  732SOL    HW1 2790   1.354   6.208   3.324 -0.8993  0.9143 -0.1682
  732SOL    HW2 2791   1.244   6.189   3.222 -1.5084 -0.2236  0.6908
  733SOL     OW 2792   6.968   2.896   3.919 -0.3432 -0.1521  0.4325
  733SOL    HW1 2793   7.002   2.963   3.977  0.4741  0.6639 -0.9515
  733SOL    HW2 2794   6.876   2.886   3.944 -0.0612  0.3455  1.6774
  734SOL     OW 2795   4.905   6.057   5.522 -0.1405  0.4973 -0.6010
  734SOL    HW1 2796   4.934   6.074   5.432 -1.3867  2.7451 -0.6292
  734SOL    HW2 2797   4.810   6.043   5.514 -0.2502  0.6663  0.3602
  735SOL     OW 2798   3.903   5.110   2.783 -0.3993  0.3400 -0.0071
  735SOL    HW1 2799   3.899   5.121   2.878  0.9586 -0.5289  0.1641
  735SOL    HW2 2800   3.985   5.152   2.757 -1.1810  1.3356 -0.9211
  736SOL     OW 2801   6.520   4.860   5.400  0.0886 -0.0528 -0.1906
  736SOL    HW1 2802   6.521   4.879   5.494  0.7623  3.6448 -0.8449
  736SOL    HW2 2803   6.429   4.868   5.374 -0.2036 -1.8092  0.2594
  737SOL     OW 2804   5.562   6.711   0.910 -0.0913  0.6968 -0.2903
  737SOL    HW1 2805   5.610   6.675   0.985 -2.4288 -0.0375  0.8824
  737SOL    HW2 2806   5.624   6.704   0.837  1.9405  0.7018  1.3839
  738SOL     OW 2807   5.041   2.553   1.912 -0.2978 -0.1890  0.4670
  738SOL    HW1 2808   5.107   2.544   1.843 -0.2115 -0.9930  0.6561
  738SOL    HW2 2809   4.982   2.622   1.880  0.0096 -0.2312 -0.1967
  739SOL     OW 2810   2.129   6.834   5.248  0.1800 -0.1409  0.0248
  739SOL    HW1 2811   2.131   6.738   5.257 -0.3707 -0.1372  0.2508
  739SOL    HW2 2812   2.112   6.848   5.155 -1.0669 -0.2934  0.2112
  740SOL     OW 2813   1.557   3.390   1.854 -0.2933  0.6133 -0.4862
  740SOL    HW1 2814   1.640   3.369   1.897 -1.0786  0.1001  0.8116
  740SOL    HW2 2815   1.582   3.422   1.767  1.2108 -0.5379 -0.5022
  741SOL     OW 2816   0.415   6.954   6.511 -0.1777 -0.2965  0.1962
  741SOL    HW1 2817   0.384   6.934   6.599  1.5480  2.2576  1.4381
  741SOL    HW2 2818   0.510   6.942   6.516 -0.0984 -0.4520 -1.4222
  742SOL     OW 2819   5.239   0.895   0.037 -0.1420 -1.0886  0.0832
  742SOL    HW1 2820   5.238   0.981  -0.006  0.4064 -0.9495  0.3454
  742SOL    HW2 2821   5.161   0.895   0.093 -0.6414 -1.1127 -0.5982
  743SOL     OW 2822   3.263   1.077   3.146 -0.3504 -0.5709 -0.2403
  743SOL    HW1 2823   3.280   1.003   3.088  2.4724  0.1450 -0.3720
  743SOL    HW2 2824   3.248   1.151   3.087  0.5298 -0.2615 -0.0764
  744SOL     OW 2825   1.553   6.025   3.160  0.1250  0.1033  0.1267
  744SOL    HW1 2826   1.570   6.040   3.253  2.9230  5.0267 -1.0173
  744SOL    HW2 2827   1.463   6.055   3.147 -0.1215 -0.1643  1.1287
  745SOL     OW 2828   3.360   5.327   2.657 -0.2509 -0.1422 -0.5925
  745SOL    HW1 2829   3.451   5.300   2.663 -0.2946  0.2063  2.8005
  745SOL    HW2 2830   3.363   5.421   2.637  0.1476 -0.0819 -0.2488
  746SOL     OW 2831   5.702   5.857   5.120  0.4065  0.2789  0.0476
  746SOL    HW1 2832   5.721   5.942   5.081  0.8249 -0.0596 -0.5079
  746SOL    HW2 2833   5.704   5.796   5.046 -1.0537 -0.0442  0.2646
  747SOL     OW 2834   5.223   5.575   2.874  0.2655 -0.5404 -0.5755
  747SOL    HW1 2835   5.241   5.529   2.956  0.4376  0.2941 -0.1390
  747SOL    HW2 2836   5.303   5.563   2.822  0.2328 -0.9046 -0.5427
  748SOL     OW 2837   4.597   0.654   7.165 -0.5864  0.7887  0.1123
  748SOL    HW1 2838   4.655   0.592   7.210 -1.3290 -0.3620 -0.5050
  748SOL    HW2 2839   4.521   0.663   7.223 -1.1348 -0.0010 -0.4761
  749SOL     OW 2840   2.850   7.059   1.096  0.3111 -0.1755 -0.1430
  749SOL    HW1 2841   2.942   7.035   1.104  0.1233 -0.3569  1.4500
  749SOL    HW2 2842   2.806   7.015   1.169 -0.8412  0.8762 -0.1848
  750SOL     OW 2843   6.074   3.783   1.042 -0.0620  0.3497  0.0101
  750SOL    HW1 2844   6.132   3.785   1.119  1.0326 -1.0655 -0.7537
  750SOL    HW2 2845   6.115   3.842   0.979 -0.4381  0.7639  0.1548
  751SOL     OW 2846   1.951   0.319   4.558  0.2235  0.0783 -0.0369
  751SOL    HW1 2847   1.922   0.391   4.502  0.4438  0.6270  0.5420
  751SOL    HW2 2848   2.041   0.301   4.530  0.1657  0.0216 -0.1875
  752SOL     OW 2849   4.817   2.535   4.773  0.0651  0.4692 -0.0188
  752SOL    HW1 2850   4.722   2.528   4.772  0.0806  0.2005 -1.0087
  752SOL    HW2 2851   4.838   2.577   4.689  0.8908 -0.7416 -0.4334
  753SOL     OW 2852   1.930   6.003   2.909  0.1587  0.1294 -0.4479
  753SOL    HW1 2853   1.934   5.919   2.953 -0.1493  1.3493  1.9984
  753SOL    HW2 2854   2.021   6.033   2.905  0.0196  0.7340  0.8107
  754SOL     OW 2855   7.128   3.352   1.294  0.4383 -0.3300 -0.1120
  754SOL    HW1 2856   7.112   3.258   1.306 -0.2672 -0.1106  0.6976
  754SOL    HW2 2857   7.078   3.375   1.216  1.4576 -0.8373 -0.9325
  755SOL     OW 2858   3.008   4.875   2.341 -0.3755 -0.9539  0.0540
  755SOL    HW1 2859   2.977   4.825   2.266  2.2192 -1.4493 -0.7257
  755SOL    HW2 2860   3.102   4.858   2.344 -0.0868  0.8236  2.0915
  756SOL     OW 2861   0.018   1.713   6.366 -0.5633 -0.5307 -0.1125
  756SOL    HW1 2862  -0.023   1.695   6.451 -0.5935 -0.5320 -0.1276
  756SOL    HW2 2863   0.091   1.652   6.362  1.8435  2.1326  1.6263
  757SOL     OW 2864   5.664   4.745   6.066 -0.9849 -0.3320 -0.5798
  757SOL    HW1 2865   5.589   4.689   6.089 -0.4043 -0.4793  1.0371
  757SOL    HW2 2866   5.721   4.741   6.143 -0.3641  1.5461 -0.9210
  758SOL     OW 2867   1.808   5.769   5.244  0.1491 -0.2496  0.0203
  758SOL    HW1 2868   1.857   5.724   5.313 -1.0928  1.2571  1.9356
  758SOL    HW2 2869   1.826   5.862   5.260 -2.5146  0.2668  0.1427
  759SOL     OW 2870   2.289   5.796   0.311  0.0477 -0.1551  0.2089
  759SOL    HW1 2871   2.304   5.839   0.395  1.1423  1.2012 -0.6631
  759SOL    HW2 2872   2.194   5.786   0.306 -0.0156 -0.5075  1.7183
  760SOL     OW 2873   4.614   5.119   4.922  0.5389 -0.3062 -0.2397
  760SOL    HW1 2874   4.635   5.071   4.842 -1.7738 -0.9926 -0.4920
  760SOL    HW2 2875   4.631   5.056   4.993  1.6765 -0.0205 -0.2601
  761SOL     OW 2876   4.470   5.494   5.392 -0.2609  0.7295 -0.0938
  761SOL    HW1 2877   4.410   5.459   5.327 -0.8075  0.4768  0.5418
  761SOL    HW2 2878   4.544   5.527   5.342 -1.2045  1.5987 -0.9381
  762SOL     OW 2879   0.205   4.563   2.649  0.4609  0.1944 -0.3461
  762SOL    HW1 2880   0.197   4.547   2.555  0.2445  0.8781 -0.4465
  762SOL    HW2 2881   0.262   4.640   2.655  0.1910  0.3615  0.0700
  763SOL     OW 2882   3.051   1.164   4.402  0.6664 -0.7273 -0.3950
  763SOL    HW1 2883   3.072   1.116   4.322  4.3062 -0.4039  0.2827
  763SOL    HW2 2884   3.007   1.244   4.371  2.8023 -0.1813 -2.1769
  764SOL     OW 2885   3.447   5.086   3.814  0.0188 -0.5528  0.1775
  764SOL    HW1 2886   3.474   5.168   3.771 -0.9685  0.7590  1.9737
  764SOL    HW2 2887   3.399   5.038   3.747 -0.1913  0.7702 -0.6296
  765SOL     OW 2888   5.362   0.642   0.263  0.5194 -0.1558 -0.4742
  765SOL    HW1 2889   5.433   0.659   0.325  0.2223  0.1861 -0.2240
  765SOL    HW2 2890   5.402   0.651   0.177  0.9683 -0.7731 -0.3310
  766SOL     OW 2891   2.593   0.007   0.698 -0.4816 -0.3732 -0.2275
  766SOL    HW1 2892   2.663   0.055   0.655 -0.8555 -1.5992 -2.3011
  766SOL    HW2 2893   2.634  -0.034   0.774  0.4851  0.8476 -0.0793
  767SOL     OW 2894   2.096   0.703   5.604  0.0305 -0.5541 -0.2334
  767SOL    HW1 2895   2.122   0.702   5.696  1.1391 -0.1967 -0.5334
  767SOL    HW2 2896   2.046   0.622   5.592  0.2328 -0.8015  0.5760
  768SOL     OW 2897   2.728   3.473   2.610  0.2205 -0.2572  0.2450
  768SOL    HW1 2898   2.706   3.383   2.588 -0.0737 -0.1828  0.2280
  768SOL    HW2 2899   2.816   3.469   2.647  0.2383 -0.5399  0.1690
  769SOL     OW 2900   0.587   3.991   5.906 -0.2405 -0.2342  0.1122
  769SOL    HW1 2901   0.538   3.951   5.834 -0.8440 -0.1562  0.4778
  769SOL    HW2 2902   0.620   4.073   5.870 -1.0140  0.0702  0.0950
  770SOL     OW 2903   3.881   3.061   6.567 -0.3167 -0.2906 -0.0605
  770SOL    HW1 2904   3.917   2.992   6.622 -0.8549 -1.2073 -0.8201
  770SOL    HW2 2905   3.819   3.107   6.623 -0.2114 -0.6537  0.3570
  771SOL     OW 2906   4.739   1.655   1.260 -0.2749  0.0016 -0.1445
  771SOL    HW1 2907   4.751   1.698   1.176  1.5078 -1.0260 -0.4418
  771SOL    HW2 2908   4.825   1.658   1.302 -1.3220  1.2732  2.0373
  772SOL     OW 2909   6.097   6.331   4.525  0.2757 -0.1145  0.0730
  772SOL    HW1 2910   6.072   6.317   4.434  0.2635 -0.4053  0.1202
  772SOL    HW2 2911   6.020   6.372   4.565  0.4560  0.4574 -0.1593
  773SOL     OW 2912   2.766   2.547   5.850 -0.7281  0.1773  0.0474
  773SOL    HW1 2913   2.780   2.544   5.944 -0.0440  0.5368 -0.0324
  773SOL    HW2 2914   2.850   2.576   5.815 -1.0876  0.3955 -0.6433
  774SOL     OW 2915   3.209   2.322   1.081 -0.2820  0.8685  0.1462
  774SOL    HW1 2916   3.297   2.335   1.118 -0.0012  1.4954 -0.7281
  774SOL    HW2 2917   3.154   2.302   1.156  0.7623 -0.2993  0.6236
  775SOL     OW 2918   2.549   3.948   3.471  0.5244  0.0803  0.0423
  775SOL    HW1 2919   2.580   3.968   3.382  0.4035  0.0688 -0.0023
  775SOL    HW2 2920   2.547   3.853   3.475 -3.0428  0.0094 -1.2187
  776SOL     OW 2921   1.578   5.101   4.634 -0.4862 -0.2546  0.3441
  776SOL    HW1 2922   1.663   5.145   4.627 -0.4788 -0.4368 -0.7498
  776SOL    HW2 2923   1.598   5.008   4.629 -0.9450 -0.2565 -2.3471
  777SOL     OW 2924   5.149   4.315   0.487 -0.2034  0.2675  0.3012
  777SOL    HW1 2925   5.152   4.333   0.581 -1.3440 -0.6473  0.5220
  777SOL    HW2 2926   5.194   4.390   0.447  0.3967  0.6024  1.5724
  778SOL     OW 2927   5.185   4.487   2.074 -0.0355  0.0608  0.1483
  778SOL    HW1 2928   5.218   4.563   2.123 -0.2981  1.5311 -1.8854
  778SOL    HW2 2929   5.259   4.426   2.072  1.3680  1.7179 -1.0839
  779SOL     OW 2930   3.657   5.649   3.217  0.0812 -0.1537  0.0874
  779SOL    HW1 2931   3.562   5.650   3.211  0.1547 -3.4017 -3.0423
  779SOL    HW2 2932   3.685   5.720   3.160 -0.4278  0.9901  1.2330
  780SOL     OW 2933   5.479   1.159   2.436 -0.0270  0.3559  0.6319
  780SOL    HW1 2934   5.549   1.130   2.378  0.7742  2.5716  0.4223
  780SOL    HW2 2935   5.459   1.083   2.490  0.5808 -1.1341 -1.2183
  781SOL     OW 2936   6.222   2.444   5.123 -0.0667 -0.0851 -0.3376
  781SOL    HW1 2937   6.216   2.384   5.197  0.8243 -0.1094 -0.2856
  781SOL    HW2 2938   6.237   2.388   5.047  1.2371  0.0924 -0.2244
  782SOL     OW 2939   1.899   4.871   1.882  0.0441  0.0077  0.2247
  782SOL    HW1 2940   1.880   4.923   1.804  0.5673 -0.0127  0.0848
  782SOL    HW2 2941   1.935   4.789   1.848 -2.8527 -1.3647  0.3435
  783SOL     OW 2942   1.656   2.819   1.025 -0.1649 -0.0996 -0.4309
  783SOL    HW1 2943   1.622   2.740   1.068  1.5717 -0.8668 -0.4292
  783SOL    HW2 2944   1.578   2.870   1.002 -1.2013  0.0386  3.0884
  784SOL     OW 2945   2.806   1.787   2.366  0.0406  0.1270  0.5065
  784SOL    HW1 2946   2.782   1.817   2.278  1.0134  0.3466  0.3121
  784SOL    HW2 2947   2.724   1.754   2.403 -0.0741 -1.5272 -1.1010
  785SOL     OW 2948   5.152   5.174   6.929 -0.3309 -0.4867  0.1382
  785SOL    HW1 2949   5.078   5.228   6.902 -1.1082 -1.7596 -0.3036
  785SOL    HW2 2950   5.125   5.135   7.012  0.0497 -0.5515  0.2336
  786SOL     OW 2951   0.369   4.946   4.084  0.7386  0.3642 -0.3010
  786SOL    HW1 2952   0.462   4.969   4.080  0.1379  2.7735 -1.0416
  786SOL    HW2 2953   0.364   4.861   4.040  2.7100 -0.2085  0.5213
  787SOL     OW 2954   3.260   4.104   2.616  0.4584 -0.7472 -0.1305
  787SOL    HW1 2955   3.245   4.029   2.559  2.0969 -0.6045 -0.7713
  787SOL    HW2 2956   3.205   4.173   2.580 -0.3706 -1.3718 -0.0693
  788SOL     OW 2957   3.980   2.368   3.345 -1.1820  0.1970  0.0856
  788SOL    HW1 2958   3.906   2.353   3.405 -1.8407 -1.2301 -1.0560
  788SOL    HW2 2959   3.943   2.422   3.275 -1.8155 -2.5118 -1.7393
  789SOL     OW 2960   3.960   1.684   5.622 -0.1969 -0.2041  0.2820
  789SOL    HW1 2961   3.923   1.672   5.709 -0.4869  1.6746  0.4526
  789SOL    HW2 2962   3.884   1.702   5.567  0.1963  0.9181  0.0975
  790SOL     OW 2963   2.748   5.970   2.847  0.3562 -0.0056 -1.0170
  790SOL    HW1 2964   2.740   5.877   2.826 -1.9409 -0.2704  0.8531
  790SOL    HW2 2965   2.658   6.002   2.848  0.8375  1.3909  2.1158
  791SOL     OW 2966   2.267   1.346   5.831  0.4880 -0.2212 -0.2447
  791SOL    HW1 2967   2.326   1.392   5.770  1.3815 -1.1300 -0.0754
  791SOL    HW2 2968   2.189   1.327   5.779  0.2390  1.1690 -0.4191
  792SOL     OW 2969   2.657   2.563   7.091  0.2784  0.5347  0.1675
  792SOL    HW1 2970   2.691   2.509   7.163 -0.4836  1.0811  0.9420
  792SOL    HW2 2971   2.694   2.650   7.107  0.7220  0.4783 -0.5337
  793SOL     OW 2972   3.432   2.161   6.625  0.0343 -0.2165 -0.2443
  793SOL    HW1 2973   3.506   2.120   6.580  1.3346  0.6951  1.0215
  793SOL    HW2 2974   3.401   2.228   6.564 -0.8715 -1.7347 -1.5010
  794SOL     OW 2975   2.106   0.799   2.312 -0.5434 -0.3885 -0.0528
  794SOL    HW1 2976   2.195   0.770   2.329  0.5785  3.4482  0.9525
  794SOL    HW2 2977   2.066   0.804   2.399 -0.8363  0.6565 -0.2432
  795SOL     OW 2978   7.175   5.823   5.375  0.3462 -0.6624 -0.1348
  795SOL    HW1 2979   7.113   5.769   5.325  0.1230 -0.0612 -0.5053
  795SOL    HW2 2980   7.243   5.847   5.311 -0.4391  0.9070 -0.3963
  796SOL     OW 2981   6.645   6.364   1.538 -0.4309  0.3381 -0.1634
  796SOL    HW1 2982   6.701   6.393   1.466 -1.3928  0.8344 -0.7202
  796SOL    HW2 2983   6.632   6.442   1.591 -0.0257  0.0595  0.3395
  797SOL     OW 2984   5.046   6.402   5.249  0.2976 -0.4174  0.0941
  797SOL    HW1 2985   5.072   6.429   5.161 -0.3782 -1.9027 -0.5811
  797SOL    HW2 2986   5.034   6.484   5.297  1.1149  0.3928 -1.0630
  798SOL     OW 2987   0.791   6.494   4.631  0.4229 -0.1360  0.5040
  798SOL    HW1 2988   0.777   6.539   4.715  0.4762 -1.1163  1.0524
  798SOL    HW2 2989   0.814   6.404   4.656 -2.3280 -1.2054 -0.5903
  799SOL     OW 2990   3.649   4.978   6.524 -0.2114  0.3381 -0.1300
  799SOL    HW1 2991   3.698   5.042   6.472 -0.2230 -0.6873 -1.4579
  799SOL    HW2 2992   3.692   4.977   6.609  0.1783  1.6509 -0.3074
  800SOL     OW 2993   6.192   3.718   1.959 -0.3495  0.3632  0.0701
  800SOL    HW1 2994   6.227   3.643   1.910  1.5143  0.5223  1.0993
  800SOL    HW2 2995   6.244   3.793   1.929 -1.4657  1.0731 -0.1461
  801SOL     OW 2996   5.631   2.780   1.517 -0.0817 -0.1395 -0.5049
  801SOL    HW1 2997   5.678   2.757   1.597 -1.8780 -2.1847  0.0060
  801SOL    HW2 2998   5.681   2.737   1.447  0.3342 -0.0448 -0.2657
  802SOL     OW 2999   6.098   1.264   6.582  0.1043  0.3267 -0.3895
  802SOL    HW1 3000   6.096   1.335   6.646  2.0405 -0.7233  0.8783
  802SOL    HW2 3001   6.155   1.198   6.621 -1.0138 -1.5972 -1.9139
  803SOL     OW 3002   4.577   3.316   1.675  0.0140  0.2833  0.2546
  803SOL    HW1 3003   4.560   3.383   1.609 -1.9234 -0.6281 -0.2068
  803SOL    HW2 3004   4.544   3.355   1.756  1.8705  1.1702  0.6171
  804SOL     OW 3005   4.631   3.441   3.039  0.7944 -0.2255  0.0540
  804SOL    HW1 3006   4.716   3.432   3.083  0.5026 -1.5338  0.3961
  804SOL    HW2 3007   4.593   3.353   3.044 -0.7371  0.4355  0.2108
  805SOL     OW 3008   4.661   2.573   3.386 -0.3944 -1.2476 -0.1665
  805SOL    HW1 3009   4.671   2.643   3.450 -1.2226  0.3547 -1.7337
  805SOL    HW2 3010   4.643   2.619   3.304 -1.9555 -3.3479 -1.0229
  806SOL     OW 3011   3.634   0.356   0.502  0.3840  0.3187 -0.4307
  806SOL    HW1 3012   3.682   0.411   0.564  0.0240  0.7946 -0.5787
  806SOL    HW2 3013   3.687   0.357   0.423  1.4158 -1.1756  0.2107
  807SOL     OW 3014   4.983   6.385   2.606  0.6631 -0.0587 -0.2646
  807SOL    HW1 3015   4.890   6.405   2.612  1.2267  3.0494 -0.6702
  807SOL    HW2 3016   5.010   6.371   2.697  0.0622  0.3548 -0.0167
  808SOL     OW 3017   6.488   7.164   5.181 -0.5584 -0.2764 -0.4457
  808SOL    HW1 3018   6.562   7.213   5.216 -1.1635  0.4844 -0.2169
  808SOL    HW2 3019   6.518   7.073   5.178  0.9610  0.2392 -1.8727
  809SOL     OW 3020   1.858   2.504   4.019  0.2092 -0.0341 -0.2097
  809SOL    HW1 3021   1.882   2.534   3.931  1.0200 -0.4657 -0.1322
  809SOL    HW2 3022   1.802   2.574   4.053  2.0081  1.3621 -0.0752
  810SOL     OW 3023   0.514   0.088   3.962 -0.1247  0.5730 -0.7430
  810SOL    HW1 3024   0.546  -0.000   3.947  0.8427  0.5444  1.3358
  810SOL    HW2 3025   0.419   0.080   3.959 -0.0464 -0.5880 -0.2971
  811SOL     OW 3026   4.916   5.510   3.610 -0.0867  0.3694 -0.3285
  811SOL    HW1 3027   4.914   5.429   3.660 -0.9642  0.9933  0.6797
  811SOL    HW2 3028   4.871   5.489   3.528 -1.6676  0.2197  0.5501
  812SOL     OW 3029   0.659   2.398   5.996 -0.4222 -0.3168 -0.4620
  812SOL    HW1 3030   0.636   2.366   6.084  1.0069  0.2563  0.1363
  812SOL    HW2 3031   0.575   2.427   5.959 -1.1193 -0.9964  0.5266
  813SOL     OW 3032   0.698   1.132   6.821 -0.4314  0.1513 -0.5915
  813SOL    HW1 3033   0.646   1.133   6.901  1.4659  2.7735  0.6977
  813SOL    HW2 3034   0.692   1.042   6.788 -1.5066 -0.8803  2.3185
  814SOL     OW 3035   2.114   2.567   6.096  0.0786  0.6095 -0.1445
  814SOL    HW1 3036   2.142   2.649   6.137 -0.8211  0.2802  1.1439
  814SOL    HW2 3037   2.194   2.513   6.095  0.4507  1.1548 -0.1478
  815SOL     OW 3038   5.302   2.108   4.742  0.1870  0.1309 -0.2521
  815SOL    HW1 3039   5.285   2.058   4.822 -0.8993 -0.0156 -0.5728
  815SOL    HW2 3040   5.309   2.198   4.772  2.4316 -0.2289  0.3684
  816SOL     OW 3041   1.403   0.550   3.572 -0.0126 -0.0822 -0.0573
  816SOL    HW1 3042   1.314   0.584   3.570  0.0717  0.1066 -0.8452
  816SOL    HW2 3043   1.425   0.535   3.480  1.0266  0.5877  0.0680
  817SOL     OW 3044   6.484   1.325   1.609  0.6565  1.0603  0.2143
  817SOL    HW1 3045   6.509   1.309   1.700  0.7652  0.6352  0.1110
  817SOL    HW2 3046   6.436   1.408   1.612 -0.5445  0.3730  0.8722
  818SOL     OW 3047   2.785   1.569   5.002  0.3083 -0.0436 -0.0087
  818SOL    HW1 3048   2.780   1.555   4.907  0.5856 -0.0565 -0.0214
  818SOL    HW2 3049   2.871   1.609   5.016 -0.1578  0.9280  0.1181
  819SOL     OW 3050   1.610   6.354   0.196 -0.6641 -0.6365 -0.0735
  819SOL    HW1 3051   1.579   6.381   0.110  0.9274 -0.4793 -0.6246
  819SOL    HW2 3052   1.590   6.261   0.201 -0.3569 -0.7483 -0.8112
  820SOL     OW 3053   5.762   1.601   3.283 -0.3694  0.3617 -0.1800
  820SOL    HW1 3054   5.805   1.639   3.360 -1.3460 -0.1979  0.6606
  820SOL    HW2 3055   5.813   1.522   3.264 -0.9575 -0.2496  0.7515
  821SOL     OW 3056   3.977   6.618   6.027  0.2032  0.2443  0.4310
  821SOL    HW1 3057   3.888   6.641   6.052 -0.5383 -2.0688 -0.0052
  821SOL    HW2 3058   4.019   6.594   6.110  0.1610  0.4891  0.5229
  822SOL     OW 3059   7.256   3.118   1.874  0.2403 -0.5740  0.3096
  822SOL    HW1 3060   7.160   3.113   1.871  0.2900 -1.3564 -0.1197
  822SOL    HW2 3061   7.284   3.030   1.900  0.9163 -0.8386 -1.2896
  823SOL     OW 3062   2.003   5.908   1.267  1.0780  0.4956 -0.3031
  823SOL    HW1 3063   2.023   5.996   1.234 -0.5751  0.3902 -1.6157
  823SOL    HW2 3064   2.037   5.849   1.199  0.7242  0.1656 -0.1927
  824SOL     OW 3065   0.456   4.712   0.039  0.1035  0.2334  0.5218
  824SOL    HW1 3066   0.482   4.648  -0.028  0.5388  0.0376  0.8790
  824SOL    HW2 3067   0.539   4.741   0.077 -0.0620  1.3743  0.0199
  825SOL     OW 3068   6.592   2.529   5.073  0.4396  0.4694 -0.4001
  825SOL    HW1 3069   6.530   2.527   5.000 -0.5537  0.1876  0.4470
  825SOL    HW2 3070   6.648   2.453   5.058 -0.4549 -0.2216 -0.2688
  826SOL     OW 3071   5.769   3.703   2.655  0.1161 -0.1891 -0.0970
  826SOL    HW1 3072   5.811   3.638   2.598 -2.8014 -0.9952 -1.4413
  826SOL    HW2 3073   5.780   3.668   2.743 -1.1805 -2.4498 -0.7822
  827SOL     OW 3074   6.827   5.395   4.661 -0.0647 -0.2593  0.2852
  827SOL    HW1 3075   6.872   5.405   4.577 -0.1348 -1.4747  0.0979
  827SOL    HW2 3076   6.869   5.458   4.719 -0.4966  1.1060 -0.8572
  828SOL     OW 3077   4.574   6.056   5.093  0.5564  0.8659 -0.1414
  828SOL    HW1 3078   4.605   6.087   5.178 -0.7875  2.7353 -0.3064
  828SOL    HW2 3079   4.482   6.034   5.108  1.3992 -2.9923 -0.0694
  829SOL     OW 3080   3.483   6.166   0.320 -0.2199 -0.3467  0.1102
  829SOL    HW1 3081   3.497   6.224   0.395  0.0278 -0.3060  0.0351
  829SOL    HW2 3082   3.521   6.213   0.246  1.6127 -1.3779  0.3575
  830SOL     OW 3083   7.172   5.859   1.089 -0.2993 -0.4806  0.2383
  830SOL    HW1 3084   7.145   5.818   1.171 -0.8757  0.9657  0.7996
  830SOL    HW2 3085   7.105   5.926   1.073  0.1193 -0.3752 -1.1153
  831SOL     OW 3086   2.502   6.818   4.609 -0.3979 -0.4219 -0.0444
  831SOL    HW1 3087   2.420   6.798   4.654  0.7362 -1.7600  1.5105
  831SOL    HW2 3088   2.492   6.780   4.522 -2.1023  0.9939 -0.4979
  832SOL     OW 3089   1.272   6.593   3.503  0.4213  0.0737  0.3072
  832SOL    HW1 3090   1.323   6.512   3.495  0.4604  0.2101 -0.8787
  832SOL    HW2 3091   1.253   6.599   3.597  0.0285 -1.5368  0.3551
  833SOL     OW 3092   6.949   0.371   0.458 -0.1627 -0.0815  0.0403
  833SOL    HW1 3093   7.042   0.387   0.470 -0.1198 -0.4456  0.2036
  833SOL    HW2 3094   6.913   0.371   0.547 -0.9567  3.8673 -0.2185
  834SOL     OW 3095   3.906   3.772   2.106  0.8342 -0.4639 -0.1367
  834SOL    HW1 3096   3.940   3.861   2.113  2.1715 -0.9408 -0.4304
  834SOL    HW2 3097   3.812   3.780   2.125  0.3849  1.4105 -2.9213
  835SOL     OW 3098   5.566   5.968   6.279  0.2398 -0.4586 -0.6737
  835SOL    HW1 3099   5.591   5.898   6.340  1.3027  1.1100  0.7325
  835SOL    HW2 3100   5.551   5.922   6.196  0.2031 -2.4510  0.3904
  836SOL     OW 3101   1.059   6.043   7.256  0.4919  0.3148 -0.2096
  836SOL    HW1 3102   1.136   6.025   7.201  0.7195  2.4090 -0.5923
  836SOL    HW2 3103   0.985   6.037   7.195  0.4672 -0.2748 -0.1288
  837SOL     OW 3104   1.794   0.238   3.546 -0.4781 -0.3270  0.4165
  837SOL    HW1 3105   1.743   0.224   3.466 -0.7571  0.1079  0.5162
  837SOL    HW2 3106   1.756   0.316   3.586  0.6935  0.3962  0.1521
  838SOL     OW 3107   3.162   0.915   1.265  0.4860 -0.2784 -0.0851
  838SOL    HW1 3108   3.255   0.904   1.243  0.4702  0.2960 -0.4263
  838SOL    HW2 3109   3.116   0.869   1.196  0.5314 -1.1903  0.4759
  839SOL     OW 3110   3.567   5.900   3.510  0.0917  0.8029  0.5064
  839SOL    HW1 3111   3.647   5.847   3.501  1.0216  2.0736  1.1092
  839SOL    HW2 3112   3.531   5.874   3.595 -0.8640 -0.7167 -0.3378
  840SOL     OW 3113   3.972   3.493   2.056 -0.1201 -0.2070  0.6308
  840SOL    HW1 3114   3.891   3.451   2.026  0.9182 -2.6010  1.0758
  840SOL    HW2 3115   3.944   3.577   2.090 -1.6895  1.7363 -4.8478
  841SOL     OW 3116   4.490   2.970   3.797  0.1036 -0.0247 -0.2503
  841SOL    HW1 3117   4.466   2.880   3.818 -1.7115  0.7703  1.2722
  841SOL    HW2 3118   4.478   2.976   3.702 -0.9716 -1.0568 -0.1930
  842SOL     OW 3119   2.647   4.597   2.912 -0.3477  0.4399 -0.0373
  842SOL    HW1 3120   2.701   4.525   2.946 -0.8760  0.2664  0.4405
  842SOL    HW2 3121   2.573   4.553   2.870 -0.2274  0.6866 -0.5174
  843SOL     OW 3122   3.010   5.581   2.004 -0.2686  0.3111 -0.5399
  843SOL    HW1 3123   2.939   5.600   1.943 -0.0639  0.5914 -0.6930
  843SOL    HW2 3124   2.985   5.498   2.045 -0.6965  0.4252 -0.5713
  844SOL     OW 3125   1.989   5.865   2.188  0.2225 -0.1029  0.6452
  844SOL    HW1 3126   1.929   5.816   2.130  0.0609  0.0207  0.7088
  844SOL    HW2 3127   1.998   5.951   2.146 -0.3214  0.1746  1.0898
  845SOL     OW 3128   5.784   1.130   5.876  0.1192 -0.0848 -0.0338
  845SOL    HW1 3129   5.781   1.216   5.833  3.9096  1.2359  2.1735
  845SOL    HW2 3130   5.838   1.076   5.818  0.1002 -0.1518  0.0106
  846SOL     OW 3131   0.444   2.760   0.202 -0.4947 -0.0659 -0.8288
  846SOL    HW1 3132   0.376   2.713   0.154 -0.6817  1.2840 -1.9143
  846SOL    HW2 3133   0.516   2.770   0.139 -0.5413  1.2687 -0.6911
  847SOL     OW 3134   4.428   4.392   0.631  0.3219  0.5721  0.6484
  847SOL    HW1 3135   4.502   4.403   0.691 -0.4166 -0.0844  1.6863
  847SOL    HW2 3136   4.458   4.327   0.567  1.0874  1.2376  0.3149
  848SOL     OW 3137   5.383   1.415   1.538 -0.0805 -0.1470  0.0505
  848SOL    HW1 3138   5.344   1.419   1.450 -0.0324 -0.2874  0.0221
  848SOL    HW2 3139   5.372   1.503   1.573 -1.0757 -0.3765  0.3241
  849SOL     OW 3140   6.702   6.743   2.519  0.0397  0.1466 -0.1298
  849SOL    HW1 3141   6.638   6.690   2.472  0.2714 -0.2432 -0.0087
  849SOL    HW2 3142   6.659   6.767   2.601  0.4590 -1.0660  0.4548
  850SOL     OW 3143   2.960   4.694   4.645 -0.4565  0.5809 -0.2576
  850SOL    HW1 3144   2.925   4.770   4.692  0.3613  2.5038 -2.6001
  850SOL    HW2 3145   3.055   4.711   4.641 -0.2704 -0.5698 -0.7724
  851SOL     OW 3146   0.524   2.508   2.628  0.0816 -0.1642  0.4049
  851SOL    HW1 3147   0.472   2.585   2.605  0.3451 -0.4085 -1.0255
  851SOL    HW2 3148   0.579   2.538   2.700 -1.0341  0.4958  1.0017
  852SOL     OW 3149   0.703   5.298   6.946 -0.0935 -0.1203  0.8689
  852SOL    HW1 3150   0.763   5.224   6.946  1.9314  1.4832  1.5218
  852SOL    HW2 3151   0.651   5.287   6.866  1.7496 -1.0079 -0.2365
  853SOL     OW 3152   6.802   5.388   6.980  0.3502  0.4678  0.2531
  853SOL    HW1 3153   6.803   5.451   6.908  2.2517 -0.3490 -0.4407
  853SOL    HW2 3154   6.740   5.321   6.953 -0.9375  1.5058  0.5625
  854SOL     OW 3155   6.310   5.801   4.146 -0.3584 -0.1308  0.2383
  854SOL    HW1 3156   6.240   5.737   4.134 -0.0210 -0.2157 -1.3867
  854SOL    HW2 3157   6.353   5.775   4.227 -0.9065 -1.3079  0.1584
  855SOL     OW 3158   5.010   4.599   4.583  0.7011  0.2243 -0.1272
  855SOL    HW1 3159   5.073   4.593   4.511  0.5590  1.4281 -0.3597
  855SOL    HW2 3160   4.980   4.509   4.595 -0.7294  0.2524 -2.9134
  856SOL     OW 3161   3.155   3.412   6.160 -0.3007  0.1789 -0.2914
  856SOL    HW1 3162   3.155   3.324   6.198  0.9991 -0.6124 -2.0680
  856SOL    HW2 3163   3.218   3.461   6.213 -0.4936 -0.1565  0.2517
  857SOL     OW 3164   4.609   4.048   5.364 -0.1825  0.6544  0.0542
  857SOL    HW1 3165   4.645   4.123   5.317  0.0755  0.9856  0.7748
  857SOL    HW2 3166   4.631   4.064   5.456 -1.1470  0.2817  0.3545
  858SOL     OW 3167   3.941   4.861   4.164  0.7823  0.8005 -0.2670
  858SOL    HW1 3168   4.029   4.896   4.174  1.2942 -0.5761  0.1951
  858SOL    HW2 3169   3.941   4.781   4.217 -1.0262  1.2660  0.5019
  859SOL     OW 3170   6.916   5.995   6.293  0.1687 -0.5060  0.1186
  859SOL    HW1 3171   6.854   6.051   6.247  1.6954  0.2653 -1.0372
  859SOL    HW2 3172   6.939   5.928   6.229 -0.4179 -1.5506  0.9660
  860SOL     OW 3173   4.800   3.178   1.571 -0.2545 -0.4143 -0.0794
  860SOL    HW1 3174   4.732   3.244   1.555  0.0388 -0.1996 -0.4450
  860SOL    HW2 3175   4.796   3.163   1.666  0.3446  0.8694  0.1582
  861SOL     OW 3176   0.074   5.067   5.741 -0.5312  0.2704 -1.1649
  861SOL    HW1 3177   0.166   5.052   5.761 -0.9351 -0.7604 -0.0559
  861SOL    HW2 3178   0.036   5.099   5.822 -0.9599  1.6118 -1.8803
  862SOL     OW 3179   3.256   3.988   4.053 -0.6592 -0.2266  0.5266
  862SOL    HW1 3180   3.250   4.043   4.132  0.5676  0.6334  0.0369
  862SOL    HW2 3181   3.265   4.051   3.981 -1.3465 -1.0212 -0.2654
  863SOL     OW 3182   0.826   3.562   3.965 -0.0881  0.0772  0.5789
  863SOL    HW1 3183   0.889   3.555   3.893  0.4005 -1.9184  1.1643
  863SOL    HW2 3184   0.867   3.622   4.026  1.0083 -0.7686  0.6925
  864SOL     OW 3185   4.059   0.717   5.771  0.2522 -0.0615  0.1685
  864SOL    HW1 3186   4.068   0.651   5.703  1.8929  2.0012 -1.6779
  864SOL    HW2 3187   4.133   0.702   5.830 -1.2881 -1.9841  1.6966
  865SOL     OW 3188   4.706   3.303   7.226  0.0564  0.0250  0.1045
  865SOL    HW1 3189   4.615   3.314   7.198 -0.2642  1.7016  1.7079
  865SOL    HW2 3190   4.757   3.342   7.156 -0.5941  1.4358  0.3985
  866SOL     OW 3191   0.880   5.871   3.995 -0.5413  0.0725 -0.3022
  866SOL    HW1 3192   0.937   5.908   4.063 -0.0971 -1.5490  0.2331
  866SOL    HW2 3193   0.928   5.888   3.913  1.0306 -1.7533  0.1886
  867SOL     OW 3194   1.119   0.451   3.810 -0.0121 -0.4020  0.0231
  867SOL    HW1 3195   1.188   0.462   3.875  0.4831 -1.7292 -0.2577
  867SOL    HW2 3196   1.043   0.423   3.861 -0.0089 -0.0945  0.1961
  868SOL     OW 3197   4.883   4.165   1.781  0.1925  0.2357 -0.4126
  868SOL    HW1 3198   4.959   4.115   1.751 -0.6046 -1.5461  0.4482
  868SOL    HW2 3199   4.809   4.130   1.730 -0.8899 -1.6571  2.2943
  869SOL     OW 3200   2.169   1.257   3.742 -0.3145 -0.0955 -0.2663
  869SOL    HW1 3201   2.097   1.194   3.746 -0.9436  0.6619  0.3666
  869SOL    HW2 3202   2.204   1.259   3.831 -1.2424  1.5302  0.0898
  870SOL     OW 3203   3.314   3.653   5.227 -0.1143  0.0307 -0.7029
  870SOL    HW1 3204   3.222   3.680   5.232 -0.2448 -0.5971  0.7596
  870SOL    HW2 3205   3.353   3.690   5.306  0.8361  0.0897 -1.2024
  871SOL     OW 3206   5.658   5.791   2.878  0.0614  0.0414 -0.6596
  871SOL    HW1 3207   5.745   5.781   2.915 -0.7328  1.2649  1.6269
  871SOL    HW2 3208   5.673   5.831   2.792  1.7385  0.4205 -0.2017
  872SOL     OW 3209   2.520   2.645   6.125 -0.4889  0.3841  0.1018
  872SOL    HW1 3210   2.589   2.683   6.071 -0.8726 -1.5553 -1.7822
  872SOL    HW2 3211   2.563   2.624   6.208  0.6227  1.3120 -0.2238
  873SOL     OW 3212   0.912   5.850   2.898 -0.2462  0.0486  0.2886
  873SOL    HW1 3213   0.941   5.941   2.892  0.5234 -0.0941  1.8622
  873SOL    HW2 3214   0.878   5.840   2.987 -1.0369 -1.0026 -0.1088
  874SOL     OW 3215   6.551   1.832   6.368  0.1673  0.5645 -0.2337
  874SOL    HW1 3216   6.572   1.762   6.305 -2.7212  2.1365 -3.0770
  874SOL    HW2 3217   6.620   1.897   6.355  1.4849 -0.6194  0.6829
  875SOL     OW 3218   4.954   2.303   4.859 -0.2854  0.1364 -0.3617
  875SOL    HW1 3219   4.910   2.261   4.933  0.9738  0.2383  0.4680
  875SOL    HW2 3220   4.893   2.371   4.830 -1.7799 -1.3961 -0.8912
  876SOL     OW 3221   2.343   0.139   4.029 -0.0748  0.3656  0.1177
  876SOL    HW1 3222   2.406   0.209   4.048  1.0100 -1.1557  2.4977
  876SOL    HW2 3223   2.258   0.175   4.055  0.3621  1.0863  0.5686
  877SOL     OW 3224   6.582   2.231   1.907  0.0512  0.7043  0.2957
  877SOL    HW1 3225   6.607   2.201   1.994  0.5531 -0.1437 -0.1242
  877SOL    HW2 3226   6.529   2.159   1.871  1.5596  0.1340 -0.8606
  878SOL     OW 3227   6.048   4.508   2.884  0.2939  0.2895 -0.7185
  878SOL    HW1 3228   6.070   4.561   2.808  0.6327 -0.2681 -1.0125
  878SOL    HW2 3229   6.096   4.426   2.871  0.4882  0.2561  0.1769
  879SOL     OW 3230   5.895   6.626   1.294 -0.3559  0.2189  0.4835
  879SOL    HW1 3231   5.826   6.645   1.231  1.0234  1.0683 -0.8223
  879SOL    HW2 3232   5.849   6.594   1.372 -2.0411 -2.1408 -1.3933
  880SOL     OW 3233   4.017   4.676   4.463  0.2567 -0.1481  0.2778
  880SOL    HW1 3234   4.075   4.751   4.449 -0.0054  0.0678  0.3231
  880SOL    HW2 3235   4.053   4.633   4.541  1.7338 -1.3749 -1.0630
  881SOL     OW 3236   1.970   6.654   2.966 -0.3855  0.2803  0.2251
  881SOL    HW1 3237   1.975   6.570   2.919  1.8659  0.7745 -0.4402
  881SOL    HW2 3238   1.915   6.709   2.909  0.0403 -0.0032 -0.4689
  882SOL     OW 3239   4.393   2.022   0.432  0.0891 -0.3158  0.2755
  882SOL    HW1 3240   4.301   2.028   0.408  0.5717  0.3944 -1.5137
  882SOL    HW2 3241   4.410   1.929   0.443 -0.2756 -0.6187 -1.7041
  883SOL     OW 3242   1.726   4.814   4.625  0.7320 -0.6386  0.2988
  883SOL    HW1 3243   1.789   4.758   4.670  0.3012 -0.7339  0.7803
  883SOL    HW2 3244   1.657   4.830   4.689  1.6694  1.8449  0.7849
  884SOL     OW 3245   3.574   6.327   0.121 -0.5087 -0.7636 -0.1531
  884SOL    HW1 3246   3.568   6.310   0.027 -1.0154  0.9159 -0.4475
  884SOL    HW2 3247   3.540   6.416   0.131 -1.8867 -1.4657  1.8077
  885SOL     OW 3248   6.478   7.133   5.956  0.1587  0.4203  0.4294
  885SOL    HW1 3249   6.536   7.097   5.889  1.2667  1.1549  0.9791
  885SOL    HW2 3250   6.448   7.216   5.918  0.3877  0.5943  0.6288
  886SOL     OW 3251   3.604   2.610   5.486 -0.3728  0.1189  0.0754
  886SOL    HW1 3252   3.658   2.621   5.407  1.2575 -0.2788  1.1039
  886SOL    HW2 3253   3.634   2.679   5.545  0.6576 -1.5288  1.5263
  887SOL     OW 3254   4.960   0.138   2.930  0.3328 -0.0466 -0.6286
  887SOL    HW1 3255   4.925   0.087   3.003  0.8784 -0.3516 -0.5780
  887SOL    HW2 3256   4.895   0.206   2.916 -0.6391 -1.0301 -1.0013
  888SOL     OW 3257   4.527   3.797   4.163 -0.1201 -0.4940 -0.9805
  888SOL    HW1 3258   4.459   3.839   4.216 -0.5975 -1.3780 -0.8765
  888SOL    HW2 3259   4.607   3.807   4.214  0.1606  1.9380 -1.8184
  889SOL     OW 3260   3.990   0.880   5.100 -0.1757 -0.4934 -1.0183
  889SOL    HW1 3261   4.029   0.793   5.087 -0.7035 -0.7891 -0.6550
  889SOL    HW2 3262   4.017   0.904   5.189  0.2365 -0.1438 -1.2364
  890SOL     OW 3263   6.732   5.986   5.277 -0.1061  0.4015 -0.1195
  890SOL    HW1 3264   6.765   5.901   5.303  0.0728  0.6832  0.5786
  890SOL    HW2 3265   6.702   5.974   5.187  2.1422  0.1933 -0.8724
  891SOL     OW 3266   4.627   4.122   0.899 -0.2390  0.2041 -0.2175
  891SOL    HW1 3267   4.590   4.039   0.869 -0.7946  0.0087  0.9927
  891SOL    HW2 3268   4.696   4.097   0.960  1.1667  0.5951 -1.5837
  892SOL     OW 3269   5.947   5.277   4.297  0.0100 -0.1753  0.1617
  892SOL    HW1 3270   5.885   5.211   4.328  0.2862  0.1846  1.5097
  892SOL    HW2 3271   5.916   5.298   4.208 -1.3066 -0.6054  0.5017
  893SOL     OW 3272   1.584   6.534   3.704  0.5112  0.1192 -0.1790
  893SOL    HW1 3273   1.669   6.523   3.746  0.1628  1.7638  1.0357
  893SOL    HW2 3274   1.532   6.460   3.733  1.2046 -0.3363 -0.1000
  894SOL     OW 3275   3.758   2.675   6.428 -0.1763  0.0143  0.1389
  894SOL    HW1 3276   3.672   2.643   6.457 -0.5229 -0.7769 -1.7053
  894SOL    HW2 3277   3.751   2.770   6.430 -0.7743 -0.0422  0.9156
  895SOL     OW 3278   6.302   1.033   2.559  0.1182 -0.2853  0.4813
  895SOL    HW1 3279   6.261   1.120   2.556  1.0193  0.1523  1.0506
  895SOL    HW2 3280   6.232   0.974   2.530 -0.5767  0.5937  0.3280
  896SOL     OW 3281   1.378   4.872   0.301  0.4394  0.4885  0.0358
  896SOL    HW1 3282   1.308   4.808   0.294  1.4815 -0.6354 -0.3325
  896SOL    HW2 3283   1.338   4.948   0.343 -1.1993  0.1885 -0.9573
  897SOL     OW 3284   3.067   3.972   5.902  0.1620  0.0275  0.3538
  897SOL    HW1 3285   3.044   3.930   5.819 -0.7001 -1.9369  1.5319
  897SOL    HW2 3286   3.022   4.056   5.900 -3.2101 -1.6828  0.5118
  898SOL     OW 3287   3.645   2.528   0.828  0.0804  0.0123  0.8830
  898SOL    HW1 3288   3.673   2.568   0.746 -1.1384  1.1023  0.9845
  898SOL    HW2 3289   3.551   2.542   0.830 -0.2170 -1.9230  1.4455
  899SOL     OW 3290   3.864   7.200   6.705  0.4608  0.0973 -0.0619
  899SOL    HW1 3291   3.805   7.274   6.688 -0.8609 -0.9141  0.0368
  899SOL    HW2 3292   3.807   7.123   6.700  2.1189 -1.0581 -1.7533
  900SOL     OW 3293   1.841   5.226   3.589 -0.2777 -0.0618  0.3447
  900SOL    HW1 3294   1.923   5.276   3.580  0.2205 -1.0657 -0.7219
  900SOL    HW2 3295   1.783   5.263   3.523  0.2824 -1.2534 -0.8334
  901SOL     OW 3296   2.975   6.824   0.821  0.0077  0.3950  0.2672
  901SOL    HW1 3297   2.880   6.835   0.833  0.1202  1.1286  0.5492
  901SOL    HW2 3298   3.009   6.812   0.909  0.2378  0.6687  0.2164
  902SOL     OW 3299   6.402   3.084   4.802  0.3975  0.1335  0.4663
  902SOL    HW1 3300   6.488   3.071   4.842  0.3514 -0.3040  0.4326
  902SOL    HW2 3301   6.413   3.159   4.743  0.1144  1.6609  2.3199
  903SOL     OW 3302   0.712   2.776   4.551  0.5136  0.3073  0.2239
  903SOL    HW1 3303   0.645   2.755   4.486  1.2802 -0.3039 -0.3673
  903SOL    HW2 3304   0.794   2.743   4.514  0.6635 -1.8777  2.3744
  904SOL     OW 3305   1.368   1.096   0.913  0.2754  0.7897  0.3379
  904SOL    HW1 3306   1.281   1.102   0.952 -0.6400 -1.8371 -1.2243
  904SOL    HW2 3307   1.408   1.020   0.956  1.1320  0.9122 -0.2285
  905SOL     OW 3308   3.238   1.612   4.885 -0.3611 -0.0211  0.1023
  905SOL    HW1 3309   3.280   1.541   4.933 -1.2138 -1.1999 -0.8403
  905SOL    HW2 3310   3.307   1.675   4.869  0.0561  0.1157  2.3534
  906SOL     OW 3311   0.622   5.919   5.624 -0.2300 -0.5094 -0.3023
  906SOL    HW1 3312   0.560   5.855   5.590  0.4264 -1.2210 -0.1928
  906SOL    HW2 3313   0.570   5.996   5.644 -1.7133 -2.2641  3.0674
  907SOL     OW 3314   6.635   5.358   5.175 -0.1059  0.2055  0.3451
  907SOL    HW1 3315   6.712   5.325   5.221 -0.4089 -0.3063  0.4873
  907SOL    HW2 3316   6.566   5.295   5.196 -0.1302 -0.3045 -1.2204
  908SOL     OW 3317   5.930   0.307   6.011 -0.2504 -0.2162  0.2090
  908SOL    HW1 3318   5.958   0.228   6.057 -0.8963 -0.0570  0.8692
  908SOL    HW2 3319   5.837   0.315   6.029  0.1052  1.5502  1.4360
  909SOL     OW 3320   3.688   1.578   2.853 -0.0052 -0.0746  0.8820
  909SOL    HW1 3321   3.651   1.635   2.920 -0.0500 -0.6576  1.3544
  909SOL    HW2 3322   3.778   1.563   2.881  1.2087  2.8060 -1.1923
  910SOL     OW 3323   1.286   1.384   2.723  0.1622 -0.0520  0.5481
  910SOL    HW1 3324   1.191   1.378   2.732  0.1141 -1.9873 -0.9213
  910SOL    HW2 3325   1.319   1.370   2.811 -0.9379  1.2618  1.1783
  911SOL     OW 3326   3.701   3.359   4.477  0.1723  0.3624 -0.1198
  911SOL    HW1 3327   3.793   3.381   4.465  0.5588 -0.6611  0.8964
  911SOL    HW2 3328   3.693   3.338   4.570 -1.0963  0.4856 -0.1890
  912SOL     OW 3329   6.873   5.813   6.501 -0.1704 -0.1103  0.5122
  912SOL    HW1 3330   6.788   5.844   6.531 -0.5143 -0.8708  0.3396
  912SOL    HW2 3331   6.908   5.885   6.449 -0.1569  0.6995  1.6174
  913SOL     OW 3332   3.223   5.274   6.107 -0.2105  0.3332  0.1429
  913SOL    HW1 3333   3.286   5.333   6.149 -1.3484  0.0063  2.3494
  913SOL    HW2 3334   3.209   5.204   6.171 -1.6039 -0.4426 -0.9829
  914SOL     OW 3335   0.060   2.941   1.540  0.3315 -0.2598 -0.2789
  914SOL    HW1 3336   0.076   3.031   1.570 -0.3457 -0.3275  0.3021
  914SOL    HW2 3337   0.140   2.917   1.495  1.2305 -0.0040  1.1297
  915SOL     OW 3338   6.916   1.082   7.249 -0.4676  0.6201 -0.5443
  915SOL    HW1 3339   6.958   1.113   7.169 -1.0995  2.0873 -0.3098
  915SOL    HW2 3340   6.983   1.028   7.291  0.3760  1.0582 -1.3054
  916SOL     OW 3341   3.056   0.372   3.080  0.7069  0.4052 -0.5619
  916SOL    HW1 3342   3.142   0.379   3.038  0.4150 -3.2019 -1.9744
  916SOL    HW2 3343   2.994   0.400   3.013  0.5666 -0.8325 -0.9772
  917SOL     OW 3344   6.052   0.932   1.831 -0.3505 -0.1982  0.2857
  917SOL    HW1 3345   6.009   0.992   1.891  0.3072 -0.6218  1.1877
  917SOL    HW2 3346   5.983   0.904   1.771 -0.3366  2.6455 -1.1352
  918SOL     OW 3347   1.187   2.853   2.333 -0.1308 -0.1419 -0.3545
  918SOL    HW1 3348   1.181   2.944   2.303  0.1897 -0.4514 -1.3921
  918SOL    HW2 3349   1.279   2.831   2.322  0.0468 -0.1906  1.1295
  919SOL     OW 3350   1.601   1.383   4.512 -0.0149 -0.2496  0.2130
  919SOL    HW1 3351   1.629   1.391   4.421  0.1920  1.1843  0.3912
  919SOL    HW2 3352   1.517   1.338   4.507 -0.5171  0.7801 -0.7772
  920SOL     OW 3353   5.647   4.531   0.566 -0.2374  0.1344  0.2525
  920SOL    HW1 3354   5.705   4.464   0.531 -0.9868 -0.2970 -0.1640
  920SOL    HW2 3355   5.706   4.600   0.597  0.4715 -0.0706 -0.6408
  921SOL     OW 3356   1.570   2.284   0.201  0.0243  0.4113 -0.1688
  921SOL    HW1 3357   1.543   2.311   0.288 -0.2510 -0.3336 -0.0210
  921SOL    HW2 3358   1.663   2.263   0.210  0.5257  2.3748 -0.5384
  922SOL     OW 3359   2.886   4.921   3.158  0.5404  0.4023  0.3159
  922SOL    HW1 3360   2.874   4.852   3.223 -0.1377 -0.1605 -0.4050
  922SOL    HW2 3361   2.935   4.989   3.204  1.5533 -0.7203  0.9115
  923SOL     OW 3362   5.219   3.863   5.694  1.1521  0.5015 -0.3907
  923SOL    HW1 3363   5.240   3.903   5.779 -0.0848  0.3567 -0.0030
  923SOL    HW2 3364   5.168   3.929   5.648 -0.3611 -0.3694 -0.0007
  924SOL     OW 3365   3.297   7.132   5.962  0.0159 -0.5487  0.2551
  924SOL    HW1 3366   3.387   7.135   5.929  0.2936 -0.5120  1.0123
  924SOL    HW2 3367   3.287   7.044   5.999 -0.3929 -0.6952 -0.1950
  925SOL     OW 3368   2.423   2.102   0.525 -0.2985 -0.0027 -0.1701
  925SOL    HW1 3369   2.405   2.009   0.518  0.1122 -0.0025 -1.3421
  925SOL    HW2 3370   2.516   2.107   0.548 -0.0879  0.1197 -1.0107
  926SOL     OW 3371   1.997   4.944   4.882 -0.5835 -1.2227 -0.4923
  926SOL    HW1 3372   2.059   4.979   4.946  1.1248 -0.9345 -2.2597
  926SOL    HW2 3373   1.912   4.980   4.910  0.2345 -0.4635  1.1320
  927SOL     OW 3374   5.511   2.192   0.201 -0.0286  0.1168  0.2520
  927SOL    HW1 3375   5.423   2.156   0.203 -0.2620  0.3317 -3.3227
  927SOL    HW2 3376   5.499   2.286   0.198  0.2618  0.1153 -1.4117
  928SOL     OW 3377   5.558   5.151   4.776 -0.2393  0.1076  0.3785
  928SOL    HW1 3378   5.607   5.108   4.706  1.9884  0.7920  1.4924
  928SOL    HW2 3379   5.504   5.216   4.730 -1.3247 -1.7376 -1.0004
  929SOL     OW 3380   2.737   6.334   1.114  0.2689 -0.2190 -0.0261
  929SOL    HW1 3381   2.822   6.341   1.157  0.2893 -0.2898 -0.0541
  929SOL    HW2 3382   2.733   6.409   1.056  0.4379 -0.3798 -0.2466
  930SOL     OW 3383   0.468   6.139   1.315 -0.3312 -0.6922  0.2891
  930SOL    HW1 3384   0.445   6.158   1.224 -2.8117  0.2768  1.0994
  930SOL    HW2 3385   0.516   6.217   1.345  1.1880 -1.3395 -0.3948
  931SOL     OW 3386   1.110   3.002   6.027  0.3603 -0.2008  0.2793
  931SOL    HW1 3387   1.030   3.001   5.975 -0.1099 -3.9221  0.9524
  931SOL    HW2 3388   1.180   3.011   5.963 -0.2823 -3.4327 -0.9859
  932SOL     OW 3389   5.208   3.820   5.007 -0.7155 -0.3499 -0.1762
  932SOL    HW1 3390   5.129   3.772   5.029 -0.5581 -1.2269 -1.4844
  932SOL    HW2 3391   5.273   3.789   5.070 -1.4177  0.4914  1.0072
  933SOL     OW 3392   5.474   3.586   4.720 -0.0160 -0.5232  0.4322
  933SOL    HW1 3393   5.418   3.664   4.715  1.5921  0.5634 -1.1637
  933SOL    HW2 3394   5.488   3.559   4.629  1.7750 -0.9499  0.8015
  934SOL     OW 3395   0.463   3.469   6.782  0.4319  0.2056 -0.1341
  934SOL    HW1 3396   0.472   3.564   6.787  1.3375  0.1700 -1.0045
  934SOL    HW2 3397   0.526   3.436   6.845  0.5059  0.1676 -0.2284
  935SOL     OW 3398   2.339   4.786   3.860 -0.2118  0.2919 -0.0545
  935SOL    HW1 3399   2.311   4.722   3.794  0.8810 -1.0235  0.7242
  935SOL    HW2 3400   2.434   4.791   3.849  0.4080 -2.3053  3.4634
  936SOL     OW 3401   1.120   4.936   0.599 -0.7004  0.2864  0.0002
  936SOL    HW1 3402   1.120   5.024   0.637 -0.3571 -0.7535  2.5055
  936SOL    HW2 3403   1.050   4.938   0.533 -0.2670  2.6093 -0.4230
  937SOL     OW 3404   3.269   0.805   3.929 -0.2549  0.4862  0.1690
  937SOL    HW1 3405   3.311   0.872   3.876  0.6481  1.1634  1.6970
  937SOL    HW2 3406   3.235   0.852   4.005  0.5869 -0.7872  1.3745
  938SOL     OW 3407   6.020   1.520   5.370 -0.2007 -0.6361 -0.9134
  938SOL    HW1 3408   5.952   1.477   5.421 -0.3130 -0.0360 -0.5585
  938SOL    HW2 3409   5.975   1.593   5.327  0.1636 -0.3943 -0.8829
  939SOL     OW 3410   6.682   0.365   3.175 -0.1663 -0.0608  0.3169
  939SOL    HW1 3411   6.618   0.387   3.242 -0.7334 -1.6140  0.3035
  939SOL    HW2 3412   6.742   0.440   3.174 -2.3238  1.7102 -0.1384
  940SOL     OW 3413   1.658   4.477   2.756  0.1734 -0.1274 -0.2956
  940SOL    HW1 3414   1.664   4.562   2.712  2.3292  0.2654  0.6990
  940SOL    HW2 3415   1.715   4.419   2.704  0.3517 -0.4362  0.2436
  941SOL     OW 3416   1.836   1.693   1.166 -0.4493  0.2119  0.6840
  941SOL    HW1 3417   1.815   1.658   1.253 -0.8839 -0.7950  0.1785
  941SOL    HW2 3418   1.771   1.654   1.108 -0.9921  1.9113  0.1089
  942SOL     OW 3419   5.715   0.432   4.532 -0.0069 -0.4520  0.6167
  942SOL    HW1 3420   5.636   0.377   4.536 -1.1412  0.9911 -1.5768
  942SOL    HW2 3421   5.715   0.478   4.616 -2.5102  0.8687 -0.0543
  943SOL     OW 3422   3.201   0.322   6.186 -0.7159 -0.1530 -0.7652
  943SOL    HW1 3423   3.193   0.404   6.139  1.1943 -0.5903 -1.9086
  943SOL    HW2 3424   3.175   0.255   6.123  0.5194 -0.6301 -0.7932
  944SOL     OW 3425   6.847   4.817   2.199 -0.3189  0.0560 -0.3851
  944SOL    HW1 3426   6.936   4.813   2.163 -0.5926 -0.5748 -0.9835
  944SOL    HW2 3427   6.795   4.761   2.142 -0.7035 -1.1535  1.1274
  945SOL     OW 3428   6.894   1.662   2.095 -0.4497  0.4430 -0.2385
  945SOL    HW1 3429   6.906   1.615   2.178 -1.2090  1.5403  0.5140
  945SOL    HW2 3430   6.810   1.707   2.105  0.4940  2.3687 -0.7317
  946SOL     OW 3431   1.424   6.215   1.597  0.2866 -0.0689 -0.0396
  946SOL    HW1 3432   1.447   6.127   1.568  1.1708 -0.2938  1.3183
  946SOL    HW2 3433   1.328   6.217   1.590  0.2045 -1.3411  0.4705
  947SOL     OW 3434   4.556   0.970   4.086 -0.0679 -1.0322  0.3337
  947SOL    HW1 3435   4.493   0.947   4.154 -0.7644 -1.4828 -0.4484
  947SOL    HW2 3436   4.527   0.921   4.009 -0.8032  1.4417 -1.0119
  948SOL     OW 3437   6.014   5.402   3.170 -0.3330  0.3251 -0.2528
  948SOL    HW1 3438   5.966   5.389   3.088  0.3668  0.5931 -0.7098
  948SOL    HW2 3439   5.956   5.366   3.237 -0.8623 -0.0116 -0.8778
  949SOL     OW 3440   2.132   4.177   1.906 -1.0429 -0.0537 -0.2254
  949SOL    HW1 3441   2.129   4.191   2.000  1.3228  1.3804 -0.3211
  949SOL    HW2 3442   2.091   4.092   1.892 -1.8299 -0.0575  2.0374
  950SOL     OW 3443   3.413   2.832   5.731 -0.0761 -0.1076 -0.3391
  950SOL    HW1 3444   3.466   2.893   5.681 -1.1132  1.6843  0.7020
  950SOL    HW2 3445   3.339   2.812   5.675  0.1484 -0.2266 -0.5915
  951SOL     OW 3446   3.742   3.552   6.488  0.4315  0.1333  0.2709
  951SOL    HW1 3447   3.683   3.600   6.429 -0.1535  1.4862  1.8979
  951SOL    HW2 3448   3.821   3.538   6.436 -0.7179 -0.2688 -1.4136
  952SOL     OW 3449   5.941   3.077   5.805 -0.2812  0.1421  0.1640
  952SOL    HW1 3450   5.965   3.019   5.733  1.9413  0.1629  0.8438
  952SOL    HW2 3451   5.853   3.106   5.784 -0.1886 -0.9226 -1.8465
  953SOL     OW 3452   2.443   2.932   1.209 -0.2483 -0.2611 -0.4529
  953SOL    HW1 3453   2.447   3.028   1.205  0.8773 -0.3273 -1.1552
  953SOL    HW2 3454   2.468   2.911   1.299  2.4807 -0.0137 -1.1059
  954SOL     OW 3455   1.092   6.517   5.929 -0.0266 -0.5197  0.6404
  954SOL    HW1 3456   1.145   6.459   5.985  0.8862  0.5138  0.8729
  954SOL    HW2 3457   1.141   6.599   5.927 -1.4626  0.3478  0.5660
  955SOL     OW 3458   3.116   0.000   2.767 -0.1580  0.0382  0.0714
  955SOL    HW1 3459   3.162   0.076   2.731 -0.4500  0.0528 -0.2704
  955SOL    HW2 3460   3.046   0.038   2.820 -0.0609  0.0100  0.2205
  956SOL     OW 3461   7.183   4.671   4.093 -0.2350  0.2079  0.8244
  956SOL    HW1 3462   7.140   4.745   4.051 -0.3732  0.2353  1.0148
  956SOL    HW2 3463   7.222   4.707   4.172  1.8752  0.6089 -0.3721
  957SOL     OW 3464   3.094   5.039   0.213  0.4758 -0.0181 -0.3880
  957SOL    HW1 3465   2.999   5.041   0.224  0.6044  2.1706  0.6606
  957SOL    HW2 3466   3.107   5.008   0.123 -1.2525  0.0709 -0.6852
  958SOL     OW 3467   4.090   3.579   5.992  0.7472 -0.5369  0.1158
  958SOL    HW1 3468   4.103   3.582   5.897  0.1581  0.3333  0.0571
  958SOL    HW2 3469   3.995   3.582   6.004  0.8441  0.0842  0.7541
  959SOL     OW 3470   4.525   1.682   4.587  0.1686  0.1710 -0.0237
  959SOL    HW1 3471   4.525   1.747   4.517  1.0047  0.6916  0.4471
  959SOL    HW2 3472   4.500   1.732   4.665 -0.9751 -0.4486  0.0141
  960SOL     OW 3473   5.253   5.446   3.433  0.4561  0.3690  0.6429
  960SOL    HW1 3474   5.182   5.383   3.420  0.6633  0.0220  1.1964
  960SOL    HW2 3475   5.215   5.531   3.408  0.3936 -0.0668 -0.8100
  961SOL     OW 3476   6.092   1.917   1.296  0.0276 -0.2559 -0.2774
  961SOL    HW1 3477   6.084   2.011   1.312 -1.1139  0.4908 -4.4972
  961SOL    HW2 3478   6.002   1.884   1.300  0.2436 -0.8746 -0.3794
  962SOL     OW 3479   5.779   1.072   0.751  0.0098  0.0398  0.3656
  962SOL    HW1 3480   5.861   1.119   0.765  1.2156 -1.7725 -0.4007
  962SOL    HW2 3481   5.777   1.055   0.657 -0.0951 -1.9505  0.7034
  963SOL     OW 3482   2.611   2.240   1.493 -0.0460  0.1269 -0.2512
  963SOL    HW1 3483   2.593   2.333   1.506 -1.1994 -0.0922 -0.2107
  963SOL    HW2 3484   2.525   2.200   1.479  0.6346 -0.5709 -2.6401
  964SOL     OW 3485   7.238   1.764   0.702  0.2684 -0.5029  0.1477
  964SOL    HW1 3486   7.324   1.726   0.720 -0.3535 -1.3605  1.3187
  964SOL    HW2 3487   7.175   1.696   0.727 -0.7807  0.4219  0.0667
  965SOL     OW 3488   3.020   6.597   6.255 -0.0855 -0.0416 -0.1986
  965SOL    HW1 3489   3.041   6.674   6.308  1.4791 -1.8394  1.8647
  965SOL    HW2 3490   3.105   6.559   6.233 -0.7492 -0.0495 -3.0224
  966SOL     OW 3491   0.271   6.990   3.749  0.0070 -0.5060  0.0371
  966SOL    HW1 3492   0.302   6.903   3.723 -0.4043  0.2041 -2.9863
  966SOL    HW2 3493   0.324   7.051   3.698 -2.9078  0.8710 -1.4549
  967SOL     OW 3494   2.584   4.152   0.405  0.3063  0.0715 -0.5264
  967SOL    HW1 3495   2.525   4.150   0.480  0.1913 -1.5046 -0.6401
  967SOL    HW2 3496   2.526   4.154   0.329  0.4025 -0.3514 -0.6126
  968SOL     OW 3497   3.076   5.406   5.032 -0.4039  0.0708  0.0249
  968SOL    HW1 3498   3.040   5.323   5.064  0.2282 -0.5032 -0.7318
  968SOL    HW2 3499   3.171   5.396   5.042 -0.4124  1.5335  1.9416
  969SOL     OW 3500   2.268   0.751   6.480 -0.2730 -0.1249  0.1321
  969SOL    HW1 3501   2.360   0.772   6.463 -0.5303  1.0802  0.1270
  969SOL    HW2 3502   2.219   0.818   6.433 -1.2332 -1.9711 -1.5455
  970SOL     OW 3503   1.167   5.019   6.806  0.0989 -0.6782 -0.2204
  970SOL    HW1 3504   1.217   4.972   6.740 -0.4044 -1.5915  0.0380
  970SOL    HW2 3505   1.108   5.075   6.755 -0.5301 -1.6310 -0.5676
  971SOL     OW 3506   5.430   5.512   3.843  0.4707  0.0296 -0.3327
  971SOL    HW1 3507   5.467   5.442   3.898  0.7115  1.2985  1.1525
  971SOL    HW2 3508   5.353   5.473   3.803  0.1530 -0.8424  1.1076
  972SOL     OW 3509   5.110   4.749   6.337 -0.1746 -0.1358 -0.1622
  972SOL    HW1 3510   5.095   4.828   6.390 -0.3203  0.4138 -1.0128
  972SOL    HW2 3511   5.204   4.750   6.319  0.0324 -0.8111  0.8384
  973SOL     OW 3512   3.206   0.932   0.386  0.0244  0.0136  0.8391
  973SOL    HW1 3513   3.126   0.945   0.437 -0.4114 -2.1928  0.7901
  973SOL    HW2 3514   3.276   0.931   0.451 -0.4545 -2.0869  1.3677
  974SOL     OW 3515   0.375   5.734   0.680 -0.0686  0.4038  0.4052
  974SOL    HW1 3516   0.390   5.701   0.768 -0.7027  1.4729  0.9234
  974SOL    HW2 3517   0.447   5.796   0.665  1.1914 -1.2702 -0.6111
  975SOL     OW 3518   0.751   2.577   1.217  0.5792  0.0592 -0.6618
  975SOL    HW1 3519   0.742   2.563   1.123  1.6228 -2.7190 -0.4182
  975SOL    HW2 3520   0.782   2.493   1.251 -1.0673  0.5700  2.3578
  976SOL     OW 3521   4.825   5.146   2.524 -0.6856  0.6418 -0.3062
  976SOL    HW1 3522   4.841   5.055   2.497 -1.7728  0.7412 -1.3657
  976SOL    HW2 3523   4.761   5.138   2.595 -0.2615  0.5396  0.0630
  977SOL     OW 3524   0.188   4.244   2.535 -0.3287  0.1050  0.3459
  977SOL    HW1 3525   0.213   4.327   2.495  0.9164  0.5793  2.0198
  977SOL    HW2 3526   0.096   4.254   2.556 -0.4588  0.6440 -0.4585
  978SOL     OW 3527   5.810   4.933   4.061  0.0881 -0.1512 -0.2015
  978SOL    HW1 3528   5.844   4.961   4.146  0.0321 -1.0828  0.1325
  978SOL    HW2 3529   5.715   4.935   4.071  0.0836 -0.4184 -0.1887
  979SOL     OW 3530   5.352   6.429   5.157 -0.3819 -0.1403 -0.4379
  979SOL    HW1 3531   5.295   6.471   5.092  0.7515  0.9592 -0.7340
  979SOL    HW2 3532   5.377   6.500   5.217  1.4352 -0.4054 -0.8550
  980SOL     OW 3533   3.865   6.530   3.380 -0.0405 -0.3159  0.7647
  980SOL    HW1 3534   3.930   6.503   3.444  0.2045  1.3892  1.2513
  980SOL    HW2 3535   3.901   6.502   3.296  0.4117 -1.0863  1.2148
  981SOL     OW 3536   5.190   1.719   1.029  0.0542  0.2661  0.0658
  981SOL    HW1 3537   5.206   1.702   0.937 -2.2826  1.5000 -0.6268
  981SOL    HW2 3538   5.216   1.638   1.074 -2.3114 -1.8006 -2.1016
  982SOL     OW 3539   6.172   5.041   5.925  0.2513  0.2925 -0.0511
  982SOL    HW1 3540   6.125   5.124   5.923  2.3415  1.4800 -2.1727
  982SOL    HW2 3541   6.215   5.040   6.011 -0.7516  0.8310  0.4684
  983SOL     OW 3542   6.635   2.622   5.846  0.2666 -0.4497  0.0835
  983SOL    HW1 3543   6.725   2.592   5.830  0.2279 -0.2355 -0.5595
  983SOL    HW2 3544   6.580   2.558   5.801  0.0867 -0.7214  0.6921
  984SOL     OW 3545   4.701   6.643   1.163 -0.1802  0.2153  0.2291
  984SOL    HW1 3546   4.648   6.701   1.217  2.5138  0.5805  2.6341
  984SOL    HW2 3547   4.716   6.566   1.219  4.7283  1.6402  1.0934
  985SOL     OW 3548   6.234   3.312   3.712  0.0597 -0.0226 -0.0592
  985SOL    HW1 3549   6.177   3.296   3.637 -0.1508  1.0496 -0.1255
  985SOL    HW2 3550   6.294   3.237   3.712 -1.2583 -1.1064 -0.0518
  986SOL     OW 3551   0.659   1.627   4.516  0.4456 -0.1519 -0.1935
  986SOL    HW1 3552   0.630   1.537   4.531  0.0604  0.1725  1.1157
  986SOL    HW2 3553   0.577   1.677   4.507  0.6584 -0.0487 -1.7199
  987SOL     OW 3554   4.871   0.087   2.495 -0.2003  0.6214  0.2654
  987SOL    HW1 3555   4.811   0.013   2.506 -0.2555  0.6049 -0.1218
  987SOL    HW2 3556   4.814   0.160   2.467 -0.4924  1.4338  2.8228
  988SOL     OW 3557   3.339   5.055   0.333 -0.2558  0.3721 -0.0663
  988SOL    HW1 3558   3.248   5.033   0.317 -0.4748  0.6768  0.7363
  988SOL    HW2 3559   3.349   5.050   0.428  0.5084  0.5442 -0.1315
  989SOL     OW 3560   4.314   4.004   0.485  0.0102  0.3569 -0.8195
  989SOL    HW1 3561   4.334   3.914   0.512  0.5821  0.6182 -0.3511
  989SOL    HW2 3562   4.261   3.995   0.406 -0.5080 -0.4067 -0.3890
  990SOL     OW 3563   3.258   3.103   0.264 -0.1559 -0.4168 -0.1509
  990SOL    HW1 3564   3.318   3.119   0.191 -0.1562 -0.4743 -0.1636
  990SOL    HW2 3565   3.279   3.014   0.294  0.2256 -0.1845  0.2772
  991SOL     OW 3566   2.752   0.718   4.734 -0.7281  0.0198 -0.2598
  991SOL    HW1 3567   2.730   0.732   4.642  0.5634 -0.9105 -0.7322
  991SOL    HW2 3568   2.847   0.705   4.734 -0.5357  1.2300  1.3581
  992SOL     OW 3569   6.046   4.295   5.096  0.8746 -0.3935  0.5790
  992SOL    HW1 3570   6.070   4.322   5.007 -2.6754  1.9327  0.2151
  992SOL    HW2 3571   5.974   4.232   5.083 -0.3611  0.7387  1.7697
  993SOL     OW 3572   5.523   0.394   1.531  0.3205  0.1423  0.1095
  993SOL    HW1 3573   5.441   0.441   1.546  0.2354 -0.0577  0.2643
  993SOL    HW2 3574   5.497   0.311   1.492  0.4290 -0.0388  0.4188
  994SOL     OW 3575   1.029   4.827   7.187  0.1089 -0.0493  0.0996
  994SOL    HW1 3576   1.073   4.869   7.262 -1.6858 -0.6453  1.5250
  994SOL    HW2 3577   1.091   4.836   7.115  1.9279  0.4586  1.6846
  995SOL     OW 3578   6.816   2.238   4.802  0.0253  0.5909  0.5745
  995SOL    HW1 3579   6.723   2.233   4.784  0.2753  0.0780 -0.6467
  995SOL    HW2 3580   6.858   2.226   4.716  1.2375 -0.9737  1.3417
  996SOL     OW 3581   2.150   4.064   5.798  0.4732  0.3943 -0.5206
  996SOL    HW1 3582   2.058   4.074   5.823  0.6449 -1.0090  0.7574
  996SOL    HW2 3583   2.192   4.145   5.827  0.1925 -0.1964  1.5587
  997SOL     OW 3584   3.024   4.921   3.689 -0.2264  0.2601 -0.2808
  997SOL    HW1 3585   3.119   4.913   3.701 -0.2958 -0.2331 -0.0400
  997SOL    HW2 3586   2.991   4.832   3.702 -0.8066  0.5716  0.3641
  998SOL     OW 3587   2.660   6.272   3.818  0.5719 -0.0329  0.0012
  998SOL    HW1 3588   2.732   6.322   3.857  1.8749 -0.0620 -2.2336
  998SOL    HW2 3589   2.586   6.332   3.819  0.6345  0.0339  2.2535
  999SOL     OW 3590   6.384   5.780   4.433  0.4265  0.0039  0.0020
  999SOL    HW1 3591   6.333   5.710   4.474  0.3340 -0.4784 -0.9283
  999SOL    HW2 3592   6.458   5.794   4.492  0.9876 -1.5732 -0.2984
 1000SOL     OW 3593   3.452   3.952   2.204  0.3630  0.2146  0.1596
 1000SOL    HW1 3594   3.513   3.975   2.274 -0.2234 -2.3821  1.5780
 1000SOL    HW2 3595   3.367   3.986   2.233 -0.3366 -2.8166  1.8596
 1001SOL     OW 3596   5.047   6.389   0.827  0.2339  0.1322 -0.5447
 1001SOL    HW1 3597   5.047   6.361   0.735 -0.7880 -0.8958 -0.2413
 1001SOL    HW2 3598   4.958   6.373   0.857  0.4776  0.7827  0.5390
 1002SOL     OW 3599   2.999   5.419   1.011  0.0045  0.3854 -0.1596
 1002SOL    HW1 3600   2.910   5.402   0.980 -0.4120 -1.2572  1.8278
 1002SOL    HW2 3601   3.040   5.332   1.016  0.1362  0.6094  3.5350
 1003SOL     OW 3602   5.486   3.739   2.065 -0.0781  0.1490  0.1560
 1003SOL    HW1 3603   5.443   3.776   2.142  1.2610 -1.1383  1.5691
 1003SOL    HW2 3604   5.549   3.676   2.101  1.7126  0.6760 -1.9227
 1004SOL     OW 3605   0.465   6.998   3.402 -0.3380 -0.0649  0.3271
 1004SOL    HW1 3606   0.377   6.990   3.365  0.3927  0.5448 -1.6108
 1004SOL    HW2 3607   0.452   7.041   3.486 -2.0126 -1.0946  0.6127
 1005SOL     OW 3608   0.069   1.491   6.975  0.2683 -0.0775  0.0181
 1005SOL    HW1 3609   0.133   1.545   7.022 -0.4437  0.5064  0.3259
 1005SOL    HW2 3610  -0.016   1.531   6.995 -0.2803 -1.3723  0.3449
 1006SOL     OW 3611   5.396   3.313   0.198 -0.0969 -0.1220 -0.2607
 1006SOL    HW1 3612   5.398   3.297   0.292  2.7046 -0.4884 -0.3396
 1006SOL    HW2 3613   5.405   3.226   0.159  1.7017  0.2952 -0.8195
 1007SOL     OW 3614   1.506   0.128   5.425 -1.0304  0.2984 -0.2606
 1007SOL    HW1 3615   1.473   0.217   5.442  0.1530  0.7349 -0.1812
 1007SOL    HW2 3616   1.452   0.096   5.352 -1.1819  1.2445 -0.5748
 1008SOL     OW 3617   3.343   0.434   4.515  0.4763  0.0170 -0.0524
 1008SOL    HW1 3618   3.299   0.485   4.446 -0.1697  1.9058  1.7085
 1008SOL    HW2 3619   3.354   0.496   4.587  0.1791 -2.2027  1.9605
 1009SOL     OW 3620   2.323   6.192   2.705 -0.1003 -0.2788 -0.0935
 1009SOL    HW1 3621   2.320   6.098   2.685  0.7241 -0.5928  1.1854
 1009SOL    HW2 3622   2.356   6.232   2.625 -1.7732 -0.9242 -1.1170
 1010SOL     OW 3623   4.107   3.896   5.852  0.0332 -0.2705  0.5687
 1010SOL    HW1 3624   4.125   3.945   5.772 -0.4807  0.6704  1.0194
 1010SOL    HW2 3625   4.179   3.919   5.911 -0.0046 -0.3607  0.6517
 1011SOL     OW 3626   3.232   6.481   2.840  0.3027  0.1457  0.8334
 1011SOL    HW1 3627   3.167   6.550   2.854  0.7443  0.5693  0.8112
 1011SOL    HW2 3628   3.288   6.514   2.769  1.4380  0.4302  1.8504
 1012SOL     OW 3629   0.266   2.669   6.011  0.2008  0.1991 -0.0724
 1012SOL    HW1 3630   0.189   2.695   6.061 -0.9692  0.7197 -2.0889
 1012SOL    HW2 3631   0.332   2.734   6.034  0.2105 -0.5014  1.9965
 1013SOL     OW 3632   5.848   2.753   5.678  0.4513  0.0221 -0.1368
 1013SOL    HW1 3633   5.927   2.759   5.624 -0.0490 -0.2480 -0.9090
 1013SOL    HW2 3634   5.826   2.660   5.679  0.1357  0.0956  0.0615
 1014SOL     OW 3635   2.823   5.023   6.756  0.0478 -0.2535  0.1071
 1014SOL    HW1 3636   2.908   4.993   6.786 -0.1834  0.1040  1.1425
 1014SOL    HW2 3637   2.839   5.111   6.723  0.1713 -0.3801 -0.1748
 1015SOL     OW 3638   5.020   6.312   0.555  0.3015 -0.5861 -0.1773
 1015SOL    HW1 3639   4.929   6.296   0.529 -0.2131 -0.8800  1.7147
 1015SOL    HW2 3640   5.070   6.248   0.505 -0.5925 -0.7567 -0.8747
 1016SOL     OW 3641   3.754   1.948   7.248 -0.2686 -0.2073  0.3498
 1016SOL    HW1 3642   3.755   2.034   7.290  1.2373 -0.0912  0.1378
 1016SOL    HW2 3643   3.679   1.903   7.285 -0.7840  1.0322  0.8295
 1017SOL     OW 3644   0.917   4.326   1.296  0.5350 -0.4133 -0.4830
 1017SOL    HW1 3645   0.939   4.376   1.217  1.9711  0.6387  0.5610
 1017SOL    HW2 3646   0.896   4.239   1.263  0.4335  0.1991 -2.0991
 1018SOL     OW 3647   2.272   0.649   1.219 -0.2232  0.6944 -0.3860
 1018SOL    HW1 3648   2.354   0.639   1.170  0.2149  1.6527  0.1367
 1018SOL    HW2 3649   2.292   0.613   1.306 -0.5370  0.3840 -0.4429
 1019SOL     OW 3650   3.270   6.893   7.115  0.0729 -0.3073 -0.6424
 1019SOL    HW1 3651   3.360   6.893   7.147  0.7765 -1.0330 -2.5325
 1019SOL    HW2 3652   3.221   6.939   7.182  1.4771 -1.7334  1.4122
 1020SOL     OW 3653   5.326   2.509   2.290  0.1913  0.1771 -0.6916
 1020SOL    HW1 3654   5.234   2.525   2.310 -0.6533 -2.0247 -2.5760
 1020SOL    HW2 3655   5.343   2.560   2.211  0.2853 -0.2815 -0.9690
 1021SOL     OW 3656   2.304   2.412   7.242 -0.1253 -0.1087 -0.5870
 1021SOL    HW1 3657   2.345   2.326   7.231 -0.0535 -0.3888  1.5495
 1021SOL    HW2 3658   2.378   2.473   7.239 -0.1490 -0.1428 -1.8760
 1022SOL     OW 3659   6.135   3.007   6.929  0.0169  0.1968  0.1712
 1022SOL    HW1 3660   6.193   2.980   6.858 -0.8652  0.0671 -0.5016
 1022SOL    HW2 3661   6.191   3.060   6.986  0.4561  1.2504 -1.2019
 1023SOL     OW 3662   6.551   4.342   2.481 -0.5501  0.3225  0.9863
 1023SOL    HW1 3663   6.629   4.362   2.429  0.0435 -1.1146  1.3003
 1023SOL    HW2 3664   6.481   4.394   2.441  0.4307  1.1315  0.3044
 1024SOL     OW 3665   0.268   6.750   2.565 -0.1075  0.3921  0.0986
 1024SOL    HW1 3666   0.339   6.688   2.549  1.2001  1.8638  0.0403
 1024SOL    HW2 3667   0.269   6.764   2.660 -1.0130 -0.3970  0.2216
 1025SOL     OW 3668   0.556   3.963   0.218  0.2473 -0.2827  0.3740
 1025SOL    HW1 3669   0.588   3.952   0.128 -0.7461  0.3447 -0.0582
 1025SOL    HW2 3670   0.595   3.890   0.266 -0.6461 -1.6466 -0.9413
 1026SOL     OW 3671   3.263   2.748   7.220 -0.2523  0.1004  0.6460
 1026SOL    HW1 3672   3.225   2.686   7.159  0.3230  0.4583 -0.0901
 1026SOL    HW2 3673   3.291   2.695   7.294  2.8100 -0.9660 -1.1813
 1027SOL     OW 3674   4.230   5.211   3.694 -0.1741  0.0573  0.0956
 1027SOL    HW1 3675   4.269   5.269   3.760 -0.0423  0.2178 -0.1230
 1027SOL    HW2 3676   4.143   5.193   3.728 -1.0842  2.2486 -0.9461
 1028SOL     OW 3677   0.741   4.305   3.780 -0.2711  0.5917 -0.4541
 1028SOL    HW1 3678   0.803   4.231   3.776 -1.8263 -0.7051 -1.3958
 1028SOL    HW2 3679   0.727   4.320   3.873 -0.6961 -0.9785 -0.2478
 1029SOL     OW 3680   2.003   5.232   3.009 -0.0777  0.4881 -0.0076
 1029SOL    HW1 3681   1.984   5.205   3.099  1.1918  1.3456  0.5442
 1029SOL    HW2 3682   1.938   5.188   2.955 -1.2069  0.4210  1.4078
 1030SOL     OW 3683   3.490   5.329   0.479  0.2089  0.2197  0.0919
 1030SOL    HW1 3684   3.572   5.290   0.449  0.5591  1.8703 -1.1584
 1030SOL    HW2 3685   3.516   5.407   0.527 -0.5058 -0.8220  2.2547
 1031SOL     OW 3686   5.040   0.525   5.542  0.2586  0.1295  0.1618
 1031SOL    HW1 3687   4.948   0.509   5.563  0.6044 -1.6742  0.4140
 1031SOL    HW2 3688   5.066   0.597   5.599 -0.6897 -0.1263  0.9254
 1032SOL     OW 3689   2.905   0.934   4.957  0.7004 -0.1820  0.3061
 1032SOL    HW1 3690   2.910   1.014   5.010 -2.3112  0.3180 -0.0680
 1032SOL    HW2 3691   2.929   0.963   4.868 -0.7733  0.4420  0.0879
 1033SOL     OW 3692   6.755   1.057   3.662 -0.5481  0.7837 -0.3479
 1033SOL    HW1 3693   6.811   1.121   3.618  0.5872 -0.5411 -0.8806
 1033SOL    HW2 3694   6.690   1.033   3.596  0.0598  0.1405 -0.7246
 1034SOL     OW 3695   1.365   2.124   7.093 -0.1881 -0.2072  0.2421
 1034SOL    HW1 3696   1.353   2.165   7.008 -0.5190  1.0198  0.8680
 1034SOL    HW2 3697   1.351   2.031   7.077 -1.0742  0.1086 -0.8797
 1035SOL     OW 3698   1.008   5.229   7.166 -0.8027 -0.3638  0.2751
 1035SOL    HW1 3699   0.947   5.169   7.122 -0.0846  0.9101 -2.5722
 1035SOL    HW2 3700   0.994   5.313   7.122  2.4334  0.1385  0.1181
 1036SOL     OW 3701   3.135   6.559   4.626  0.4258  0.2141  0.2892
 1036SOL    HW1 3702   3.116   6.631   4.686  1.2896 -1.4688  2.6399
 1036SOL    HW2 3703   3.065   6.495   4.642  1.0802 -0.5693  0.0337
 1037SOL     OW 3704   3.361   4.751   6.250  0.3033 -0.1326 -0.0395
 1037SOL    HW1 3705   3.425   4.820   6.268 -0.2129  0.0519  1.1042
 1037SOL    HW2 3706   3.413   4.680   6.213  0.7195  1.1914 -2.1313
 1038SOL     OW 3707   4.125   4.477   4.963  0.1585  0.3493  0.7688
 1038SOL    HW1 3708   4.114   4.384   4.983  0.6871  0.5855  2.3042
 1038SOL    HW2 3709   4.220   4.489   4.958  0.0564  0.5223 -0.9060
 1039SOL     OW 3710   1.269   1.982   6.581 -0.4728  0.1338 -0.0263
 1039SOL    HW1 3711   1.208   2.008   6.650 -3.2298 -1.8909 -1.6238
 1039SOL    HW2 3712   1.253   2.044   6.510 -0.6565 -0.3675 -0.4281
 1040SOL     OW 3713   6.631   5.520   4.798  0.0868  0.9239  0.7259
 1040SOL    HW1 3714   6.561   5.456   4.812  1.6627 -0.7398  1.1462
 1040SOL    HW2 3715   6.696   5.473   4.746  0.9716  2.4136  0.4619
 1041SOL     OW 3716   3.192   4.430   3.130 -0.0136  0.2120  0.0996
 1041SOL    HW1 3717   3.162   4.511   3.088  1.1555  0.9353  0.6553
 1041SOL    HW2 3718   3.183   4.363   3.061 -0.6448  0.8693 -0.4696
 1042SOL     OW 3719   3.396   1.873   4.439  0.1245  0.0121  0.1419
 1042SOL    HW1 3720   3.374   1.793   4.486 -0.4292  0.5716  0.8416
 1042SOL    HW2 3721   3.365   1.944   4.496 -0.4667  0.6980 -1.0131
 1043SOL     OW 3722   6.023   1.061   3.812  0.1146 -0.3249 -0.5299
 1043SOL    HW1 3723   5.974   1.128   3.861  0.7949  0.0730 -0.3931
 1043SOL    HW2 3724   5.955   1.006   3.772 -0.4484 -0.6113  0.8013
 1044SOL     OW 3725   2.040   5.662   3.591 -0.0876 -0.1299  0.3243
 1044SOL    HW1 3726   2.097   5.708   3.529 -0.1355  0.0705  0.4270
 1044SOL    HW2 3727   1.958   5.712   3.589  0.3376  0.6169  1.4848
 1045SOL     OW 3728   1.917   2.848   6.427 -0.2837 -0.0739 -0.0427
 1045SOL    HW1 3729   2.011   2.847   6.413 -0.0243 -1.1826  1.6952
 1045SOL    HW2 3730   1.892   2.756   6.429 -1.1057  0.1614  1.3466
 1046SOL     OW 3731   2.871   5.078   5.601 -0.4247  0.7418  0.1272
 1046SOL    HW1 3732   2.776   5.074   5.596 -0.2787 -0.3905 -2.2760
 1046SOL    HW2 3733   2.891   5.062   5.693 -2.5374  0.7197  0.6026
 1047SOL     OW 3734   1.029   4.340   0.138  0.3762  0.2653 -0.2025
 1047SOL    HW1 3735   1.113   4.297   0.124  0.5694  0.6312 -0.1917
 1047SOL    HW2 3736   1.044   4.430   0.108  0.6185  0.9010  1.7917
 1048SOL     OW 3737   5.942   6.139   2.419 -0.4401 -0.3999  0.0653
 1048SOL    HW1 3738   5.936   6.062   2.363  2.6394 -0.0416 -0.8071
 1048SOL    HW2 3739   6.029   6.134   2.458 -1.3894  0.9922  2.4663
 1049SOL     OW 3740   3.337   0.102   4.040 -0.3829 -0.4360  0.8000
 1049SOL    HW1 3741   3.305   0.102   3.949  0.1838  0.1748  0.5954
 1049SOL    HW2 3742   3.266   0.062   4.090 -0.5919 -1.0281  0.0486
 1050SOL     OW 3743   5.970   6.846   1.482 -0.2114  0.1662  0.3729
 1050SOL    HW1 3744   5.893   6.899   1.503  0.1695  0.6759  0.4818
 1050SOL    HW2 3745   5.999   6.878   1.397 -0.9820 -1.0145 -0.3543
 1051SOL     OW 3746   6.792   3.387   4.499 -0.0582 -0.3648 -0.6524
 1051SOL    HW1 3747   6.858   3.445   4.538 -0.4675  0.0731 -0.6088
 1051SOL    HW2 3748   6.761   3.333   4.572 -0.4297  0.0791 -0.4797
 1052SOL     OW 3749   5.719   0.607   1.002 -0.2292 -0.0441 -0.1397
 1052SOL    HW1 3750   5.788   0.667   1.029  0.1457 -0.2812 -0.5619
 1052SOL    HW2 3751   5.695   0.636   0.914 -1.8920  1.1242  0.6701
 1053SOL     OW 3752   0.751   0.186   2.297  0.1089 -0.0050 -0.2929
 1053SOL    HW1 3753   0.662   0.220   2.288 -1.0199 -2.5000  1.0471
 1053SOL    HW2 3754   0.804   0.262   2.321 -1.6315  1.5103 -1.1647
 1054SOL     OW 3755   2.847   3.088   0.264  0.6731  0.2662 -0.3843
 1054SOL    HW1 3756   2.843   3.177   0.299 -2.0977  0.3219 -0.7200
 1054SOL    HW2 3757   2.794   3.092   0.184 -1.6201 -2.2071  0.9136
 1055SOL     OW 3758   4.918   4.092   2.058  0.6528 -0.0909 -0.2728
 1055SOL    HW1 3759   4.859   4.150   2.106 -0.9679 -1.1893 -0.8948
 1055SOL    HW2 3760   4.928   4.134   1.972  0.4984 -0.0996 -0.2944
 1056SOL     OW 3761   2.351   1.592   1.679  0.2531  0.7932  0.1181
 1056SOL    HW1 3762   2.320   1.651   1.748 -0.6466 -0.0533  0.4481
 1056SOL    HW2 3763   2.416   1.538   1.722  0.5316  1.0366  0.0054
 1057SOL     OW 3764   1.871   4.457   3.852 -0.1523 -0.2089  0.1867
 1057SOL    HW1 3765   1.777   4.460   3.836 -0.3239  1.3670  1.3746
 1057SOL    HW2 3766   1.901   4.381   3.802 -1.7037  0.5174 -1.9436
 1058SOL     OW 3767   5.026   1.022   4.927  0.1773  0.1641 -0.0100
 1058SOL    HW1 3768   4.972   0.948   4.897 -0.9545  0.0958  2.1240
 1058SOL    HW2 3769   4.963   1.083   4.965  1.3231  1.3821 -0.0632
 1059SOL     OW 3770   3.598   4.818   3.672 -0.0755  0.1018 -0.4394
 1059SOL    HW1 3771   3.563   4.871   3.600  0.9118 -3.2376 -3.5118
 1059SOL    HW2 3772   3.676   4.865   3.700  0.3077  0.7705 -2.5210
 1060SOL     OW 3773   2.793   0.783   0.912  0.1723  0.1255 -0.3377
 1060SOL    HW1 3774   2.804   0.876   0.930 -1.0140  0.1206  0.5233
 1060SOL    HW2 3775   2.752   0.779   0.826 -1.9417  0.5172  0.6168
 1061SOL     OW 3776   6.948   4.992   1.182  0.5717 -0.4306 -0.2449
 1061SOL    HW1 3777   6.967   5.082   1.210 -1.9488 -0.9341  3.5744
 1061SOL    HW2 3778   6.867   4.999   1.132 -0.5168 -0.6673  1.4145
 1062SOL     OW 3779   2.822   7.149   0.052 -0.0014  0.5332 -0.0797
 1062SOL    HW1 3780   2.899   7.206   0.057  0.6727 -0.3917  0.2279
 1062SOL    HW2 3781   2.837   7.094  -0.024 -0.6208  0.7174 -0.3372
 1063SOL     OW 3782   0.607   6.023   2.036  0.0449  0.0417 -0.4786
 1063SOL    HW1 3783   0.701   6.036   2.043  0.0835 -0.7785  0.6284
 1063SOL    HW2 3784   0.595   5.928   2.036 -0.6889  0.1026 -2.0913
 1064SOL     OW 3785   3.487   4.041   5.481 -0.2654 -0.2626 -0.0278
 1064SOL    HW1 3786   3.493   4.134   5.505  0.1392 -0.0082 -1.0537
 1064SOL    HW2 3787   3.565   4.026   5.427  0.4059 -1.5634  1.3021
 1065SOL     OW 3788   0.090   1.336   0.316 -0.2250 -0.1366 -0.0409
 1065SOL    HW1 3789   0.144   1.268   0.356 -0.0444  0.6086  1.0272
 1065SOL    HW2 3790   0.078   1.401   0.386 -0.4416  0.8923 -1.0108
 1066SOL     OW 3791   3.244   6.874   5.641  0.3380 -0.4414  0.7856
 1066SOL    HW1 3792   3.191   6.811   5.690 -1.2901 -0.3284 -0.7565
 1066SOL    HW2 3793   3.194   6.956   5.647 -0.4443 -0.6809 -1.8871
 1067SOL     OW 3794   4.994   2.921   4.801  0.1965  0.3485 -0.1294
 1067SOL    HW1 3795   5.016   2.923   4.708  1.0938  1.9556  0.1029
 1067SOL    HW2 3796   4.907   2.961   4.806  0.4438  0.8899 -0.1955
 1068SOL     OW 3797   4.321   6.822   0.385  0.5127  0.3178 -0.0016
 1068SOL    HW1 3798   4.232   6.811   0.419  0.9103 -0.3252  0.8490
 1068SOL    HW2 3799   4.337   6.916   0.392 -1.2327  0.8974 -3.0740
 1069SOL     OW 3800   3.466   2.595   2.519 -0.1459 -0.3784  0.0358
 1069SOL    HW1 3801   3.558   2.574   2.534  0.0050  0.2816  0.0505
 1069SOL    HW2 3802   3.427   2.513   2.490  0.4774 -0.6254 -0.1143
 1070SOL     OW 3803   1.920   6.092   5.640 -0.1478 -0.1588  0.1367
 1070SOL    HW1 3804   1.885   6.150   5.572  1.0702  0.1418 -0.2472
 1070SOL    HW2 3805   1.976   6.149   5.693  0.5644 -0.8497  0.1375
 1071SOL     OW 3806   1.745   3.853   2.405 -0.4756  0.3897 -0.1244
 1071SOL    HW1 3807   1.708   3.903   2.332 -0.5101  1.3699  0.5504
 1071SOL    HW2 3808   1.679   3.786   2.424 -0.1902 -0.2608 -1.3807
 1072SOL     OW 3809   4.475   6.783   5.358 -0.0158  0.3940  0.1431
 1072SOL    HW1 3810   4.386   6.747   5.357  0.2359 -0.2343  0.2956
 1072SOL    HW2 3811   4.462   6.877   5.350 -0.6964  0.3030  0.0975
 1073SOL     OW 3812   2.502   7.185   3.974 -0.2864  0.1938 -0.2094
 1073SOL    HW1 3813   2.431   7.245   3.995 -0.0191  0.4710 -0.0937
 1073SOL    HW2 3814   2.551   7.176   4.056 -1.3929 -1.6372  0.2946
 1074SOL     OW 3815   3.160   0.270   7.206  0.0927  0.2707  0.0317
 1074SOL    HW1 3816   3.141   0.318   7.126  0.5372 -0.7451 -0.6953
 1074SOL    HW2 3817   3.253   0.248   7.198 -0.8822 -3.6553 -1.2576
 1075SOL     OW 3818   4.652   0.650   3.954 -0.4132  0.4689 -0.0522
 1075SOL    HW1 3819   4.620   0.616   3.871 -1.3442  1.2397 -0.0310
 1075SOL    HW2 3820   4.572   0.672   4.002  0.1436  3.2293 -0.3086
 1076SOL     OW 3821   3.036   5.766   5.969 -0.3229  0.9143 -0.1871
 1076SOL    HW1 3822   3.004   5.752   6.058 -2.2243 -1.6091 -1.1841
 1076SOL    HW2 3823   2.997   5.850   5.943 -0.3845  1.2938  1.0960
 1077SOL     OW 3824   0.770   0.980   2.203  0.1992 -0.3152 -0.0355
 1077SOL    HW1 3825   0.739   0.898   2.243 -1.4969  1.2692  1.9988
 1077SOL    HW2 3826   0.840   1.010   2.261 -0.1158  0.3814 -0.0120
 1078SOL     OW 3827   0.184   5.273   5.470 -0.4208 -0.0748 -0.1274
 1078SOL    HW1 3828   0.120   5.277   5.399 -0.8161  0.1848  0.2383
 1078SOL    HW2 3829   0.159   5.197   5.522 -1.1121  0.6782  0.6510
 1079SOL     OW 3830   3.486   0.389   5.676  0.1253  0.1423 -0.2859
 1079SOL    HW1 3831   3.479   0.294   5.676 -0.5573  0.1909  0.5177
 1079SOL    HW2 3832   3.491   0.413   5.768  2.1362  0.7649 -0.5315
 1080SOL     OW 3833   1.945   2.811   1.817  0.2079  0.0653 -0.4360
 1080SOL    HW1 3834   1.974   2.874   1.751  0.1403 -0.7044 -1.2201
 1080SOL    HW2 3835   1.859   2.782   1.786  1.6519 -2.8807 -1.8867
 1081SOL     OW 3836   0.534   4.560   1.927  0.1408  0.1147 -0.3185
 1081SOL    HW1 3837   0.549   4.538   2.019  0.0308 -0.6378 -0.4742
 1081SOL    HW2 3838   0.608   4.520   1.881 -0.3835 -0.4629 -0.6758
 1082SOL     OW 3839   7.067   4.506   2.422 -0.3176 -0.3350  0.2040
 1082SOL    HW1 3840   7.019   4.460   2.353  0.7642  0.6116 -1.2333
 1082SOL    HW2 3841   7.110   4.578   2.376  3.3057 -1.7504  1.2280
 1083SOL     OW 3842   4.490   1.821   2.046 -0.7195  0.1135 -0.1465
 1083SOL    HW1 3843   4.415   1.879   2.032 -0.6346  0.1139 -0.5938
 1083SOL    HW2 3844   4.564   1.866   2.004 -0.5867 -0.1586 -0.2075
 1084SOL     OW 3845   1.274   3.995   4.776  0.2225  0.1378  0.1259
 1084SOL    HW1 3846   1.182   4.021   4.785 -0.1562 -1.4852  1.1773
 1084SOL    HW2 3847   1.283   3.920   4.835  1.4955 -1.5610 -2.1863
 1085SOL     OW 3848   0.900   7.065   3.907  0.1598 -0.5050  0.1772
 1085SOL    HW1 3849   0.958   7.042   3.980 -0.8423 -0.6712  0.9363
 1085SOL    HW2 3850   0.920   7.156   3.888 -0.2727 -0.1648  1.3266
 1086SOL     OW 3851   1.603   1.368   6.997  0.5217  0.1677  0.3502
 1086SOL    HW1 3852   1.544   1.377   6.922 -1.1802  0.6359  1.7216
 1086SOL    HW2 3853   1.691   1.377   6.959 -0.2998  0.1574 -1.6133
 1087SOL     OW 3854   1.134   3.246   0.142 -0.1362  0.0954 -0.3996
 1087SOL    HW1 3855   1.154   3.153   0.141  1.0072  0.3367 -1.9183
 1087SOL    HW2 3856   1.107   3.264   0.232  1.3487 -1.3404  0.3511
 1088SOL     OW 3857   3.028   5.080   1.783  0.4749  0.1543  0.6655
 1088SOL    HW1 3858   3.078   4.999   1.776  0.6065  0.2997 -0.0850
 1088SOL    HW2 3859   3.090   5.149   1.762 -0.0429  0.3372 -0.2804
 1089SOL     OW 3860   0.272   6.412   2.801 -0.2375 -0.1402  0.3537
 1089SOL    HW1 3861   0.368   6.415   2.802 -0.2525  0.9457 -0.5782
 1089SOL    HW2 3862   0.245   6.475   2.868 -0.2983 -0.9657  1.1120
 1090SOL     OW 3863   3.504   3.050   3.853 -0.2391 -0.2975 -0.1320
 1090SOL    HW1 3864   3.593   3.069   3.825  0.0457  0.4429  1.2402
 1090SOL    HW2 3865   3.493   2.956   3.838  0.9025 -0.4610  0.0612
 1091SOL     OW 3866   2.743   0.942   1.261 -0.0390 -0.0777 -0.0761
 1091SOL    HW1 3867   2.781   0.944   1.173  0.4231 -2.2001  0.0472
 1091SOL    HW2 3868   2.683   1.017   1.262  0.5404  0.4555 -1.9188
 1092SOL     OW 3869   1.253   3.805   0.386 -0.0225  0.1985 -0.3960
 1092SOL    HW1 3870   1.208   3.843   0.310 -0.9807 -0.2878 -0.0782
 1092SOL    HW2 3871   1.183   3.786   0.449  0.6346 -0.4572  0.1494
 1093SOL     OW 3872   4.076   4.747   6.971 -0.2189 -0.1552 -0.6164
 1093SOL    HW1 3873   4.163   4.758   6.932 -0.0581  0.4805 -0.0955
 1093SOL    HW2 3874   4.059   4.653   6.964  2.2289 -0.9916  2.7286
 1094SOL     OW 3875   2.322   4.495   1.040  0.0031 -0.4161  0.1453
 1094SOL    HW1 3876   2.279   4.415   1.069 -1.2266  0.0973 -0.2472
 1094SOL    HW2 3877   2.272   4.566   1.079 -0.2894  0.2209 -1.3283
 1095SOL     OW 3878   5.493   6.875   7.194 -0.1216 -0.5055  0.1099
 1095SOL    HW1 3879   5.431   6.803   7.181 -2.0701  1.3267 -1.0687
 1095SOL    HW2 3880   5.520   6.868   7.286 -3.4589 -0.2982  1.1576
 1096SOL     OW 3881   2.682   4.711   0.762 -0.6742 -0.1406 -0.2023
 1096SOL    HW1 3882   2.613   4.672   0.708  0.8022 -3.3617  0.1313
 1096SOL    HW2 3883   2.676   4.805   0.744 -1.3424 -0.9120 -4.6806
 1097SOL     OW 3884   5.748   1.563   4.852 -0.0167  0.3702  0.0571
 1097SOL    HW1 3885   5.739   1.654   4.825  1.9957  0.5424 -0.0887
 1097SOL    HW2 3886   5.817   1.565   4.919  1.9951 -1.4056 -1.9091
 1098SOL     OW 3887   3.146   4.958   7.199  0.6751 -1.0660 -0.5495
 1098SOL    HW1 3888   3.115   5.036   7.154 -0.3528  0.4323  2.6456
 1098SOL    HW2 3889   3.191   4.907   7.131 -1.8398  0.5092 -3.4991
 1099SOL     OW 3890   5.421   1.382   2.065 -0.1727  0.0474  0.0946
 1099SOL    HW1 3891   5.375   1.349   1.988  1.5371 -2.0826 -0.0378
 1099SOL    HW2 3892   5.373   1.346   2.139 -1.3262  1.4368  0.0538
 1100SOL     OW 3893   0.282   3.550   3.731  0.0873  1.0257 -0.0322
 1100SOL    HW1 3894   0.311   3.635   3.698  0.8935  0.6750 -0.2486
 1100SOL    HW2 3895   0.229   3.514   3.659 -0.2760  1.3578  0.0708
 1101SOL     OW 3896   0.109   0.168   3.656 -0.3421 -0.1653  0.6897
 1101SOL    HW1 3897   0.063   0.138   3.734  0.3895 -1.1005  0.7754
 1101SOL    HW2 3898   0.096   0.097   3.593  2.7842 -1.4513  1.4114
 1102SOL     OW 3899   5.820   2.558   1.482 -0.0441  0.1338  0.0205
 1102SOL    HW1 3900   5.763   2.524   1.551 -0.7875  1.2063 -0.0567
 1102SOL    HW2 3901   5.788   2.517   1.402 -0.4283  0.3998  0.0382
 1103SOL     OW 3902   6.368   6.844   1.081 -0.0548  0.0021  0.4456
 1103SOL    HW1 3903   6.392   6.781   1.149  1.2434  0.8034  0.7405
 1103SOL    HW2 3904   6.448   6.857   1.031 -1.2483 -1.3752 -1.9303
 1104SOL     OW 3905   6.671   1.135   5.492  0.8658 -0.0110  0.4516
 1104SOL    HW1 3906   6.729   1.061   5.473 -1.3915 -2.1149  1.4294
 1104SOL    HW2 3907   6.700   1.168   5.577  1.7709  0.1308  0.0915
 1105SOL     OW 3908   7.197   4.508   2.652 -0.0693 -0.1906  0.1668
 1105SOL    HW1 3909   7.156   4.550   2.576 -1.5388 -1.7082  0.0838
 1105SOL    HW2 3910   7.288   4.536   2.649 -0.8442  2.4181 -0.2717
 1106SOL     OW 3911   1.155   6.282   6.078 -0.1834 -0.0972 -0.5508
 1106SOL    HW1 3912   1.094   6.241   6.018 -0.9036 -0.8004  0.6410
 1106SOL    HW2 3913   1.197   6.209   6.123 -1.3971  0.4265  1.4991
 1107SOL     OW 3914   6.834   4.121   2.559  0.3975  0.2337 -0.3379
 1107SOL    HW1 3915   6.885   4.192   2.599  0.3834 -0.3939  0.8195
 1107SOL    HW2 3916   6.778   4.165   2.495  2.0010  0.9879 -1.2356
 1108SOL     OW 3917   6.543   0.427   1.401  0.4647  0.3704 -0.2851
 1108SOL    HW1 3918   6.608   0.468   1.459 -0.5101  0.4351  0.7741
 1108SOL    HW2 3919   6.531   0.339   1.436  0.5930  0.0659 -0.9882
 1109SOL     OW 3920   0.242   2.888   3.688  0.1711 -0.1619  0.1222
 1109SOL    HW1 3921   0.291   2.836   3.624  0.2031  1.1623 -0.9470
 1109SOL    HW2 3922   0.227   2.972   3.644 -0.7963  0.3582  1.4298
 1110SOL     OW 3923   3.277   0.500   3.356 -0.2274  0.4748  0.9656
 1110SOL    HW1 3924   3.308   0.518   3.445 -3.1906  1.6873  1.8224
 1110SOL    HW2 3925   3.304   0.575   3.305 -2.1191  1.7840  1.8284
 1111SOL     OW 3926   0.940   5.273   4.346 -0.5292 -0.1696  0.4113
 1111SOL    HW1 3927   1.016   5.292   4.400 -0.8816 -0.4345  1.0156
 1111SOL    HW2 3928   0.940   5.178   4.337  0.7102  0.0028 -1.8293
 1112SOL     OW 3929   0.571   4.647   6.644 -0.1458 -0.4146  0.0918
 1112SOL    HW1 3930   0.520   4.568   6.664 -1.6352  0.5141  0.0513
 1112SOL    HW2 3931   0.577   4.694   6.727  0.7678 -0.5790  0.1232
 1113SOL     OW 3932   6.648   1.693   2.806 -0.7465 -0.3895  0.1387
 1113SOL    HW1 3933   6.709   1.626   2.776  0.7553  0.2770  1.6113
 1113SOL    HW2 3934   6.589   1.646   2.865  0.6131 -0.3516  1.5631
 1114SOL     OW 3935   3.752   1.494   0.159 -0.0561  0.2857  0.1910
 1114SOL    HW1 3936   3.755   1.517   0.252  1.2086 -0.0264  0.2334
 1114SOL    HW2 3937   3.784   1.572   0.114 -0.5627  0.3972  0.0117
 1115SOL     OW 3938   3.877   6.492   4.182 -0.5207  0.2471  0.0311
 1115SOL    HW1 3939   3.887   6.568   4.240 -2.6063 -1.6243  2.9969
 1115SOL    HW2 3940   3.964   6.452   4.180  0.4248  2.2550 -0.9906
 1116SOL     OW 3941   0.126   4.852   0.439  0.3965  0.0363  0.5702
 1116SOL    HW1 3942   0.100   4.831   0.529  0.3666  0.1334  0.5837
 1116SOL    HW2 3943   0.082   4.786   0.386  0.5958 -0.1583  0.6478
 1117SOL     OW 3944   2.016   0.322   3.310 -0.1794 -0.1234  0.0676
 1117SOL    HW1 3945   1.959   0.294   3.382 -0.4350 -0.5802 -0.3128
 1117SOL    HW2 3946   1.969   0.394   3.269  0.1981  0.4671  0.6697
 1118SOL     OW 3947   5.690   6.886   0.603  0.2972  0.0502 -0.4598
 1118SOL    HW1 3948   5.780   6.890   0.571 -0.3099 -1.9803 -2.5861
 1118SOL    HW2 3949   5.674   6.792   0.617 -0.5434  0.6106  2.7760
 1119SOL     OW 3950   5.045   5.988   6.185  0.1490 -0.2790  0.1960
 1119SOL    HW1 3951   4.954   6.014   6.204  0.1667 -1.1774  1.4816
 1119SOL    HW2 3952   5.085   6.069   6.152 -0.6888  0.5339  1.1108
 1120SOL     OW 3953   5.075   1.377   0.172  0.0725  0.7192 -0.4551
 1120SOL    HW1 3954   5.008   1.417   0.116 -1.5468  0.0560  0.9684
 1120SOL    HW2 3955   5.107   1.449   0.226 -0.2819  0.8134 -0.3693
 1121SOL     OW 3956   4.136   0.874   1.352 -0.0808 -0.3201 -0.1516
 1121SOL    HW1 3957   4.094   0.812   1.410 -0.2519 -0.3868 -0.3482
 1121SOL    HW2 3958   4.065   0.929   1.318 -0.0526 -0.6178 -0.7065
 1122SOL     OW 3959   2.699   5.552   1.641 -1.0618  0.0948  0.4857
 1122SOL    HW1 3960   2.712   5.458   1.652 -1.8103 -0.1886 -0.8488
 1122SOL    HW2 3961   2.757   5.575   1.568 -0.7205  0.7190  0.9498
 1123SOL     OW 3962   1.161   2.721   1.358  0.1312 -0.1200 -0.2346
 1123SOL    HW1 3963   1.076   2.724   1.402  0.0922  0.9610 -0.3596
 1123SOL    HW2 3964   1.214   2.785   1.406  0.8931 -0.8328 -0.1187
 1124SOL     OW 3965   3.000   6.660   3.244 -0.0912  0.2754 -0.5136
 1124SOL    HW1 3966   2.952   6.726   3.294  2.0853  0.8023  0.9015
 1124SOL    HW2 3967   3.082   6.702   3.221  0.1892 -1.0299 -1.9292
 1125SOL     OW 3968   2.878   4.561   0.653  0.0642  0.0561  0.1188
 1125SOL    HW1 3969   2.802   4.608   0.686 -0.0372  0.6348 -0.9451
 1125SOL    HW2 3970   2.845   4.504   0.584  0.3242 -0.9851  0.8227
 1126SOL     OW 3971   5.009   5.497   0.710 -0.2368 -0.1224  0.1421
 1126SOL    HW1 3972   5.001   5.443   0.788  2.2420  2.0588  1.9951
 1126SOL    HW2 3973   4.936   5.559   0.716 -1.6043 -1.6211 -0.6866
 1127SOL     OW 3974   7.131   5.774   3.828  0.2568  0.0491 -0.4824
 1127SOL    HW1 3975   7.063   5.789   3.893  0.9701 -1.1709  0.5809
 1127SOL    HW2 3976   7.142   5.859   3.784 -0.3206  0.8511  0.9035
 1128SOL     OW 3977   0.453   1.443   4.801  0.4827  0.6277  0.2616
 1128SOL    HW1 3978   0.403   1.420   4.722 -0.0695  1.0775  0.4771
 1128SOL    HW2 3979   0.391   1.431   4.873  1.5926 -1.7930  0.8477
 1129SOL     OW 3980   3.507   1.637   5.322 -0.4318 -0.3067  0.1424
 1129SOL    HW1 3981   3.464   1.605   5.401  1.6799 -0.2253  1.3704
 1129SOL    HW2 3982   3.593   1.668   5.352  0.5002 -0.4742 -2.2086
 1130SOL     OW 3983   1.519   1.552   0.424 -0.0127  0.0971  0.3936
 1130SOL    HW1 3984   1.443   1.512   0.466 -0.7410  1.0519  0.0190
 1130SOL    HW2 3985   1.491   1.641   0.403  0.5450 -0.1568 -1.5646
 1131SOL     OW 3986   1.507   1.411   1.927 -0.1381  0.2970  0.1335
 1131SOL    HW1 3987   1.475   1.394   2.016 -1.0555 -0.6378 -0.3707
 1131SOL    HW2 3988   1.448   1.477   1.892 -1.9233 -1.8288 -0.9957
 1132SOL     OW 3989   1.774   1.061   1.269  0.1041  0.1384 -0.0804
 1132SOL    HW1 3990   1.812   1.125   1.209 -0.5772 -0.8160 -1.5769
 1132SOL    HW2 3991   1.711   1.111   1.321 -0.4383  0.6935 -1.2427
 1133SOL     OW 3992   0.529   5.280   5.756  1.0372  0.0668 -0.3342
 1133SOL    HW1 3993   0.598   5.219   5.780 -0.3800 -2.3726 -2.3076
 1133SOL    HW2 3994   0.568   5.335   5.688  1.3858 -0.6134 -0.6871
 1134SOL     OW 3995   0.021   4.429   0.899  0.6602 -0.9116  0.0173
 1134SOL    HW1 3996   0.044   4.502   0.956 -0.6280 -0.4543 -0.0410
 1134SOL    HW2 3997   0.088   4.429   0.831  0.4928  0.3882 -0.1437
 1135SOL     OW 3998   7.015   1.453   3.283 -0.6046 -0.2087 -0.0194
 1135SOL    HW1 3999   7.102   1.491   3.290 -0.0838 -1.4180  0.2182
 1135SOL    HW2 4000   6.974   1.500   3.210  1.5059 -1.9970 -2.4501
 1136SOL     OW 4001   2.258   3.379   0.893 -0.2302  0.2335 -0.1844
 1136SOL    HW1 4002   2.233   3.315   0.960 -0.8718  0.6541 -0.0176
 1136SOL    HW2 4003   2.338   3.343   0.854  0.0058 -0.1421  0.6298
 1137SOL     OW 4004   2.862   0.554   2.062  0.5504 -0.0735  0.2731
 1137SOL    HW1 4005   2.785   0.499   2.061 -0.1341  0.8732 -0.2690
 1137SOL    HW2 4006   2.908   0.532   2.143  0.3698 -1.5282 -0.0165
 1138SOL     OW 4007   5.007   3.213   6.746 -0.0402 -0.0943  0.2019
 1138SOL    HW1 4008   4.925   3.208   6.795 -0.4728 -0.4582 -0.5433
 1138SOL    HW2 4009   5.054   3.133   6.769 -0.5136 -0.5614 -0.4463
 1139SOL     OW 4010   1.877   2.065   0.204  0.0767  0.3886 -0.3636
 1139SOL    HW1 4011   1.958   2.078   0.154 -0.2279  0.4910 -0.8400
 1139SOL    HW2 4012   1.867   2.145   0.255  0.4821  0.2122 -0.0067
 1140SOL     OW 4013   5.271   3.035   2.963  0.4406  0.1261 -0.6004
 1140SOL    HW1 4014   5.301   3.014   3.052 -1.9422  2.2254  0.7525
 1140SOL    HW2 4015   5.347   3.017   2.908  1.6320 -2.2750  1.6856
 1141SOL     OW 4016   6.011   5.353   3.477 -0.0925  0.3908 -0.4187
 1141SOL    HW1 4017   6.031   5.444   3.498  2.2347 -0.2003 -0.0179
 1141SOL    HW2 4018   5.921   5.356   3.444 -0.9165  2.4894  1.8578
 1142SOL     OW 4019   0.051   6.217   0.055 -0.5142 -0.4622 -0.2273
 1142SOL    HW1 4020   0.076   6.152  -0.010 -0.2931 -0.9858  0.3820
 1142SOL    HW2 4021  -0.043   6.201   0.071 -0.1184 -1.6571  1.0627
 1143SOL     OW 4022   2.141   5.372   2.280 -0.3620  0.3045  0.5335
 1143SOL    HW1 4023   2.168   5.414   2.198 -3.3711  0.3283 -0.5149
 1143SOL    HW2 4024   2.216   5.319   2.306  1.4336  1.9681 -1.0900
 1144SOL     OW 4025   3.775   2.365   1.305 -0.3852  0.2959 -0.3440
 1144SOL    HW1 4026   3.785   2.346   1.212  0.6367 -0.7348 -0.0325
 1144SOL    HW2 4027   3.723   2.292   1.339  1.1564 -0.5367  0.3092
 1145SOL     OW 4028   1.449   4.248   3.813 -0.3080 -0.6679  0.1498
 1145SOL    HW1 4029   1.458   4.248   3.718  1.8719  0.6873  0.3223
 1145SOL    HW2 4030   1.455   4.156   3.838  0.9193 -0.8772 -0.8816
 1146SOL     OW 4031   5.093   7.122   6.032  0.6031 -0.4109 -0.2095
 1146SOL    HW1 4032   5.084   7.038   6.077  0.3930 -0.3484 -0.1352
 1146SOL    HW2 4033   5.079   7.188   6.100  2.6036 -0.2894  0.1388
 1147SOL     OW 4034   4.753   4.301   2.736  0.0498  0.4760 -0.0516
 1147SOL    HW1 4035   4.693   4.287   2.809  0.1219 -0.7422 -0.2228
 1147SOL    HW2 4036   4.810   4.224   2.737  1.7778  1.7396  0.2687
 1148SOL     OW 4037   2.248   4.627   3.673 -0.0896  0.4063  0.6424
 1148SOL    HW1 4038   2.155   4.618   3.651  0.0593  0.5843 -0.0565
 1148SOL    HW2 4039   2.287   4.671   3.598  0.6639 -0.1381  0.7015
 1149SOL     OW 4040   2.658   6.165   6.957 -0.0837 -0.4423 -0.0548
 1149SOL    HW1 4041   2.749   6.165   6.926  1.1607 -1.5755  3.3076
 1149SOL    HW2 4042   2.643   6.076   6.988 -1.8789  0.0953  0.6851
 1150SOL     OW 4043   1.590   3.727   4.501  0.0114 -0.3376  0.2634
 1150SOL    HW1 4044   1.636   3.668   4.441 -0.0316 -0.2736  0.1677
 1150SOL    HW2 4045   1.526   3.772   4.446 -0.7797 -1.0746  0.5714
 1151SOL     OW 4046   0.493   0.847   4.391 -0.2315  0.1193  0.2849
 1151SOL    HW1 4047   0.522   0.781   4.454  1.2483  0.3866 -0.0971
 1151SOL    HW2 4048   0.446   0.796   4.324 -0.6503 -0.3222  0.9016
 1152SOL     OW 4049   5.546   3.872   2.418 -0.2156  0.5601 -0.1686
 1152SOL    HW1 4050   5.626   3.904   2.460  1.4657 -2.0611 -1.2717
 1152SOL    HW2 4051   5.568   3.868   2.325 -2.3425  1.7530 -0.7617
 1153SOL     OW 4052   4.397   4.173   1.421  0.4748 -0.3708 -0.0227
 1153SOL    HW1 4053   4.312   4.197   1.458  0.6840  0.2339  0.0653
 1153SOL    HW2 4054   4.442   4.128   1.492  0.8284  0.6798  0.4086
 1154SOL     OW 4055   3.259   6.073   7.092  1.0322 -0.4318  0.5584
 1154SOL    HW1 4056   3.187   6.016   7.065 -0.3348  1.8142 -0.6943
 1154SOL    HW2 4057   3.336   6.017   7.089  0.1644 -1.6167 -3.2818
 1155SOL     OW 4058   3.993   6.739   4.023 -0.6523 -0.0824 -0.0761
 1155SOL    HW1 4059   3.914   6.749   4.077 -1.3266  0.6902 -1.1914
 1155SOL    HW2 4060   4.019   6.829   4.001 -0.8365 -0.4052 -1.6699
 1156SOL     OW 4061   0.702   4.152   0.370  0.6220  0.4224 -0.1469
 1156SOL    HW1 4062   0.663   4.078   0.322  1.5617 -0.0843 -0.1511
 1156SOL    HW2 4063   0.725   4.115   0.456  0.2800  0.9459  0.1708
 1157SOL     OW 4064   4.937   1.168   4.660 -0.2819 -0.1214 -0.5071
 1157SOL    HW1 4065   5.021   1.209   4.640 -1.1951  1.5976 -0.9745
 1157SOL    HW2 4066   4.960   1.085   4.702  1.6306 -0.2440 -1.7278
 1158SOL     OW 4067   6.760   0.997   1.415 -0.1376 -0.0530  0.8565
 1158SOL    HW1 4068   6.693   1.057   1.447 -0.0800  0.1255  0.6481
 1158SOL    HW2 4069   6.770   0.932   1.484 -1.0939 -0.5412  0.5452
 1159SOL     OW 4070   3.331   5.374   1.939 -0.0698 -0.4613  0.2991
 1159SOL    HW1 4071   3.340   5.295   1.993  0.8154  1.5122  3.1585
 1159SOL    HW2 4072   3.257   5.421   1.976 -0.0389  0.4978 -0.8245
 1160SOL     OW 4073   0.000   5.360   6.537  0.4689  0.0432  0.2682
 1160SOL    HW1 4074  -0.045   5.311   6.605  1.1130  1.2941  1.6061
 1160SOL    HW2 4075   0.090   5.368   6.568  0.3339  2.2104  0.1639
 1161SOL     OW 4076   6.268   0.685   7.158 -0.1672 -0.0533  0.0537
 1161SOL    HW1 4077   6.330   0.753   7.131 -0.0655 -0.6006 -1.0996
 1161SOL    HW2 4078   6.323   0.612   7.187 -0.2752 -0.2940 -0.3490
 1162SOL     OW 4079   3.856   2.413   2.890 -0.2861  0.6339 -0.7965
 1162SOL    HW1 4080   3.823   2.481   2.832  1.5525  0.7508 -1.7554
 1162SOL    HW2 4081   3.941   2.446   2.920 -0.3235 -0.2983  0.3915
 1163SOL     OW 4082   1.750   2.381   3.468 -0.1739 -0.0515 -0.1028
 1163SOL    HW1 4083   1.816   2.348   3.529 -0.9452 -1.1509  0.1600
 1163SOL    HW2 4084   1.679   2.413   3.524 -0.1333  0.5612 -0.3947
 1164SOL     OW 4085   3.823   5.402   3.145 -0.1873  0.3215 -0.5418
 1164SOL    HW1 4086   3.862   5.401   3.232 -1.3300  0.1144 -0.0265
 1164SOL    HW2 4087   3.767   5.479   3.145  1.1334  1.3259 -1.7028
 1165SOL     OW 4088   3.077   4.575   1.644 -0.1540 -0.1331 -0.2990
 1165SOL    HW1 4089   3.078   4.632   1.567  1.8788 -1.9843 -1.7167
 1165SOL    HW2 4090   3.014   4.507   1.622 -1.8189  0.9418  0.9728
 1166SOL     OW 4091   0.446   3.647   0.763 -0.6444  0.4732  0.1052
 1166SOL    HW1 4092   0.399   3.730   0.757  1.3424  1.5343 -1.0686
 1166SOL    HW2 4093   0.485   3.635   0.676  0.7438 -0.6922  0.8774
 1167SOL     OW 4094   2.369   1.683   6.568  0.5734 -0.3209 -0.5216
 1167SOL    HW1 4095   2.453   1.716   6.534  0.9317 -1.0254 -0.3267
 1167SOL    HW2 4096   2.366   1.592   6.541  0.5854 -0.7260  0.8173
 1168SOL     OW 4097   2.143   4.125   7.050  0.4357 -0.7628 -0.5527
 1168SOL    HW1 4098   2.170   4.136   7.141  0.7488 -0.5101 -0.6731
 1168SOL    HW2 4099   2.050   4.102   7.054  0.2929 -0.1183 -0.2012
 1169SOL     OW 4100   4.092   0.490   0.410 -0.3109 -0.0277  0.0089
 1169SOL    HW1 4101   4.010   0.530   0.440  0.3637 -0.7953  3.0356
 1169SOL    HW2 4102   4.137   0.560   0.363 -1.3866  1.2831  0.8907
 1170SOL     OW 4103   5.170   1.964   1.186 -0.0507  0.5736  0.0859
 1170SOL    HW1 4104   5.081   1.985   1.214 -0.1185  1.9841 -1.1187
 1170SOL    HW2 4105   5.160   1.884   1.135 -0.4303  0.0011  1.0393
 1171SOL     OW 4106   2.103   5.516   7.000 -0.3522  0.1593 -0.2457
 1171SOL    HW1 4107   2.009   5.502   6.987  0.2289 -1.3474 -3.2475
 1171SOL    HW2 4108   2.138   5.429   7.020  0.5265  0.5712  0.0354
 1172SOL     OW 4109   6.901   0.538   5.648  0.6001  0.0153  0.5470
 1172SOL    HW1 4110   6.845   0.522   5.571  1.7172 -0.4609 -0.1914
 1172SOL    HW2 4111   6.851   0.504   5.722  0.8594 -2.5917 -0.3993
 1173SOL     OW 4112   3.558   5.914   0.675  0.5010  0.0641  0.3290
 1173SOL    HW1 4113   3.513   5.931   0.758  0.9187 -1.8569  0.9723
 1173SOL    HW2 4114   3.496   5.943   0.608 -0.0563  1.1413  1.2880
 1174SOL     OW 4115   4.387   0.759   0.553  0.0157 -0.1594  0.3816
 1174SOL    HW1 4116   4.459   0.817   0.527 -0.4181 -0.4835 -1.6046
 1174SOL    HW2 4117   4.353   0.797   0.633 -0.1636  2.2355 -0.8151
 1175SOL     OW 4118   3.094   3.701   5.772 -0.1846  0.0645 -0.0186
 1175SOL    HW1 4119   3.167   3.672   5.827  0.5529  1.4351 -0.2523
 1175SOL    HW2 4120   3.015   3.674   5.820  0.4659 -0.1760  0.9188
 1176SOL     OW 4121   4.956   5.038   0.637 -0.2226  0.6985  0.0965
 1176SOL    HW1 4122   5.049   5.057   0.641 -0.3394  1.1421  0.7993
 1176SOL    HW2 4123   4.924   5.051   0.726 -0.3292 -2.8696  0.6450
 1177SOL     OW 4124   2.849   2.076   4.698  0.1995 -0.0749  0.0652
 1177SOL    HW1 4125   2.927   2.046   4.746  0.0767 -1.2317 -0.4557
 1177SOL    HW2 4126   2.876   2.078   4.607 -0.6278 -1.3187 -0.2241
 1178SOL     OW 4127   6.650   1.583   0.598 -0.5789 -0.3576  0.2147
 1178SOL    HW1 4128   6.708   1.520   0.557 -0.8527 -1.3171  1.2919
 1178SOL    HW2 4129   6.562   1.550   0.581 -0.7402 -0.0208  0.3796
 1179SOL     OW 4130   4.051   1.572   0.473 -1.1856 -0.3718  0.5356
 1179SOL    HW1 4131   4.100   1.653   0.458 -0.6294 -0.8837 -0.4462
 1179SOL    HW2 4132   4.119   1.507   0.493 -1.3655 -1.3304 -1.8484
 1180SOL     OW 4133   3.916   5.986   6.699  0.3652 -0.0762 -0.6083
 1180SOL    HW1 4134   3.879   5.900   6.677 -0.4520 -0.0065  0.4424
 1180SOL    HW2 4135   4.011   5.973   6.698  0.2460 -0.9652 -0.5535
 1181SOL     OW 4136   3.728   2.210   0.090 -0.4567 -0.3699 -0.0963
 1181SOL    HW1 4137   3.647   2.221   0.040 -0.1444  2.4064 -0.0720
 1181SOL    HW2 4138   3.699   2.209   0.182 -0.7199 -2.2587 -0.1872
 1182SOL     OW 4139   7.199   6.784   6.167 -0.1492 -0.0261 -0.0708
 1182SOL    HW1 4140   7.177   6.876   6.182 -1.3842 -0.4504  0.8704
 1182SOL    HW2 4141   7.116   6.745   6.139  0.6498 -0.6059 -1.6750
 1183SOL     OW 4142   6.002   1.008   2.640  0.1304 -0.1319 -0.1251
 1183SOL    HW1 4143   6.042   0.954   2.708  1.2968  1.0951  0.1898
 1183SOL    HW2 4144   6.009   1.098   2.673 -4.4698  0.0170  0.7202
 1184SOL     OW 4145   1.967   4.131   2.878  0.3021 -0.2765 -0.5192
 1184SOL    HW1 4146   1.984   4.212   2.925  1.4226 -1.6050  1.4461
 1184SOL    HW2 4147   2.016   4.140   2.796  1.6203  0.4330  0.3277
 1185SOL     OW 4148   1.651   1.659   0.979  0.0917  0.4812  0.0233
 1185SOL    HW1 4149   1.649   1.709   0.897  1.1676 -0.5697 -0.6627
 1185SOL    HW2 4150   1.561   1.661   1.011 -0.0249  2.2780 -0.3401
 1186SOL     OW 4151   0.883   6.135   3.815 -0.2872  0.3321  0.0941
 1186SOL    HW1 4152   0.816   6.132   3.747  0.2214 -1.0950 -0.3514
 1186SOL    HW2 4153   0.960   6.173   3.772 -0.6798  1.6545  0.5178
 1187SOL     OW 4154   3.118   0.796   6.539 -0.0588  0.4368 -0.3978
 1187SOL    HW1 4155   3.068   0.868   6.499 -1.2476 -0.7130 -1.0230
 1187SOL    HW2 4156   3.204   0.802   6.498 -0.9375 -0.0534 -2.3688
 1188SOL     OW 4157   3.248   5.064   3.213  0.0063  0.2568  0.2235
 1188SOL    HW1 4158   3.178   5.061   3.279  1.0398 -1.1392  1.2974
 1188SOL    HW2 4159   3.297   5.144   3.234 -0.8615  0.8941 -0.1325
 1189SOL     OW 4160   4.076   1.911   7.087  0.0644  0.2846  0.4236
 1189SOL    HW1 4161   4.090   1.953   7.173  1.2705 -2.0269  1.4015
 1189SOL    HW2 4162   4.042   1.824   7.108  0.3180 -0.2840 -1.4617
 1190SOL     OW 4163   4.259   1.538   5.075 -0.1636 -0.0014  0.1189
 1190SOL    HW1 4164   4.192   1.604   5.058 -0.9173  0.0908  3.2166
 1190SOL    HW2 4165   4.253   1.521   5.169  1.2196 -3.1958 -0.3150
 1191SOL     OW 4166   0.774   1.873   6.556 -0.6020  0.2569 -0.2837
 1191SOL    HW1 4167   0.735   1.956   6.583 -1.9525 -0.9055  1.4113
 1191SOL    HW2 4168   0.759   1.869   6.461 -1.3684  1.4886 -0.2198
 1192SOL     OW 4169   0.295   1.761   4.028 -0.2093 -0.0950 -0.1367
 1192SOL    HW1 4170   0.367   1.749   4.090  0.5796 -1.1385 -1.2476
 1192SOL    HW2 4171   0.229   1.809   4.078  0.7236 -0.2637  1.2882
 1193SOL     OW 4172   3.259   3.164   2.066  0.2114 -0.3757  0.0575
 1193SOL    HW1 4173   3.283   3.236   2.125 -2.1859 -0.0977  0.7731
 1193SOL    HW2 4174   3.244   3.206   1.982 -1.7922  0.1192  0.6199
 1194SOL     OW 4175   1.503   0.249   5.781 -0.0973  0.0572 -0.1098
 1194SOL    HW1 4176   1.515   0.301   5.861 -1.3783 -2.7694  2.0358
 1194SOL    HW2 4177   1.590   0.216   5.760  0.2572  0.8695  0.0733
 1195SOL     OW 4178   3.764   2.023   5.986  0.1334 -0.1962 -0.1298
 1195SOL    HW1 4179   3.685   1.984   5.948  0.4240 -0.7696 -0.1546
 1195SOL    HW2 4180   3.775   2.105   5.938 -0.1300 -0.3833 -0.5164
 1196SOL     OW 4181   2.483   4.483   3.651  0.1537  0.0768  0.4400
 1196SOL    HW1 4182   2.403   4.534   3.662  0.6160  0.6812  1.0773
 1196SOL    HW2 4183   2.456   4.392   3.665 -0.6604  0.1563 -0.6211
 1197SOL     OW 4184   4.944   3.995   0.937  0.1114 -0.7590 -0.6386
 1197SOL    HW1 4185   4.945   4.089   0.919 -0.3654 -0.4543  0.9049
 1197SOL    HW2 4186   5.017   3.981   0.998 -1.7294 -0.8719  1.5977
 1198SOL     OW 4187   3.454   7.233   5.492  0.3325  0.1011 -0.3249
 1198SOL    HW1 4188   3.455   7.269   5.580  0.6570  0.2981 -0.4072
 1198SOL    HW2 4189   3.487   7.304   5.436  1.6915 -0.5562 -0.3904
 1199SOL     OW 4190   6.165   3.501   5.630 -0.5682  0.3252 -0.0998
 1199SOL    HW1 4191   6.090   3.557   5.647  0.1209  1.0152  0.6948
 1199SOL    HW2 4192   6.225   3.555   5.578 -0.4525 -0.0941 -0.4093
 1200SOL     OW 4193   0.566   7.073   2.445  0.6741 -0.5672  0.1594
 1200SOL    HW1 4194   0.573   7.061   2.350 -0.2211  0.7696 -0.1041
 1200SOL    HW2 4195   0.558   6.984   2.480  0.8093 -1.0648 -1.0398
 1201SOL     OW 4196   3.644   2.915   3.261  0.1710  0.7604  0.0137
 1201SOL    HW1 4197   3.646   3.002   3.302 -1.7280 -0.0536  1.9328
 1201SOL    HW2 4198   3.736   2.892   3.249  0.7448  1.8417  2.0962
 1202SOL     OW 4199   5.638   1.838   0.473 -0.1651  0.1592 -0.3469
 1202SOL    HW1 4200   5.569   1.904   0.474  0.1002  0.4637 -1.4244
 1202SOL    HW2 4201   5.661   1.829   0.380 -0.4522 -1.7112 -0.2575
 1203SOL     OW 4202   1.046   3.449   7.236  0.1180  0.0044 -0.1148
 1203SOL    HW1 4203   1.088   3.386   7.296  1.1170 -1.1878 -1.9995
 1203SOL    HW2 4204   0.958   3.414   7.223  0.1409 -0.1326  0.0922
 1204SOL     OW 4205   5.465   3.498   0.705  0.2783 -0.1639  0.1774
 1204SOL    HW1 4206   5.556   3.512   0.679  0.2262  0.6325  0.3958
 1204SOL    HW2 4207   5.415   3.512   0.625  0.5048 -2.8613 -0.4855
 1205SOL     OW 4208   4.784   0.769   0.439 -0.2649 -0.0240  0.0886
 1205SOL    HW1 4209   4.714   0.824   0.474 -0.8860  0.1782 -1.4232
 1205SOL    HW2 4210   4.796   0.701   0.505 -1.0031  0.6713  0.9614
 1206SOL     OW 4211   1.934   3.630   2.870  0.6568  0.3614 -0.0560
 1206SOL    HW1 4212   1.957   3.723   2.863 -0.7913  0.8099  1.0013
 1206SOL    HW2 4213   1.849   3.629   2.913 -0.0377 -1.4058 -1.4037
 1207SOL     OW 4214   5.004   3.406   2.990  0.4898  0.1224 -0.1938
 1207SOL    HW1 4215   4.953   3.450   2.922  0.1639 -0.7408 -0.5118
 1207SOL    HW2 4216   4.983   3.454   3.070  0.0651  0.4879 -0.5198
 1208SOL     OW 4217   6.639   1.628   6.201  0.0997  0.2607  0.1409
 1208SOL    HW1 4218   6.666   1.545   6.241  2.1546  1.1708  0.6754
 1208SOL    HW2 4219   6.554   1.608   6.161  0.4810 -2.0527  0.4024
 1209SOL     OW 4220   3.257   1.988   1.131  0.1760  0.0413  0.6224
 1209SOL    HW1 4221   3.202   1.995   1.053 -0.1888  0.5849  0.9315
 1209SOL    HW2 4222   3.223   1.911   1.177  1.0125 -0.8525 -0.2448
 1210SOL     OW 4223   4.398   5.644   4.047 -0.0235 -0.7390  0.0507
 1210SOL    HW1 4224   4.336   5.715   4.062 -0.3154 -1.0878  0.4800
 1210SOL    HW2 4225   4.403   5.597   4.130 -0.4020 -1.6827 -0.4523
 1211SOL     OW 4226   3.158   2.380   5.529 -0.2986 -0.3906 -0.5431
 1211SOL    HW1 4227   3.226   2.414   5.471  1.3132 -1.8359  0.4685
 1211SOL    HW2 4228   3.133   2.455   5.583 -0.4796  0.4847 -1.8077
 1212SOL     OW 4229   6.379   5.136   3.398  0.0665 -0.0759  0.1069
 1212SOL    HW1 4230   6.370   5.057   3.345  1.8902 -0.0312 -0.3033
 1212SOL    HW2 4231   6.440   5.111   3.468  0.2917  0.8196  0.2412
 1213SOL     OW 4232   6.837   5.586   6.102  0.1018 -0.3885 -0.0805
 1213SOL    HW1 4233   6.781   5.550   6.033  0.1423  0.8647 -0.7702
 1213SOL    HW2 4234   6.781   5.587   6.180  0.3198 -2.6281  0.1511
 1214SOL     OW 4235   3.720   4.023   5.334  0.8866 -0.2852  0.0518
 1214SOL    HW1 4236   3.815   4.029   5.345  1.1349 -2.4314 -0.8364
 1214SOL    HW2 4237   3.705   4.044   5.242  0.4351  0.5457  0.3078
 1215SOL     OW 4238   2.925   3.049   3.676 -0.1718  0.4271 -0.5564
 1215SOL    HW1 4239   2.884   3.023   3.758 -0.8595  0.3975 -0.9045
 1215SOL    HW2 4240   3.011   3.082   3.701 -0.3763  0.4114  0.1727
 1216SOL     OW 4241   3.038   2.141   5.465  0.8008 -0.4795  0.9762
 1216SOL    HW1 4242   3.077   2.067   5.513  0.5335 -0.0900  1.8115
 1216SOL    HW2 4243   3.084   2.218   5.499  3.0101 -0.4698 -1.8637
 1217SOL     OW 4244   6.982   4.436   2.166  0.0513 -0.7620  0.2748
 1217SOL    HW1 4245   7.030   4.376   2.108 -0.6428 -0.4581 -0.6163
 1217SOL    HW2 4246   6.956   4.509   2.109 -0.6985 -0.4964  0.9532
 1218SOL     OW 4247   5.957   1.923   3.347 -0.2074  0.7754  0.2826
 1218SOL    HW1 4248   6.008   1.880   3.416  2.6059  2.4354 -0.6816
 1218SOL    HW2 4249   5.955   2.015   3.373 -0.4753  1.1479 -1.0362
 1219SOL     OW 4250   5.763   6.483   6.159  0.6542 -0.2083 -0.2185
 1219SOL    HW1 4251   5.840   6.428   6.172  2.3430  2.3587  1.0016
 1219SOL    HW2 4252   5.797   6.572   6.153 -2.1732  0.9613  0.0495
 1220SOL     OW 4253   5.050   4.410   6.512  0.0671  0.0669 -0.1126
 1220SOL    HW1 4254   5.027   4.432   6.422  1.7501  0.1109 -0.5416
 1220SOL    HW2 4255   5.142   4.435   6.521  0.8842 -2.9290  0.6249
 1221SOL     OW 4256   5.731   1.326   3.683 -0.1435 -0.2477  0.2259
 1221SOL    HW1 4257   5.670   1.266   3.726  0.2221 -1.2072 -0.5799
 1221SOL    HW2 4258   5.808   1.325   3.739 -0.3812 -0.0296  0.5592
 1222SOL     OW 4259   1.877   3.137   5.554  0.0400 -0.0521  0.1018
 1222SOL    HW1 4260   1.828   3.214   5.525 -0.3611  0.3548  1.8337
 1222SOL    HW2 4261   1.810   3.079   5.593  0.7722  0.0481  1.5276
 1223SOL     OW 4262   0.292   1.155   5.491 -0.6392 -0.2497  0.4202
 1223SOL    HW1 4263   0.276   1.203   5.572 -0.8440 -0.1317  0.3098
 1223SOL    HW2 4264   0.236   1.197   5.426  0.2127  0.2567 -0.0049
 1224SOL     OW 4265   5.479   6.747   4.145 -0.3592 -0.9530 -0.0806
 1224SOL    HW1 4266   5.465   6.833   4.107 -0.6863 -0.4132  1.2301
 1224SOL    HW2 4267   5.391   6.715   4.164 -0.1892 -1.0514  0.5631
 1225SOL     OW 4268   4.822   0.991   6.000 -0.1565  0.2152 -0.0448
 1225SOL    HW1 4269   4.795   0.964   6.088 -1.3608  0.1976 -0.4088
 1225SOL    HW2 4270   4.848   1.083   6.011 -2.1221  0.7971 -0.0113
 1226SOL     OW 4271   6.623   1.293   0.279 -0.0130 -0.1101  0.1026
 1226SOL    HW1 4272   6.573   1.370   0.250 -0.1423 -0.0626  0.4532
 1226SOL    HW2 4273   6.687   1.329   0.340 -1.2957 -0.5370  1.7115
 1227SOL     OW 4274   6.928   6.415   2.524  0.2532  0.3679 -0.6796
 1227SOL    HW1 4275   6.983   6.364   2.465  0.8740  2.5334 -2.0457
 1227SOL    HW2 4276   6.930   6.504   2.487 -2.1441  1.0112  0.6724
 1228SOL     OW 4277   2.412   6.958   1.017  0.1257 -0.1965  1.0170
 1228SOL    HW1 4278   2.354   6.970   0.942  1.2354 -0.2392  0.1459
 1228SOL    HW2 4279   2.353   6.958   1.093 -0.7399  2.9080  0.4270
 1229SOL     OW 4280   5.225   0.215   3.582  0.1768 -0.7187  0.1275
 1229SOL    HW1 4281   5.250   0.269   3.657 -0.3015 -0.5739  0.1814
 1229SOL    HW2 4282   5.186   0.277   3.520 -2.4371 -1.3248  1.1051
 1230SOL     OW 4283   6.908   2.620   3.356  0.5754  0.1019  0.3820
 1230SOL    HW1 4284   6.978   2.566   3.394  0.1777 -0.4692  0.3132
 1230SOL    HW2 4285   6.886   2.682   3.426  0.2264 -0.5886  0.8914
 1231SOL     OW 4286   7.218   5.881   4.622  0.8534  0.1846  0.8686
 1231SOL    HW1 4287   7.292   5.823   4.608  1.4631  0.7142  1.8116
 1231SOL    HW2 4288   7.231   5.953   4.562  0.4121 -0.3470  0.1223
 1232SOL     OW 4289   3.895   3.818   6.012 -0.9142  0.7093 -0.7081
 1232SOL    HW1 4290   3.877   3.888   6.074  0.1764 -0.7411  1.2905
 1232SOL    HW2 4291   3.979   3.841   5.973  0.3351 -0.3978  1.2922
 1233SOL     OW 4292   6.778   3.453   0.033 -0.3319  0.2999 -0.0866
 1233SOL    HW1 4293   6.710   3.508   0.071 -0.2387  0.5379 -0.2645
 1233SOL    HW2 4294   6.828   3.511  -0.024  0.9224  0.4544  1.1433
 1234SOL     OW 4295   2.965   4.978   5.376  0.3985  0.4324 -0.0023
 1234SOL    HW1 4296   3.046   5.023   5.349  0.2592  1.2626  0.9246
 1234SOL    HW2 4297   2.932   5.031   5.449 -0.4360 -0.4888  0.2936
 1235SOL     OW 4298   0.079   0.328   0.726  0.3103  0.1053 -0.4909
 1235SOL    HW1 4299   0.121   0.399   0.774 -1.9233 -1.0271  3.3480
 1235SOL    HW2 4300   0.151   0.288   0.676  2.6835  1.6505  1.5539
 1236SOL     OW 4301   6.252   6.127   3.784 -0.4090 -0.1690 -0.2419
 1236SOL    HW1 4302   6.324   6.140   3.723 -1.5309  1.0071 -1.3478
 1236SOL    HW2 4303   6.181   6.093   3.730 -1.4959  1.1204  0.3502
 1237SOL     OW 4304   5.324   5.577   0.325 -0.0888 -0.5969 -0.2468
 1237SOL    HW1 4305   5.288   5.575   0.414 -0.3695 -0.1263 -0.3513
 1237SOL    HW2 4306   5.385   5.503   0.323 -0.8444 -1.2237  0.0096
 1238SOL     OW 4307   6.226   0.066   4.644  0.1719  0.6991  0.1185
 1238SOL    HW1 4308   6.311   0.106   4.658 -0.7701  2.0638  2.1211
 1238SOL    HW2 4309   6.165   0.140   4.641 -0.8673 -0.2032 -2.0020
 1239SOL     OW 4310   4.887   6.627   5.175 -0.2585  0.0967  0.0772
 1239SOL    HW1 4311   4.943   6.704   5.164 -1.6011  0.9376 -1.0964
 1239SOL    HW2 4312   4.864   6.627   5.268  1.8274 -0.3829  0.6215
 1240SOL     OW 4313   1.006   0.918   2.982  0.1922  0.4190 -0.0756
 1240SOL    HW1 4314   0.937   0.968   2.938  0.5240  1.5388  0.6665
 1240SOL    HW2 4315   0.963   0.881   3.060  0.1766  0.2621 -0.1570
 1241SOL     OW 4316   3.816   7.183   6.075 -0.0860 -0.0302  0.1247
 1241SOL    HW1 4317   3.764   7.107   6.102 -2.5989  1.5498 -0.0908
 1241SOL    HW2 4318   3.836   7.229   6.156  0.6181 -0.3840  0.1603
 1242SOL     OW 4319   2.948   4.040   4.709 -0.2059 -0.2912  0.2248
 1242SOL    HW1 4320   2.968   4.026   4.802 -0.3640 -1.6911  0.0589
 1242SOL    HW2 4321   2.857   4.072   4.709 -0.7211 -1.7380  0.4591
 1243SOL     OW 4322   7.189   4.116   6.794  0.3612  0.0541 -0.4068
 1243SOL    HW1 4323   7.221   4.028   6.814  1.3257  0.3266 -0.7347
 1243SOL    HW2 4324   7.124   4.103   6.725 -1.3679 -0.6590  1.2737
 1244SOL     OW 4325   3.660   6.628   0.102  0.3453  0.2052 -0.1099
 1244SOL    HW1 4326   3.651   6.598   0.192 -0.4359 -2.4638 -1.0276
 1244SOL    HW2 4327   3.745   6.595   0.074 -0.4913 -1.1016 -1.1231
 1245SOL     OW 4328   0.599   5.176   2.609  0.5290  0.0323  0.4111
 1245SOL    HW1 4329   0.682   5.220   2.628  0.1431  0.4832  1.0605
 1245SOL    HW2 4330   0.580   5.198   2.518  0.5741  0.8329  0.5942
 1246SOL     OW 4331   3.305   5.159   0.619 -0.1093 -0.0194  0.4822
 1246SOL    HW1 4332   3.383   5.211   0.601 -0.4904 -0.5197 -2.9426
 1246SOL    HW2 4333   3.234   5.206   0.576 -0.8344 -2.0814 -0.6927
 1247SOL     OW 4334   6.283   2.039   1.612  0.5207  0.0677  0.2554
 1247SOL    HW1 4335   6.305   2.123   1.572  1.2982 -0.7820 -1.1139
 1247SOL    HW2 4336   6.187   2.038   1.613  0.5041  0.8168 -0.0181
 1248SOL     OW 4337   1.325   4.931   7.163 -0.4781  0.1911  0.1311
 1248SOL    HW1 4338   1.302   4.945   7.255 -2.0135 -0.3659 -0.1504
 1248SOL    HW2 4339   1.421   4.939   7.161 -0.4804  0.8848  1.6467
 1249SOL     OW 4340   4.827   0.686   0.200  0.0705 -0.0018  0.5431
 1249SOL    HW1 4341   4.804   0.726   0.284 -0.4790 -0.4270  0.5944
 1249SOL    HW2 4342   4.848   0.761   0.143 -0.2503  0.3187  0.8482
 1250SOL     OW 4343   4.470   6.363   0.828 -0.0668  0.2152  0.0930
 1250SOL    HW1 4344   4.456   6.270   0.807  0.7548  0.0765  0.1293
 1250SOL    HW2 4345   4.412   6.410   0.768  0.7758 -0.2651 -1.1467
 1251SOL     OW 4346   2.677   1.475   5.982 -0.0419  0.1337  0.8311
 1251SOL    HW1 4347   2.612   1.544   5.993 -1.5534 -1.0172 -0.5877
 1251SOL    HW2 4348   2.660   1.440   5.894  1.7167 -0.9847  0.9138
 1252SOL     OW 4349   4.948   4.539   0.245 -0.4484  0.5936  0.8562
 1252SOL    HW1 4350   4.964   4.448   0.218 -2.1872  1.2258 -2.6161
 1252SOL    HW2 4351   5.005   4.552   0.321  2.8669 -2.1839 -1.0251
 1253SOL     OW 4352   0.447   4.609   3.463 -0.8141  0.3777 -0.7232
 1253SOL    HW1 4353   0.437   4.515   3.448  1.5594  0.2174 -1.5670
 1253SOL    HW2 4354   0.525   4.615   3.518  0.4313  1.9799 -2.6138
 1254SOL     OW 4355   0.573   1.140   3.221  0.1526  0.5753  0.1678
 1254SOL    HW1 4356   0.621   1.118   3.300  0.1977  2.8480  0.8162
 1254SOL    HW2 4357   0.483   1.153   3.250 -0.1215  0.0227 -0.4082
 1255SOL     OW 4358   0.216   7.199   6.697 -0.0809 -0.2470 -0.4322
 1255SOL    HW1 4359   0.178   7.175   6.613  1.6075 -1.3215 -0.9202
 1255SOL    HW2 4360   0.310   7.180   6.687  0.1403 -0.4024  1.6927
 1256SOL     OW 4361   4.169   5.441   4.450 -0.2513 -0.4190 -0.2734
 1256SOL    HW1 4362   4.240   5.493   4.413 -1.7467  2.6160  0.9890
 1256SOL    HW2 4363   4.199   5.420   4.538  0.9189 -2.9140 -1.2203
 1257SOL     OW 4364   2.792   6.340   6.538 -0.0333 -0.0727  0.2303
 1257SOL    HW1 4365   2.711   6.304   6.503 -0.2800  1.0802 -0.3879
 1257SOL    HW2 4366   2.861   6.282   6.504 -0.5264 -0.6335  0.1803
 1258SOL     OW 4367   3.103   5.607   1.589  0.6286 -0.2388 -0.2955
 1258SOL    HW1 4368   3.095   5.689   1.540 -0.0921  0.5936  1.2100
 1258SOL    HW2 4369   3.191   5.608   1.624  0.5313  0.0056 -0.0622
 1259SOL     OW 4370   6.081   6.537   2.364  0.2149 -0.2163  0.0820
 1259SOL    HW1 4371   6.175   6.518   2.357 -0.1643 -2.5841  0.9433
 1259SOL    HW2 4372   6.051   6.541   2.273  0.3799 -3.8083 -0.2075
 1260SOL     OW 4373   2.252   2.222   4.011 -0.2180  0.0809 -0.1128
 1260SOL    HW1 4374   2.263   2.225   4.106 -0.6404 -0.1496 -0.0566
 1260SOL    HW2 4375   2.311   2.152   3.982  0.6856  0.8289 -0.1391
 1261SOL     OW 4376   5.059   6.908   6.196 -0.5840 -0.4266 -0.2955
 1261SOL    HW1 4377   5.114   6.915   6.274 -0.8514  2.1307 -0.2922
 1261SOL    HW2 4378   5.013   6.825   6.206  2.6190 -2.2355  0.1098
 1262SOL     OW 4379   4.028   5.187   0.768 -0.0900 -0.1591 -0.1725
 1262SOL    HW1 4380   3.935   5.190   0.745 -0.5396  0.0223  1.6107
 1262SOL    HW2 4381   4.044   5.096   0.792  0.5379 -0.4933 -1.7543
 1263SOL     OW 4382   6.557   5.120   6.315  0.1947 -0.6413 -0.0500
 1263SOL    HW1 4383   6.648   5.095   6.333  0.0371 -0.5735  0.8836
 1263SOL    HW2 4384   6.517   5.126   6.402  0.0080  1.9989 -0.2938
 1264SOL     OW 4385   1.282   3.250   5.679 -0.5183 -0.0757 -0.1380
 1264SOL    HW1 4386   1.354   3.196   5.712 -0.3298  0.3396  0.1233
 1264SOL    HW2 4387   1.325   3.327   5.642 -0.8761  0.5534  0.7359
 1265SOL     OW 4388   6.166   5.917   0.410  0.0864 -0.5328  0.3148
 1265SOL    HW1 4389   6.258   5.891   0.406  0.2448  0.1736 -0.8401
 1265SOL    HW2 4390   6.161   5.978   0.483  0.5873 -0.3803  0.2238
 1266SOL     OW 4391   1.302   3.500   2.435  0.0860 -0.5102 -0.0733
 1266SOL    HW1 4392   1.295   3.445   2.357  0.7169 -0.9053  0.1511
 1266SOL    HW2 4393   1.369   3.458   2.489 -0.3465 -0.2418  0.6870
 1267SOL     OW 4394   3.658   1.081   5.004 -0.5144 -0.0820  0.8185
 1267SOL    HW1 4395   3.629   0.990   5.005 -0.4703 -0.1692 -1.6560
 1267SOL    HW2 4396   3.577   1.132   5.009 -0.7117 -0.2941 -0.0238
 1268SOL     OW 4397   5.390   5.818   5.127 -0.1892  0.6254  0.0641
 1268SOL    HW1 4398   5.337   5.850   5.054  0.3055  0.9292 -0.1716
 1268SOL    HW2 4399   5.475   5.800   5.088  0.0668  0.7485  0.5567
 1269SOL     OW 4400   3.786   6.337   1.473  0.3358 -0.0694  0.1390
 1269SOL    HW1 4401   3.815   6.300   1.389 -0.7303  0.8968 -0.6734
 1269SOL    HW2 4402   3.866   6.375   1.510  0.7979 -0.3980 -0.4895
 1270SOL     OW 4403   4.911   0.535   4.374 -0.0289  0.1101 -0.1133
 1270SOL    HW1 4404   4.855   0.583   4.313  1.0497  0.5694 -0.7572
 1270SOL    HW2 4405   4.870   0.548   4.459 -1.0430  0.2279 -0.6084
 1271SOL     OW 4406   1.090   5.680   3.180  0.2907 -0.1872 -0.7562
 1271SOL    HW1 4407   1.149   5.740   3.226  0.9978 -1.7528  0.4416
 1271SOL    HW2 4408   1.132   5.594   3.189 -2.2316 -1.3766  0.2689
 1272SOL     OW 4409   3.559   1.212   4.368 -0.1209  0.0919  0.5759
 1272SOL    HW1 4410   3.565   1.299   4.329  0.0593  0.3171  1.0969
 1272SOL    HW2 4411   3.470   1.209   4.404  0.1546  0.3786  1.2917
 1273SOL     OW 4412   0.230   0.056   6.271  0.1389 -0.2799 -0.2259
 1273SOL    HW1 4413   0.276   0.124   6.319  0.2899  0.4281 -1.3661
 1273SOL    HW2 4414   0.282  -0.023   6.285  1.1678  0.3011 -0.6865
 1274SOL     OW 4415   2.593   2.856   6.711 -0.1180  0.5454 -0.0928
 1274SOL    HW1 4416   2.617   2.773   6.754  0.4597 -0.8141 -2.8912
 1274SOL    HW2 4417   2.500   2.866   6.731  0.3945  0.6046  2.4538
 1275SOL     OW 4418   2.042   6.095   1.062 -0.1598  0.2908  0.5650
 1275SOL    HW1 4419   1.988   6.134   0.994 -0.9713  2.0422  2.1397
 1275SOL    HW2 4420   2.021   6.146   1.141  2.5522 -0.0569  1.5747
 1276SOL     OW 4421   5.453   4.692   0.451 -0.4867 -0.1134  0.1766
 1276SOL    HW1 4422   5.509   4.759   0.412 -0.3193 -0.1109  0.4223
 1276SOL    HW2 4423   5.514   4.625   0.482 -0.7348 -1.2608 -1.7175
 1277SOL     OW 4424   5.162   4.713   0.781  0.4572 -0.3203  0.0914
 1277SOL    HW1 4425   5.212   4.665   0.847  1.2243  2.5600  1.7086
 1277SOL    HW2 4426   5.228   4.763   0.732 -0.4394  0.2777 -0.5277
 1278SOL     OW 4427   5.657   2.197   4.284  0.5082 -0.8287 -0.2636
 1278SOL    HW1 4428   5.582   2.171   4.338  0.6472 -1.2443 -0.2761
 1278SOL    HW2 4429   5.634   2.285   4.253 -1.3752 -2.1550 -2.7972
 1279SOL     OW 4430   3.490   1.654   3.986 -0.0390 -0.0080  0.3906
 1279SOL    HW1 4431   3.410   1.603   4.000  0.3628 -1.4005 -2.1262
 1279SOL    HW2 4432   3.458   1.740   3.958 -0.6995 -0.6655 -0.9601
 1280SOL     OW 4433   3.859   5.904   4.868  0.7178 -0.4711 -0.4710
 1280SOL    HW1 4434   3.804   5.832   4.897  0.7865 -0.8112 -1.1780
 1280SOL    HW2 4435   3.911   5.928   4.945 -1.1015  0.5065  0.4771
 1281SOL     OW 4436   6.118   3.939   7.089 -0.5936 -0.0963 -0.3469
 1281SOL    HW1 4437   6.201   3.891   7.094 -1.1251 -0.8879  1.2806
 1281SOL    HW2 4438   6.137   4.013   7.031  1.2293 -0.3347 -0.0997
 1282SOL     OW 4439   2.298   1.123   6.023 -0.1674  0.5779 -0.2105
 1282SOL    HW1 4440   2.265   1.034   6.008 -0.3374  0.3078  1.6881
 1282SOL    HW2 4441   2.308   1.160   5.935  0.2827 -1.4486 -1.0289
 1283SOL     OW 4442   4.406   2.062   1.659  0.0703  0.5197 -0.3836
 1283SOL    HW1 4443   4.423   1.981   1.611  0.2404  0.2236  0.1676
 1283SOL    HW2 4444   4.356   2.034   1.736 -0.5529  1.0445 -0.6005
 1284SOL     OW 4445   2.020   2.554   4.522  0.2930  0.2494  0.3823
 1284SOL    HW1 4446   1.959   2.626   4.504  0.5737  1.3286  3.4730
 1284SOL    HW2 4447   2.104   2.597   4.539  0.5359 -0.8230  1.9404
 1285SOL     OW 4448   5.865   1.313   4.204 -0.0255 -0.2461  0.3641
 1285SOL    HW1 4449   5.894   1.239   4.151  3.1042  1.0556  0.1934
 1285SOL    HW2 4450   5.799   1.276   4.264 -0.4377 -2.5817 -1.4883
 1286SOL     OW 4451   6.296   4.257   3.975 -0.2454 -0.3128 -0.2411
 1286SOL    HW1 4452   6.204   4.285   3.972 -0.5973 -1.3728  0.4497
 1286SOL    HW2 4453   6.295   4.178   4.029  1.1795  0.0901  0.4053
 1287SOL     OW 4454   5.345   1.468   6.342 -0.5297  0.3073  0.0285
 1287SOL    HW1 4455   5.420   1.522   6.319 -2.1955  2.2582 -0.9785
 1287SOL    HW2 4456   5.317   1.500   6.428  0.2526 -0.9721  0.7855
 1288SOL     OW 4457   2.299   7.192   2.160  0.5658  0.0479  0.0272
 1288SOL    HW1 4458   2.365   7.132   2.127 -0.2608 -0.7421 -0.2161
 1288SOL    HW2 4459   2.314   7.195   2.254  2.3615  1.6157 -0.2778
 1289SOL     OW 4460   4.037   7.230   5.920  0.4829  0.0871  0.0682
 1289SOL    HW1 4461   4.065   7.294   5.986 -1.8805 -0.1935  1.4234
 1289SOL    HW2 4462   3.963   7.185   5.961  0.1722 -1.4128 -2.0654
 1290SOL     OW 4463   4.657   4.783   5.815  0.2285  0.0704  0.8640
 1290SOL    HW1 4464   4.583   4.768   5.755  1.7138  1.1329 -1.3000
 1290SOL    HW2 4465   4.617   4.828   5.890 -1.5430 -0.5302  0.3151
 1291SOL     OW 4466   0.097   2.479   0.384  0.0865 -0.2283 -0.3709
 1291SOL    HW1 4467   0.157   2.530   0.438 -0.4187 -0.0643  0.0428
 1291SOL    HW2 4468   0.094   2.393   0.427  0.0052 -0.2294 -0.3793
 1292SOL     OW 4469   2.355   6.354   4.444 -0.5139  0.4728  0.7827
 1292SOL    HW1 4470   2.307   6.277   4.474 -0.8341  0.0497 -0.7848
 1292SOL    HW2 4471   2.315   6.427   4.491 -2.4739  0.0889 -0.2588
 1293SOL     OW 4472   2.142   1.744   3.593 -0.0435  0.1492  0.1585
 1293SOL    HW1 4473   2.146   1.822   3.648 -1.6731  1.2740 -1.2529
 1293SOL    HW2 4474   2.224   1.698   3.610  0.6138  1.7929  1.5689
 1294SOL     OW 4475   6.949   2.457   4.021 -0.2581 -0.5407 -0.2303
 1294SOL    HW1 4476   6.975   2.510   3.945 -1.8074  2.3515  1.1981
 1294SOL    HW2 4477   7.032   2.423   4.055  0.6228 -0.3725 -2.1382
 1295SOL     OW 4478   6.644   3.674   3.227  0.3452  0.6203  0.6786
 1295SOL    HW1 4479   6.658   3.584   3.257  0.2304  0.2759 -0.2655
 1295SOL    HW2 4480   6.572   3.707   3.281  0.5622  0.2311  1.2034
 1296SOL     OW 4481   1.826   0.430   2.203 -0.3804  0.3499  0.4163
 1296SOL    HW1 4482   1.788   0.381   2.130  2.4741  0.2710 -1.1088
 1296SOL    HW2 4483   1.819   0.372   2.278 -4.2419  0.7896  0.5257
 1297SOL     OW 4484   2.038   4.000   3.836 -0.2031  0.0900 -0.0696
 1297SOL    HW1 4485   2.091   4.067   3.880  0.6705 -0.6656  0.0443
 1297SOL    HW2 4486   2.091   3.972   3.762 -0.8801  0.0441 -0.5388
 1298SOL     OW 4487   0.964   6.425   4.241 -0.1093  0.0032 -0.1230
 1298SOL    HW1 4488   0.974   6.512   4.201  1.0854 -0.4801 -0.9308
 1298SOL    HW2 4489   1.054   6.395   4.254 -0.5133 -1.2228 -0.1103
 1299SOL     OW 4490   2.355   2.589   0.303 -0.4148 -0.0571  0.1293
 1299SOL    HW1 4491   2.318   2.501   0.306 -0.2427 -0.1912 -1.3163
 1299SOL    HW2 4492   2.282   2.645   0.277 -0.9052  0.4735  2.5125
 1300SOL     OW 4493   1.220   4.731   0.849  0.9759  0.0266 -0.3073
 1300SOL    HW1 4494   1.227   4.814   0.802 -0.9919 -0.0563 -0.7971
 1300SOL    HW2 4495   1.219   4.755   0.942  0.6374  0.5545 -0.4455
 1301SOL     OW 4496   3.207   1.334   4.720  0.5221  0.8648  0.2893
 1301SOL    HW1 4497   3.195   1.429   4.721  0.2064  0.8248  0.1560
 1301SOL    HW2 4498   3.278   1.319   4.783 -0.4123  1.0475  1.3912
 1302SOL     OW 4499   1.802   1.599   7.255  0.5895 -0.6284  0.0344
 1302SOL    HW1 4500   1.783   1.505   7.251 -0.5559 -0.3783 -0.5178
 1302SOL    HW2 4501   1.849   1.610   7.338 -0.9006 -1.4106  1.0087
 1303SOL     OW 4502   5.736   5.477   1.723 -0.3523 -0.4755  0.5879
 1303SOL    HW1 4503   5.661   5.509   1.773 -0.8422  0.6768 -0.8459
 1303SOL    HW2 4504   5.804   5.461   1.790 -1.5575 -0.6609  1.7890
 1304SOL     OW 4505   0.294   4.221   1.567 -0.5024 -0.2070 -0.0858
 1304SOL    HW1 4506   0.366   4.198   1.626  0.4039 -0.7586 -1.3826
 1304SOL    HW2 4507   0.256   4.300   1.606  0.8983  0.1731  0.5483
 1305SOL     OW 4508   0.581   0.162   7.134  0.1439 -0.4609  0.1788
 1305SOL    HW1 4509   0.539   0.080   7.158  1.3469 -0.7758  1.2604
 1305SOL    HW2 4510   0.603   0.204   7.217 -2.0585  1.8347 -0.3140
 1306SOL     OW 4511   3.441   2.490   4.062 -0.6014 -1.1435 -0.0658
 1306SOL    HW1 4512   3.348   2.477   4.082 -0.7222 -1.0813 -0.5805
 1306SOL    HW2 4513   3.451   2.457   3.973 -0.2621 -0.5342 -0.2547
 1307SOL     OW 4514   3.101   1.636   3.236  0.3235 -0.2304 -0.5937
 1307SOL    HW1 4515   3.178   1.688   3.212 -0.3198  1.7991  1.4962
 1307SOL    HW2 4516   3.126   1.591   3.316 -0.2957 -0.4403 -0.5119
 1308SOL     OW 4517   5.414   4.909   2.510  0.3405 -0.3517 -0.6875
 1308SOL    HW1 4518   5.458   4.833   2.473  1.3001 -0.1316 -0.0235
 1308SOL    HW2 4519   5.449   4.917   2.599 -0.7357  0.0773 -0.2913
 1309SOL     OW 4520   0.043   6.310   6.534  0.2098  0.5222  0.1555
 1309SOL    HW1 4521   0.051   6.219   6.505 -2.8413 -0.4198  1.9764
 1309SOL    HW2 4522   0.009   6.357   6.458 -1.9349 -0.7127  0.2945
 1310SOL     OW 4523   2.703   5.402   0.917 -0.3682  0.1435 -0.1643
 1310SOL    HW1 4524   2.721   5.408   0.823 -0.4860 -0.4723 -0.2255
 1310SOL    HW2 4525   2.670   5.313   0.930 -0.5218  0.2856  0.4320
 1311SOL     OW 4526   0.284   7.198   0.633 -0.3157 -0.0783  0.5720
 1311SOL    HW1 4527   0.219   7.128   0.622 -0.9526  0.3176  1.7061
 1311SOL    HW2 4528   0.288   7.212   0.728  0.8028  0.4993  0.4515
 1312SOL     OW 4529   1.360   5.629   5.234 -0.4757  0.1904  0.1431
 1312SOL    HW1 4530   1.339   5.552   5.286 -1.5679  0.1944 -0.2788
 1312SOL    HW2 4531   1.377   5.595   5.146  0.1555  0.3098  0.2204
 1313SOL     OW 4532   1.404   4.982   0.608  0.1603 -0.4075  0.3878
 1313SOL    HW1 4533   1.342   4.911   0.625  0.2024 -0.5796 -0.1513
 1313SOL    HW2 4534   1.357   5.042   0.550  0.8154 -1.0305 -0.8226
 1314SOL     OW 4535   7.156   5.720   6.628  0.0644  0.0621  0.4875
 1314SOL    HW1 4536   7.093   5.791   6.641 -1.5925 -1.0642 -1.1856
 1314SOL    HW2 4537   7.132   5.654   6.693  0.8713  0.5233  1.2647
 1315SOL     OW 4538   4.464   1.624   6.241  0.3324  0.6551  0.3140
 1315SOL    HW1 4539   4.424   1.693   6.294  0.4048  0.5585  0.4942
 1315SOL    HW2 4540   4.429   1.638   6.153 -0.6179  0.1639  0.6082
 1316SOL     OW 4541   1.013   1.409   2.702 -0.1508 -0.2654  0.2304
 1316SOL    HW1 4542   0.920   1.387   2.711 -0.1848 -0.1947  0.0592
 1316SOL    HW2 4543   1.033   1.391   2.610 -0.5328  1.7337 -0.2689
 1317SOL     OW 4544   4.952   2.642   6.591  0.1936 -0.1702  0.5221
 1317SOL    HW1 4545   4.859   2.621   6.590  0.2806 -0.6500  1.5654
 1317SOL    HW2 4546   4.980   2.633   6.500 -0.7216 -0.2879  0.2512
 1318SOL     OW 4547   5.951   0.091   6.332  0.3136  0.0964 -0.4729
 1318SOL    HW1 4548   6.044   0.074   6.316 -0.1301 -1.3767 -1.5754
 1318SOL    HW2 4549   5.908   0.009   6.311 -1.1187  0.3618  1.3120
 1319SOL     OW 4550   2.838   1.557   4.639 -0.0219  0.0838 -0.2480
 1319SOL    HW1 4551   2.909   1.605   4.683  0.5728 -1.2456  0.2720
 1319SOL    HW2 4552   2.758   1.592   4.677  0.2794  2.4980 -1.7387
 1320SOL     OW 4553   0.882   5.109   6.955 -0.3112 -0.1579  0.3139
 1320SOL    HW1 4554   0.927   5.121   6.872 -1.8164 -0.8667 -0.6262
 1320SOL    HW2 4555   0.838   5.024   6.947 -1.7288  0.4649  1.2214
 1321SOL     OW 4556   4.706   5.186   1.308  0.0205  0.6704  0.0246
 1321SOL    HW1 4557   4.693   5.280   1.321  3.1292  1.0817  0.3232
 1321SOL    HW2 4558   4.711   5.150   1.397  1.3915  0.5982 -0.0797
 1322SOL     OW 4559   2.340   5.954   2.058  0.4761 -0.5054  0.3019
 1322SOL    HW1 4560   2.365   5.993   1.974 -1.2713 -4.2708 -2.0865
 1322SOL    HW2 4561   2.265   6.006   2.087 -0.8215 -1.0125 -2.0185
 1323SOL     OW 4562   0.905   4.476   6.225 -0.4883  0.3545  0.2305
 1323SOL    HW1 4563   0.841   4.540   6.193 -0.9381  0.3441  1.0758
 1323SOL    HW2 4564   0.895   4.400   6.168 -1.8779  0.0075  0.9249
 1324SOL     OW 4565   0.097   0.563   3.370 -0.1407  0.0529  0.0930
 1324SOL    HW1 4566   0.192   0.553   3.363 -0.3107 -1.2932 -0.4381
 1324SOL    HW2 4567   0.071   0.497   3.435 -0.5846  1.1524  1.0376
 1325SOL     OW 4568   3.819   0.742   3.593 -0.3077 -0.4089 -0.9317
 1325SOL    HW1 4569   3.893   0.768   3.538  0.0876  1.5966  0.4909
 1325SOL    HW2 4570   3.748   0.725   3.531  0.0566  2.0589 -2.0859
 1326SOL     OW 4571   4.497   6.470   4.487 -0.1411 -0.4424 -0.1521
 1326SOL    HW1 4572   4.565   6.441   4.426 -0.7807 -1.0651 -0.5683
 1326SOL    HW2 4573   4.542   6.534   4.543  0.0349  1.3506 -2.2793
 1327SOL     OW 4574   3.384   3.700   1.803 -0.5838  0.2668  0.6861
 1327SOL    HW1 4575   3.472   3.661   1.804 -0.5988  0.2426  1.1474
 1327SOL    HW2 4576   3.397   3.788   1.767 -0.3395  0.3363  0.9451
 1328SOL     OW 4577   1.422   6.316   4.508 -0.0180  0.6960 -0.2969
 1328SOL    HW1 4578   1.419   6.223   4.531 -0.7402  0.6974 -0.3667
 1328SOL    HW2 4579   1.443   6.317   4.415 -0.8141  0.5721 -0.4828
 1329SOL     OW 4580   7.171   3.047   3.430 -0.0550 -0.2922  0.1696
 1329SOL    HW1 4581   7.112   3.104   3.380  0.3401 -0.8031 -0.8810
 1329SOL    HW2 4582   7.208   3.105   3.497 -0.5001  0.4221 -0.1907
 1330SOL     OW 4583   0.288   0.803   6.675  0.0392 -0.3619  0.2046
 1330SOL    HW1 4584   0.247   0.737   6.731 -1.6157 -0.4600 -1.0955
 1330SOL    HW2 4585   0.272   0.772   6.586  2.0740  0.1287 -0.3483
 1331SOL     OW 4586   0.661   6.199   6.845  0.2026 -0.2551  0.2512
 1331SOL    HW1 4587   0.582   6.213   6.897 -0.3353  0.0477 -0.6376
 1331SOL    HW2 4588   0.633   6.212   6.754  1.7031  1.8254  0.0550
 1332SOL     OW 4589   4.218   4.106   2.271 -0.2018 -0.3997  0.3693
 1332SOL    HW1 4590   4.310   4.094   2.295  0.0630 -0.5995 -0.7025
 1332SOL    HW2 4591   4.178   4.020   2.282 -0.5997  0.0105  2.2236
 1333SOL     OW 4592   1.236   3.965   3.810 -0.3588 -0.1841 -0.3761
 1333SOL    HW1 4593   1.239   3.976   3.715 -1.4746 -0.9217 -0.5001
 1333SOL    HW2 4594   1.327   3.950   3.835  0.1302  1.3814 -1.1487
 1334SOL     OW 4595   5.388   3.326   3.499 -0.2122  0.0104 -0.0048
 1334SOL    HW1 4596   5.466   3.320   3.554  0.0328 -0.1182 -0.3610
 1334SOL    HW2 4597   5.351   3.412   3.518 -0.0556  0.0160  0.2651
 1335SOL     OW 4598   2.265   5.356   6.126  0.3024  0.6675  0.2766
 1335SOL    HW1 4599   2.180   5.394   6.150 -0.0239  0.2399 -0.1962
 1335SOL    HW2 4600   2.245   5.264   6.106  1.0064  0.3536  0.9625
 1336SOL     OW 4601   6.314   4.022   5.669 -0.0373  0.3332 -0.1060
 1336SOL    HW1 4602   6.231   4.067   5.684 -0.0819  0.2469 -0.0957
 1336SOL    HW2 4603   6.376   4.065   5.728  0.0528  0.7649 -0.5189
 1337SOL     OW 4604   6.217   4.545   4.909 -0.1330 -0.3225  1.1039
 1337SOL    HW1 4605   6.311   4.528   4.901 -0.0172  0.7417  0.1511
 1337SOL    HW2 4606   6.203   4.554   5.004  0.9955  0.9877  1.1668
 1338SOL     OW 4607   2.990   2.117   1.691 -0.2460 -0.7348  0.1069
 1338SOL    HW1 4608   2.910   2.066   1.684 -0.1737 -0.9568  0.9472
 1338SOL    HW2 4609   2.989   2.154   1.779 -2.2536  3.9644 -1.7292
 1339SOL     OW 4610   4.295   2.525   4.644 -0.8787  0.6690  0.2483
 1339SOL    HW1 4611   4.211   2.567   4.624 -1.7098 -1.1168 -0.1542
 1339SOL    HW2 4612   4.339   2.519   4.559 -1.3376 -0.4404  0.0744
 1340SOL     OW 4613   7.217   1.932   3.281 -0.5323  0.1163  0.6648
 1340SOL    HW1 4614   7.140   1.985   3.266 -1.1344 -0.6437  1.0167
 1340SOL    HW2 4615   7.252   1.914   3.194 -0.7049  0.5258  0.5112
 1341SOL     OW 4616   4.894   3.423   6.024  0.6010  0.5956  0.5469
 1341SOL    HW1 4617   4.983   3.390   6.032  0.8030  0.5115 -1.7638
 1341SOL    HW2 4618   4.841   3.345   6.008  0.5985  0.9930 -1.4741
 1342SOL     OW 4619   4.334   0.393   7.192  0.3745  0.1202  0.5283
 1342SOL    HW1 4620   4.291   0.471   7.156  1.1153  1.2539  2.0421
 1342SOL    HW2 4621   4.315   0.397   7.286  0.8361 -1.2674  0.6883
 1343SOL     OW 4622   2.137   3.418   3.387  0.3789 -0.2238 -0.3691
 1343SOL    HW1 4623   2.168   3.358   3.456 -0.1087  0.2743  0.2897
 1343SOL    HW2 4624   2.053   3.451   3.420  0.3562  0.3661 -1.0079
 1344SOL     OW 4625   0.251   2.301   0.785 -0.4520  0.0394 -0.3577
 1344SOL    HW1 4626   0.223   2.244   0.857 -0.7747 -0.4431 -0.8691
 1344SOL    HW2 4627   0.217   2.387   0.809  0.8002  0.2072  0.8566
 1345SOL     OW 4628   1.829   5.024   1.469  0.5615 -0.3465  0.7761
 1345SOL    HW1 4629   1.757   4.964   1.450  0.9937 -0.9384  1.0131
 1345SOL    HW2 4630   1.904   4.968   1.486  1.0500  0.2655  0.6780
 1346SOL     OW 4631   4.306   0.821   4.894 -0.3110  0.3183  0.0742
 1346SOL    HW1 4632   4.317   0.726   4.887 -0.8926  0.3410 -1.2329
 1346SOL    HW2 4633   4.371   0.847   4.960 -0.7005 -1.0774  1.0394
 1347SOL     OW 4634   2.007   3.607   6.537 -0.8029 -0.1281 -0.1244
 1347SOL    HW1 4635   1.966   3.549   6.601 -1.0999 -0.2483 -0.4214
 1347SOL    HW2 4636   2.069   3.659   6.588 -0.6197 -0.6231  0.1628
 1348SOL     OW 4637   1.492   5.361   1.578 -0.0352  0.2951 -0.6202
 1348SOL    HW1 4638   1.505   5.344   1.671 -0.1442 -0.0636 -0.6715
 1348SOL    HW2 4639   1.568   5.321   1.536  1.6374  3.1039 -0.4265
 1349SOL     OW 4640   6.260   3.629   0.797 -0.0086  0.1221  0.1995
 1349SOL    HW1 4641   6.263   3.617   0.892 -0.7322  1.1911  0.3701
 1349SOL    HW2 4642   6.290   3.546   0.761  3.7246  0.8589  1.4037
 1350SOL     OW 4643   6.771   1.503   6.742 -0.1901 -0.1011  1.1035
 1350SOL    HW1 4644   6.716   1.532   6.670  0.0930 -2.7992 -0.2806
 1350SOL    HW2 4645   6.818   1.581   6.770 -2.5345  1.6142  0.3740
 1351SOL     OW 4646   1.230   4.841   6.120 -0.8472  0.4517 -0.7836
 1351SOL    HW1 4647   1.193   4.895   6.050  0.7765  3.1540  0.3804
 1351SOL    HW2 4648   1.324   4.838   6.100 -0.7553 -1.0107 -0.1784
 1352SOL     OW 4649   4.832   6.183   3.818  0.5003  0.1350  0.2572
 1352SOL    HW1 4650   4.867   6.122   3.754  0.2714 -0.4026  0.6470
 1352SOL    HW2 4651   4.762   6.135   3.862 -1.0554  1.3269 -0.8386
 1353SOL     OW 4652   4.971   1.702   4.215  0.5060  0.1242  0.1868
 1353SOL    HW1 4653   4.896   1.718   4.272  0.3607  0.4795 -0.1040
 1353SOL    HW2 4654   4.988   1.608   4.224 -0.5152 -0.1172 -0.4229
 1354SOL     OW 4655   5.221   0.085   4.747 -0.4359  0.1390  0.3329
 1354SOL    HW1 4656   5.217   0.021   4.676 -0.5431 -1.3552  1.6655
 1354SOL    HW2 4657   5.249   0.166   4.704 -1.4463 -0.4858 -1.5738
 1355SOL     OW 4658   0.881   2.105   2.313 -0.1018  0.1787 -0.0954
 1355SOL    HW1 4659   0.874   2.192   2.275  1.4943  0.1900 -0.4016
 1355SOL    HW2 4660   0.963   2.107   2.362 -0.0749 -1.1405 -0.0716
 1356SOL     OW 4661   4.596   2.599   1.716  0.0278  0.0693 -0.2202
 1356SOL    HW1 4662   4.615   2.603   1.810 -0.3047  0.0368 -0.1478
 1356SOL    HW2 4663   4.681   2.590   1.674  0.1280 -0.6081  0.1214
 1357SOL     OW 4664   0.949   5.049   5.292 -0.2690  0.3255 -0.1864
 1357SOL    HW1 4665   0.907   4.963   5.288 -0.6261  0.5021 -0.2597
 1357SOL    HW2 4666   0.942   5.083   5.203 -0.1317  0.4342 -0.1564
 1358SOL     OW 4667   2.386   4.991   4.493 -0.6239  0.1510  0.5024
 1358SOL    HW1 4668   2.394   5.085   4.512  0.8706  0.8732 -3.2534
 1358SOL    HW2 4669   2.325   4.987   4.419 -0.0540 -1.7599  0.1191
 1359SOL     OW 4670   4.297   5.934   4.829  0.5962  0.5705  0.2471
 1359SOL    HW1 4671   4.286   5.911   4.921  0.9502  0.2885  0.2209
 1359SOL    HW2 4672   4.277   5.854   4.781 -1.8134  1.3195 -0.0548
 1360SOL     OW 4673   0.648   0.508   4.287 -0.3767 -0.5519 -0.6455
 1360SOL    HW1 4674   0.610   0.450   4.219  1.1307  0.0161 -1.9934
 1360SOL    HW2 4675   0.654   0.593   4.244 -3.3080  0.8805  1.5824
 1361SOL     OW 4676   1.245   6.371   5.497  0.3905 -0.1615 -0.2205
 1361SOL    HW1 4677   1.164   6.343   5.455  0.4559 -1.0275  0.2124
 1361SOL    HW2 4678   1.314   6.350   5.434  0.2857  0.5040 -0.5575
 1362SOL     OW 4679   1.236   5.639   4.089 -0.9115  0.3736  0.1407
 1362SOL    HW1 4680   1.308   5.611   4.145 -1.1066 -0.7935 -0.1650
 1362SOL    HW2 4681   1.256   5.602   4.003 -1.0422  1.4323 -0.3504
 1363SOL     OW 4682   0.806   2.651   4.777 -0.1212 -0.8874  0.2687
 1363SOL    HW1 4683   0.741   2.692   4.720  0.5238 -1.5164 -0.9445
 1363SOL    HW2 4684   0.807   2.706   4.855  0.7417  1.4401 -1.3068
 1364SOL     OW 4685   2.351   4.147   3.425 -0.1410 -0.0616  0.0218
 1364SOL    HW1 4686   2.334   4.125   3.333  1.6499  1.1105 -0.6078
 1364SOL    HW2 4687   2.418   4.085   3.453 -1.3189 -0.9929  0.8159
 1365SOL     OW 4688   0.945   5.306   0.423 -0.0571  0.1795  0.7198
 1365SOL    HW1 4689   0.867   5.357   0.444 -0.5650 -0.5758  0.6804
 1365SOL    HW2 4690   0.978   5.345   0.341 -0.5717  0.2889  0.5654
 1366SOL     OW 4691   2.608   2.106   0.281  0.1710  0.4055  0.2736
 1366SOL    HW1 4692   2.562   2.125   0.363  1.1524  1.7023  0.5349
 1366SOL    HW2 4693   2.700   2.102   0.305  0.3467 -0.6441 -0.5231
 1367SOL     OW 4694   6.523   2.504   6.664  0.5120  0.0527 -0.2269
 1367SOL    HW1 4695   6.573   2.523   6.743 -1.1425 -2.5439  1.5145
 1367SOL    HW2 4696   6.457   2.440   6.692 -0.5189 -0.4302 -3.5616
 1368SOL     OW 4697   2.661   6.026   0.224  0.3106 -0.1490  0.5052
 1368SOL    HW1 4698   2.704   6.103   0.186 -0.4994  0.1924  0.2848
 1368SOL    HW2 4699   2.579   6.059   0.260 -0.6212 -1.1415 -0.7033
 1369SOL     OW 4700   5.111   3.079   2.513  0.1558 -0.3294 -0.2224
 1369SOL    HW1 4701   5.142   2.989   2.516 -2.5176 -1.3304 -0.9689
 1369SOL    HW2 4702   5.074   3.088   2.425 -1.2722  0.8986  0.4846
 1370SOL     OW 4703   2.060   1.546   5.918 -0.3263 -0.2686 -0.3706
 1370SOL    HW1 4704   2.079   1.454   5.938 -0.8993 -0.8256 -2.3202
 1370SOL    HW2 4705   1.983   1.543   5.862  1.0898  1.2288 -2.4704
 1371SOL     OW 4706   7.085   0.524   6.829  0.2133 -0.2919 -0.6100
 1371SOL    HW1 4707   7.031   0.539   6.907  0.0843  0.0426 -0.7631
 1371SOL    HW2 4708   7.105   0.611   6.797 -2.1392 -0.4455 -2.6099
 1372SOL     OW 4709   4.881   2.059   3.991 -0.0050  0.3752  0.2498
 1372SOL    HW1 4710   4.796   2.082   4.029  0.1420  0.0647  0.7796
 1372SOL    HW2 4711   4.880   1.963   3.987 -0.0061  0.4074 -0.5077
 1373SOL     OW 4712   1.700   1.108   5.093 -0.4077  0.2082 -0.1719
 1373SOL    HW1 4713   1.695   1.188   5.146  0.5885 -0.3348  0.7807
 1373SOL    HW2 4714   1.660   1.040   5.148  1.4603 -0.5493  0.3222
 1374SOL     OW 4715   4.536   2.673   5.556 -0.0958  0.6028  0.2700
 1374SOL    HW1 4716   4.612   2.698   5.504  0.2194 -0.5956  0.1433
 1374SOL    HW2 4717   4.564   2.685   5.647  0.8936 -1.5536  0.2900
 1375SOL     OW 4718   2.853   3.130   4.561 -0.4968  0.0207  0.1159
 1375SOL    HW1 4719   2.941   3.151   4.531  0.1037  2.4802  3.3915
 1375SOL    HW2 4720   2.866   3.077   4.639 -1.9783 -1.7705 -0.8133
 1376SOL     OW 4721   6.886   4.592   4.118  0.1692 -0.2280 -0.0386
 1376SOL    HW1 4722   6.828   4.667   4.105  0.2144 -0.0401  0.7923
 1376SOL    HW2 4723   6.967   4.617   4.072 -0.5660 -0.6917 -1.5798
 1377SOL     OW 4724   5.406   0.890   0.652 -0.5270  0.5060 -0.4058
 1377SOL    HW1 4725   5.376   0.800   0.663  2.0378 -0.1870  1.3728
 1377SOL    HW2 4726   5.412   0.903   0.557 -0.4077 -1.3734 -0.6576
 1378SOL     OW 4727   4.450   4.251   4.459  0.1521 -0.2388 -0.5980
 1378SOL    HW1 4728   4.471   4.339   4.489  0.2703 -0.0821 -1.1371
 1378SOL    HW2 4729   4.363   4.234   4.493  0.1203  0.0988 -0.5116
 1379SOL     OW 4730   3.073   1.016   6.386  0.5182 -0.7252  0.0149
 1379SOL    HW1 4731   3.046   1.108   6.381 -0.2090 -0.9464 -0.0585
 1379SOL    HW2 4732   3.084   0.989   6.294  3.2589  0.0252  0.0521
 1380SOL     OW 4733   6.223   3.966   0.904 -0.4081 -0.3829 -0.0758
 1380SOL    HW1 4734   6.295   3.985   0.844  0.0388  0.8731  0.8548
 1380SOL    HW2 4735   6.233   4.028   0.976 -0.5135 -2.3355  1.6854
 1381SOL     OW 4736   2.888   2.730   3.182  0.1460  0.2569  0.1457
 1381SOL    HW1 4737   2.970   2.751   3.227  1.6071 -2.9872 -0.8762
 1381SOL    HW2 4738   2.891   2.782   3.101  2.3153 -1.6032 -0.9945
 1382SOL     OW 4739   0.703   4.052   5.378  0.4297  0.1162 -0.2932
 1382SOL    HW1 4740   0.737   3.975   5.425  0.6444  0.9533  0.9659
 1382SOL    HW2 4741   0.614   4.028   5.354  0.2127 -0.2289  0.8160
 1383SOL     OW 4742   5.194   6.681   4.479  0.0070 -0.1216 -0.0180
 1383SOL    HW1 4743   5.253   6.714   4.546 -1.0493 -0.3824  1.0537
 1383SOL    HW2 4744   5.189   6.587   4.496 -1.7403  0.0812  0.7450
 1384SOL     OW 4745   1.017   1.818   2.676 -0.1862 -0.2097 -0.0997
 1384SOL    HW1 4746   1.108   1.848   2.676  0.4567 -2.0997 -0.7927
 1384SOL    HW2 4747   0.991   1.819   2.768  0.6388  0.0076  0.1365
 1385SOL     OW 4748   5.255   0.040   3.904 -0.2241 -0.7241 -0.4751
 1385SOL    HW1 4749   5.346   0.019   3.925 -0.1189  1.1948  1.2261
 1385SOL    HW2 4750   5.259   0.125   3.861 -1.2919 -0.1062  0.6072
 1386SOL     OW 4751   0.405   4.524   4.183  0.0999 -0.5219 -0.0763
 1386SOL    HW1 4752   0.347   4.479   4.245  1.0525  1.2711  2.2110
 1386SOL    HW2 4753   0.346   4.578   4.130 -0.5703 -0.7311  0.4440
 1387SOL     OW 4754   4.150   7.133   4.860 -0.2958 -0.1777  0.2815
 1387SOL    HW1 4755   4.155   7.175   4.945  0.1152  0.9612 -0.2927
 1387SOL    HW2 4756   4.136   7.040   4.879 -1.0699  0.1959  1.5586
 1388SOL     OW 4757   0.281   1.901   3.282  0.2048 -0.5460 -0.2262
 1388SOL    HW1 4758   0.216   1.839   3.315 -0.7998  0.2920 -0.6214
 1388SOL    HW2 4759   0.323   1.936   3.360  0.0495 -0.9367  0.0362
 1389SOL     OW 4760   4.519   3.056   0.198 -0.1190 -0.1570 -0.7907
 1389SOL    HW1 4761   4.596   3.003   0.219 -1.5431 -1.8241  0.4543
 1389SOL    HW2 4762   4.486   3.018   0.117 -1.1577 -1.2419  0.1174
 1390SOL     OW 4763   0.308   1.446   1.268 -0.2617 -0.0467 -0.2053
 1390SOL    HW1 4764   0.348   1.479   1.348 -0.2377 -0.0761 -0.2052
 1390SOL    HW2 4765   0.214   1.447   1.286 -0.3714  1.5382 -0.7717
 1391SOL     OW 4766   5.423   6.045   2.512 -0.0865  0.2784 -0.1794
 1391SOL    HW1 4767   5.491   6.109   2.493  0.6298 -0.0770  1.1270
 1391SOL    HW2 4768   5.344   6.097   2.526  0.6696  0.9608  1.7134
 1392SOL     OW 4769   1.741   5.268   6.727  0.2800 -0.2208  0.2399
 1392SOL    HW1 4770   1.799   5.258   6.651  0.3124 -1.0409  0.3747
 1392SOL    HW2 4771   1.655   5.287   6.689  0.5288  0.5289  0.0301
 1393SOL     OW 4772   6.431   7.177   2.557 -0.1581  0.0235 -0.2628
 1393SOL    HW1 4773   6.483   7.178   2.477 -0.9501  0.9060 -0.7784
 1393SOL    HW2 4774   6.343   7.153   2.528 -0.5694  0.8574  0.2536
 1394SOL     OW 4775   6.262   3.247   2.800 -0.0527 -0.8417 -0.1339
 1394SOL    HW1 4776   6.249   3.326   2.747 -0.0179 -0.7873 -0.0599
 1394SOL    HW2 4777   6.197   3.185   2.765 -0.1131 -0.7645 -0.1587
 1395SOL     OW 4778   5.663   0.757   4.347  0.0529 -0.2455 -0.1669
 1395SOL    HW1 4779   5.625   0.754   4.434  0.1878  0.2507 -0.0894
 1395SOL    HW2 4780   5.756   0.740   4.360  0.3198  1.2620 -0.0482
 1396SOL     OW 4781   6.586   0.585   6.260  0.2748  0.2321  0.5122
 1396SOL    HW1 4782   6.591   0.506   6.206  3.3623 -0.6916  2.0326
 1396SOL    HW2 4783   6.528   0.644   6.211 -2.5659 -3.1717 -0.3517
 1397SOL     OW 4784   2.937   2.600   1.464 -0.0086 -0.1264 -0.3289
 1397SOL    HW1 4785   2.917   2.694   1.460 -1.4445 -0.3814  0.4737
 1397SOL    HW2 4786   2.906   2.565   1.380 -1.6688 -0.2662  0.3203
 1398SOL     OW 4787   5.009   3.647   4.942  0.1661  0.5667  0.6196
 1398SOL    HW1 4788   5.061   3.572   4.972  0.6913  0.7204  0.1285
 1398SOL    HW2 4789   5.020   3.646   4.846 -0.2642  0.9483  0.5652
 1399SOL     OW 4790   1.554   5.101   1.161 -0.4473 -0.1100 -0.7079
 1399SOL    HW1 4791   1.482   5.135   1.215 -0.0997  1.8229 -1.4071
 1399SOL    HW2 4792   1.540   5.140   1.075  1.5118  0.4526 -0.8059
 1400SOL     OW 4793   6.999   2.967   5.366 -0.1641 -0.6835 -0.1936
 1400SOL    HW1 4794   6.978   2.963   5.272  1.1326 -0.2426 -0.5122
 1400SOL    HW2 4795   7.027   2.878   5.388  1.0030 -0.4167 -0.5844
 1401SOL     OW 4796   1.685   1.591   3.729  0.1403 -0.8190 -0.3120
 1401SOL    HW1 4797   1.630   1.532   3.677  0.7791 -0.2564 -1.6643
 1401SOL    HW2 4798   1.728   1.647   3.664 -0.3808  1.0728  0.9398
 1402SOL     OW 4799   4.804   1.058   3.779  0.0150  0.2464  0.1199
 1402SOL    HW1 4800   4.841   0.970   3.782 -0.7999 -0.1125 -0.2216
 1402SOL    HW2 4801   4.711   1.045   3.796 -0.0773  1.0626  0.2406
 1403SOL     OW 4802   1.881   1.348   4.592 -0.5303 -0.0458  0.0511
 1403SOL    HW1 4803   1.796   1.392   4.584 -0.2185  0.6414  0.5212
 1403SOL    HW2 4804   1.860   1.255   4.579 -1.3349  0.1324  0.0150
 1404SOL     OW 4805   3.638   3.120   5.049 -0.1947  0.0990  0.0392
 1404SOL    HW1 4806   3.627   3.183   4.977  0.4265  0.6500  0.4290
 1404SOL    HW2 4807   3.603   3.166   5.126  1.5823  0.5189  0.6041
 1405SOL     OW 4808   0.705   3.243   3.645  0.2121 -0.2138  0.0762
 1405SOL    HW1 4809   0.735   3.272   3.559 -0.2610 -1.8187 -0.6533
 1405SOL    HW2 4810   0.786   3.223   3.693  0.4241 -1.3190 -0.7238
 1406SOL     OW 4811   4.976   1.110   2.267 -0.2554  0.0291  0.7517
 1406SOL    HW1 4812   4.964   1.198   2.232 -0.2502 -0.3392 -0.1886
 1406SOL    HW2 4813   5.056   1.078   2.225 -0.8092 -0.8011  0.3265
 1407SOL     OW 4814   0.541   3.890   6.163  0.0483 -0.1777 -0.0307
 1407SOL    HW1 4815   0.577   3.933   6.085  0.5912 -2.7645 -1.2643
 1407SOL    HW2 4816   0.480   3.825   6.128 -0.1722 -0.9554  1.7452
 1408SOL     OW 4817   0.507   0.197   3.686  0.3009 -0.1216  0.2292
 1408SOL    HW1 4818   0.557   0.166   3.762  2.0524 -0.6998 -1.1364
 1408SOL    HW2 4819   0.573   0.226   3.624 -1.1022 -0.0762 -1.2702
 1409SOL     OW 4820   2.283   1.806   4.527 -0.1599 -0.4088 -1.0264
 1409SOL    HW1 4821   2.379   1.807   4.523 -0.0971  0.8744  0.3661
 1409SOL    HW2 4822   2.263   1.757   4.606 -0.5326  2.5521  0.7971
 1410SOL     OW 4823   4.439   0.081   2.977 -0.2715 -0.5069 -0.3005
 1410SOL    HW1 4824   4.466   0.146   3.042  0.1479 -0.4784 -0.5007
 1410SOL    HW2 4825   4.515   0.073   2.919 -0.5244 -0.7740 -0.5920
 1411SOL     OW 4826   1.739   6.186   3.015  0.1058  0.4949  0.0005
 1411SOL    HW1 4827   1.667   6.123   3.024  0.1783  0.6852  2.2496
 1411SOL    HW2 4828   1.815   6.132   2.993 -0.4011  0.1322 -0.9048
 1412SOL     OW 4829   6.553   3.538   0.750  0.7834 -0.1337 -0.1560
 1412SOL    HW1 4830   6.464   3.505   0.753  1.2540 -1.5217 -0.9290
 1412SOL    HW2 4831   6.588   3.521   0.838  0.1198  0.9274  0.3212
 1413SOL     OW 4832   4.296   4.112   2.595  0.4060  0.0347 -0.2268
 1413SOL    HW1 4833   4.229   4.048   2.573 -0.1492  0.7651 -0.6875
 1413SOL    HW2 4834   4.262   4.159   2.671  1.5629 -1.3353  1.1607
 1414SOL     OW 4835   6.439   1.608   5.988 -0.0590  0.1491  0.1394
 1414SOL    HW1 4836   6.354   1.590   5.948  0.2439 -0.0820 -0.3970
 1414SOL    HW2 4837   6.441   1.703   5.998  0.1358  0.2632 -0.9828
 1415SOL     OW 4838   3.743   1.718   1.582 -0.0445  0.4360  0.2244
 1415SOL    HW1 4839   3.821   1.753   1.626  1.3716 -1.2187 -0.9189
 1415SOL    HW2 4840   3.731   1.774   1.506  1.6341 -0.9004 -1.0597
 1416SOL     OW 4841   0.185   6.186   5.389 -0.5976 -0.0469  0.1087
 1416SOL    HW1 4842   0.094   6.204   5.366 -1.3481 -0.1609  2.8113
 1416SOL    HW2 4843   0.234   6.258   5.350 -2.0891  1.1088  0.3319
 1417SOL     OW 4844   6.526   2.196   2.261  0.2405  0.6445  0.3988
 1417SOL    HW1 4845   6.597   2.174   2.201 -0.0600  0.2444  0.1912
 1417SOL    HW2 4846   6.557   2.169   2.347 -0.6044 -1.7290 -0.0048
 1418SOL     OW 4847   1.377   2.490   1.701  0.0162  0.1729 -0.1264
 1418SOL    HW1 4848   1.427   2.419   1.741 -0.5888 -0.6578 -0.8349
 1418SOL    HW2 4849   1.333   2.533   1.774  2.3428  1.3929  0.6104
 1419SOL     OW 4850   1.508   0.160   4.892  0.0836  0.7173  0.0565
 1419SOL    HW1 4851   1.414   0.162   4.874  0.0307 -0.6726  0.1697
 1419SOL    HW2 4852   1.519   0.215   4.970 -0.4292  2.1106 -0.8434
 1420SOL     OW 4853   0.318   4.601   5.041  0.2314 -0.2074  0.2466
 1420SOL    HW1 4854   0.308   4.517   4.995  2.9345  0.3343 -1.4897
 1420SOL    HW2 4855   0.413   4.612   5.050 -0.0287  2.9661 -0.1997
 1421SOL     OW 4856   1.217   0.887   3.659 -0.2878  0.0988 -0.3700
 1421SOL    HW1 4857   1.301   0.913   3.622 -1.0821  0.7378 -1.7428
 1421SOL    HW2 4858   1.198   0.802   3.618  0.2099 -0.5965  0.7969
 1422SOL     OW 4859   6.157   6.232   5.489  1.1602  0.0927 -0.1430
 1422SOL    HW1 4860   6.139   6.304   5.428 -1.6408 -1.0077 -0.6717
 1422SOL    HW2 4861   6.110   6.256   5.568  0.8126 -0.8244 -0.0721
 1423SOL     OW 4862   7.008   4.502   0.828  0.6912 -0.6432 -0.2611
 1423SOL    HW1 4863   7.099   4.511   0.800  0.5184 -0.9012 -0.8986
 1423SOL    HW2 4864   7.006   4.543   0.915  1.4850 -0.9386 -0.1011
 1424SOL     OW 4865   6.628   6.904   1.753  0.3970  0.2674 -0.0919
 1424SOL    HW1 4866   6.662   6.815   1.768  2.3185  1.2585  1.7368
 1424SOL    HW2 4867   6.706   6.959   1.748 -0.8347  2.1354  0.7573
 1425SOL     OW 4868   2.869   2.586   4.134  0.0763  0.1033  0.2353
 1425SOL    HW1 4869   2.779   2.606   4.108 -0.5046  0.2302  2.2147
 1425SOL    HW2 4870   2.909   2.672   4.151  0.4564  0.0273 -0.2546
 1426SOL     OW 4871   4.095   4.899   0.785  0.4331 -0.2936  0.3895
 1426SOL    HW1 4872   4.105   4.865   0.696  0.0411 -1.5614  0.8226
 1426SOL    HW2 4873   4.057   4.826   0.834 -0.1959  0.6956  1.3872
 1427SOL     OW 4874   7.059   0.636   1.701  0.0956 -0.4743 -0.4630
 1427SOL    HW1 4875   7.150   0.661   1.718  0.2144 -1.6392  0.6921
 1427SOL    HW2 4876   7.048   0.554   1.748 -1.2965 -0.8098 -1.3501
 1428SOL     OW 4877   0.804   0.469   0.448  0.2424  0.6767  0.2024
 1428SOL    HW1 4878   0.735   0.504   0.505 -0.1166 -0.5779  0.5590
 1428SOL    HW2 4879   0.882   0.468   0.503  0.8048  2.9909 -0.4851
 1429SOL     OW 4880   2.963   6.131   1.852 -0.2914 -0.2334  0.2652
 1429SOL    HW1 4881   2.994   6.216   1.883  1.8138 -0.5549 -0.8331
 1429SOL    HW2 4882   3.042   6.077   1.846 -1.6243 -2.3765  1.2150
 1430SOL     OW 4883   4.572   7.013   4.213  0.6252 -0.1415  0.1866
 1430SOL    HW1 4884   4.562   7.070   4.136  2.1911 -0.3073 -0.1459
 1430SOL    HW2 4885   4.664   7.021   4.237  0.2172 -0.3186  1.8873
 1431SOL     OW 4886   3.022   6.113   0.218  0.1818  0.3030  0.1505
 1431SOL    HW1 4887   3.040   6.095   0.310 -1.5157 -2.1390  0.0531
 1431SOL    HW2 4888   3.065   6.197   0.201  2.3864 -0.2714  2.5742
 1432SOL     OW 4889   2.342   1.207   1.833 -0.1238  0.0538 -0.1789
 1432SOL    HW1 4890   2.301   1.174   1.753 -0.4573 -0.9048  0.3818
 1432SOL    HW2 4891   2.366   1.128   1.882 -0.0071  0.6339  0.7126
 1433SOL     OW 4892   1.937   3.102   6.550 -0.0403  0.1713 -0.2576
 1433SOL    HW1 4893   1.917   3.026   6.496 -0.9479  0.2948 -0.1049
 1433SOL    HW2 4894   2.003   3.071   6.612 -1.4222 -0.8806  0.7067
 1434SOL     OW 4895   0.471   3.886   2.841  0.1881 -0.4016  0.0614
 1434SOL    HW1 4896   0.511   3.816   2.893 -0.0571 -0.3957  0.2581
 1434SOL    HW2 4897   0.467   3.850   2.752  0.3835 -0.5041  0.0943
 1435SOL     OW 4898   5.701   5.971   1.558  0.3588  0.3580 -0.0734
 1435SOL    HW1 4899   5.708   5.878   1.581 -0.2097  0.1702 -0.6057
 1435SOL    HW2 4900   5.775   5.986   1.499 -0.3789 -0.1415 -1.1521
 1436SOL     OW 4901   1.804   1.886   2.491  0.2672  0.1663  0.2642
 1436SOL    HW1 4902   1.892   1.906   2.458  0.5008 -0.1285  0.6972
 1436SOL    HW2 4903   1.765   1.832   2.423  0.5219  0.0707  0.1919
 1437SOL     OW 4904   6.125   5.507   0.228 -0.0969 -0.0079  0.4414
 1437SOL    HW1 4905   6.120   5.481   0.136 -0.8657 -1.7187  0.9477
 1437SOL    HW2 4906   6.218   5.521   0.244  0.3224 -2.1605  0.0563
 1438SOL     OW 4907   0.238   4.971   0.730 -0.3154 -1.0106 -0.1206
 1438SOL    HW1 4908   0.259   4.878   0.720 -0.2918 -0.8027 -2.0939
 1438SOL    HW2 4909   0.284   5.014   0.658  0.4373  0.6568  1.3154
 1439SOL     OW 4910   1.825   3.042   1.017  0.2206  0.1807  0.5580
 1439SOL    HW1 4911   1.775   2.961   1.017  0.3933  0.0390 -2.2175
 1439SOL    HW2 4912   1.915   3.015   0.999  0.5693  0.8433  1.2567
 1440SOL     OW 4913   3.555   1.811   0.118  0.0456 -0.5161 -0.5898
 1440SOL    HW1 4914   3.545   1.780   0.208 -1.2354  1.5717  0.0341
 1440SOL    HW2 4915   3.489   1.880   0.109  2.1857  1.4085 -2.1555
 1441SOL     OW 4916   4.183   1.392   6.926  0.2076  0.3812  0.0477
 1441SOL    HW1 4917   4.188   1.358   7.015  0.0219 -0.4436 -0.2554
 1441SOL    HW2 4918   4.098   1.362   6.893  0.8138 -0.3914 -0.8450
 1442SOL     OW 4919   3.678   4.392   4.292  0.0073 -0.4303 -1.2302
 1442SOL    HW1 4920   3.669   4.307   4.249 -0.8647 -0.3778 -1.1639
 1442SOL    HW2 4921   3.772   4.406   4.297  0.2370 -2.1811  0.2599
 1443SOL     OW 4922   4.360   0.782   2.356  0.1885  0.1922 -0.5613
 1443SOL    HW1 4923   4.399   0.869   2.351 -0.9698  0.6505 -2.1036
 1443SOL    HW2 4924   4.280   0.788   2.303 -0.0530 -1.7318 -0.4738
 1444SOL     OW 4925   6.336   0.897   4.651 -0.6959  0.0293 -0.3777
 1444SOL    HW1 4926   6.283   0.946   4.588 -0.3402  2.5094  1.1671
 1444SOL    HW2 4927   6.426   0.915   4.625 -0.5563  0.6310  0.5229
 1445SOL     OW 4928   2.518   4.474   2.057  0.4511 -0.1124  0.6088
 1445SOL    HW1 4929   2.436   4.523   2.068  0.5549 -0.1872  1.7469
 1445SOL    HW2 4930   2.496   4.404   1.995 -0.1583  0.2970  0.3559
 1446SOL     OW 4931   6.788   0.199   5.035 -0.3048 -0.6729  0.4270
 1446SOL    HW1 4932   6.697   0.202   5.008  0.4604  1.8534 -2.2025
 1446SOL    HW2 4933   6.835   0.165   4.959  1.3428  1.7493  0.3058
 1447SOL     OW 4934   5.815   4.806   5.818 -0.1499 -0.4401 -0.1810
 1447SOL    HW1 4935   5.861   4.726   5.794 -0.0306 -0.3369 -0.2985
 1447SOL    HW2 4936   5.774   4.786   5.902 -1.5474 -1.1846 -1.0245
 1448SOL     OW 4937   4.197   3.665   4.067  0.2899 -0.0449  0.1123
 1448SOL    HW1 4938   4.190   3.751   4.107 -0.2291  0.7061 -1.5658
 1448SOL    HW2 4939   4.267   3.622   4.116 -0.3527  0.8236  1.8430
 1449SOL     OW 4940   1.106   5.817   3.819 -0.5510 -0.4734  0.0717
 1449SOL    HW1 4941   1.192   5.848   3.847 -0.5284 -0.2314 -0.2609
 1449SOL    HW2 4942   1.096   5.732   3.862  0.1371 -0.8071 -0.4068
 1450SOL     OW 4943   2.854   3.330   3.517 -0.0148 -0.4841 -0.4130
 1450SOL    HW1 4944   2.763   3.307   3.498 -0.4175 -0.3300  1.1865
 1450SOL    HW2 4945   2.858   3.425   3.503 -0.0300 -0.5370 -0.7685
 1451SOL     OW 4946   6.702   2.147   2.787 -0.4064  0.4055 -0.6609
 1451SOL    HW1 4947   6.748   2.209   2.845 -1.5708 -0.3545  1.1365
 1451SOL    HW2 4948   6.650   2.202   2.729  2.5053  1.2714 -2.5373
 1452SOL     OW 4949   6.033   5.335   1.691  0.8485 -0.3188  1.1436
 1452SOL    HW1 4950   5.957   5.332   1.749  0.2065 -2.1402  0.2793
 1452SOL    HW2 4951   6.108   5.343   1.749  0.0843  0.0571  2.0914
 1453SOL     OW 4952   2.152   0.920   5.462  0.2335 -0.0535 -0.1118
 1453SOL    HW1 4953   2.119   0.845   5.512 -0.5734 -0.5549 -1.3470
 1453SOL    HW2 4954   2.230   0.887   5.417 -0.3530 -0.2842 -0.9748
 1454SOL     OW 4955   0.558   5.880   0.283  0.1357 -0.0739  0.0510
 1454SOL    HW1 4956   0.466   5.865   0.307 -0.1093  0.6148 -0.4123
 1454SOL    HW2 4957   0.596   5.793   0.277 -0.0215 -0.3037  2.0547
 1455SOL     OW 4958   0.630   2.416   2.934 -0.2789 -0.5543 -0.0373
 1455SOL    HW1 4959   0.552   2.361   2.921 -0.6810 -0.4086  1.6399
 1455SOL    HW2 4960   0.702   2.365   2.896 -0.9365 -1.4041 -0.1670
 1456SOL     OW 4961   1.183   2.746   4.188 -0.3206 -0.0059  0.7234
 1456SOL    HW1 4962   1.128   2.770   4.262 -0.0640  1.3383  0.4759
 1456SOL    HW2 4963   1.243   2.680   4.223 -0.6477  0.1272  1.5336
 1457SOL     OW 4964   4.538   4.197   4.150  0.3159 -0.1487  0.4897
 1457SOL    HW1 4965   4.458   4.157   4.185  1.3653 -1.8786  0.9708
 1457SOL    HW2 4966   4.586   4.124   4.110  1.5143  0.9225 -0.0607
 1458SOL     OW 4967   3.563   2.272   4.309 -0.0240 -0.3325  0.2469
 1458SOL    HW1 4968   3.508   2.344   4.342  0.0603  0.2885 -0.9609
 1458SOL    HW2 4969   3.502   2.214   4.264  0.0001 -0.7133  0.7029
 1459SOL     OW 4970   1.974   1.061   3.343 -0.0809 -0.1555  0.9219
 1459SOL    HW1 4971   2.002   1.069   3.434  0.2178  1.4635  0.7053
 1459SOL    HW2 4972   2.055   1.053   3.293 -0.2677 -1.5817  0.8415
 1460SOL     OW 4973   6.728   0.233   1.683 -0.7646 -0.0535  0.0273
 1460SOL    HW1 4974   6.676   0.256   1.759 -1.1317  1.0574 -0.5435
 1460SOL    HW2 4975   6.760   0.317   1.650 -0.0286 -0.5844 -0.6228
 1461SOL     OW 4976   6.695   3.661   2.663 -0.1998 -0.1439 -0.5076
 1461SOL    HW1 4977   6.721   3.670   2.572  1.1123  1.9644  0.0619
 1461SOL    HW2 4978   6.654   3.744   2.685 -0.2499 -0.5363  0.9251
 1462SOL     OW 4979   3.316   3.002   2.529 -0.2319  0.6820 -0.8016
 1462SOL    HW1 4980   3.242   2.941   2.534 -0.2024  0.5782 -1.6984
 1462SOL    HW2 4981   3.280   3.085   2.562 -0.5761  0.4770 -0.6543
 1463SOL     OW 4982   0.591   0.165   5.178  0.8123 -0.5598 -0.9566
 1463SOL    HW1 4983   0.604   0.073   5.201  2.5007 -0.0991  0.0541
 1463SOL    HW2 4984   0.505   0.187   5.214 -0.0891 -2.0190 -2.1627
 1464SOL     OW 4985   6.713   2.314   0.373 -0.1564 -0.5047  0.2635
 1464SOL    HW1 4986   6.783   2.380   0.380  0.6663 -1.5707  2.7978
 1464SOL    HW2 4987   6.658   2.329   0.449 -0.6950 -1.9354  0.1721
 1465SOL     OW 4988   6.127   5.635   0.480  0.0643  0.2556 -0.3253
 1465SOL    HW1 4989   6.128   5.731   0.476  3.4129  0.3187  0.3766
 1465SOL    HW2 4990   6.109   5.608   0.390  0.2028  1.5522 -0.7536
 1466SOL     OW 4991   4.436   7.106   6.281 -0.2688  0.8028  0.1703
 1466SOL    HW1 4992   4.382   7.029   6.300 -0.8879  0.8131 -1.4881
 1466SOL    HW2 4993   4.491   7.117   6.359 -1.6251 -0.0836  1.2619
 1467SOL     OW 4994   2.530   3.054   2.907  0.0053 -0.4303 -0.0939
 1467SOL    HW1 4995   2.494   3.005   2.980 -0.6586 -1.9245 -1.3951
 1467SOL    HW2 4996   2.454   3.097   2.867 -0.0716 -1.9231 -1.6006
 1468SOL     OW 4997   0.972   0.361   1.853 -0.0086 -0.4058 -0.3510
 1468SOL    HW1 4998   1.018   0.347   1.935  2.5929  3.4627 -1.0320
 1468SOL    HW2 4999   0.928   0.445   1.863  0.8137  0.4113 -3.0797
 1469SOL     OW 5000   4.213   4.604   1.465 -0.1334 -0.4829  0.9219
 1469SOL    HW1 5001   4.237   4.597   1.372 -0.7008  0.8912  0.6543
 1469SOL    HW2 5002   4.273   4.545   1.510  1.8251  0.7141 -0.0490
 1470SOL     OW 5003   5.735   4.373   0.846 -0.3993  0.0747  0.7856
 1470SOL    HW1 5004   5.797   4.321   0.794 -1.7539 -0.6965 -0.0756
 1470SOL    HW2 5005   5.736   4.333   0.933  1.1324  0.7512  1.0937
 1471SOL     OW 5006   6.775   6.126   5.846  0.0772  0.3722 -0.0753
 1471SOL    HW1 5007   6.792   6.156   5.935 -1.8084  0.5474  0.2429
 1471SOL    HW2 5008   6.715   6.053   5.856  1.0207 -0.5756 -1.1362
 1472SOL     OW 5009   4.375   0.044   1.447  0.1359  0.0737 -0.0339
 1472SOL    HW1 5010   4.375   0.095   1.528  1.8437 -0.0644  0.0751
 1472SOL    HW2 5011   4.283   0.021   1.433 -0.5379  2.3675  0.4221
 1473SOL     OW 5012   3.674   2.214   3.075  0.3835  0.2091  0.3753
 1473SOL    HW1 5013   3.766   2.201   3.052 -0.0061  0.0413 -1.1458
 1473SOL    HW2 5014   3.638   2.264   3.002 -1.3530 -2.0173 -0.3412
 1474SOL     OW 5015   6.143   7.083   4.224  0.1389 -0.2028 -0.3546
 1474SOL    HW1 5016   6.125   7.020   4.155 -1.1626  0.0270 -0.2261
 1474SOL    HW2 5017   6.107   7.043   4.303  1.8108 -0.5670  0.2621
 1475SOL     OW 5018   3.965   0.210   0.581  0.2341 -0.1295  0.4152
 1475SOL    HW1 5019   3.920   0.294   0.586  0.5790  0.1732 -1.2588
 1475SOL    HW2 5020   3.962   0.175   0.671 -0.3498  1.4221  1.0089
 1476SOL     OW 5021   5.298   1.084   3.965  0.9066 -0.5570 -0.1357
 1476SOL    HW1 5022   5.278   1.039   4.047  1.1718 -1.0494 -0.3380
 1476SOL    HW2 5023   5.364   1.028   3.923  0.3585 -0.5890 -0.9469
 1477SOL     OW 5024   1.429   6.516   6.517  0.4771  0.6798 -0.2976
 1477SOL    HW1 5025   1.456   6.445   6.459 -0.7389  0.2885 -0.3903
 1477SOL    HW2 5026   1.337   6.498   6.535  1.0901  0.2702  2.5261
 1478SOL     OW 5027   0.882   4.652   3.298  0.7460  0.4255  0.1719
 1478SOL    HW1 5028   0.807   4.674   3.244 -0.0997 -0.1301  1.1173
 1478SOL    HW2 5029   0.945   4.614   3.237 -0.7445 -1.4991 -0.2104
 1479SOL     OW 5030   4.770   6.024   3.207  0.5946 -0.0626 -0.9043
 1479SOL    HW1 5031   4.770   5.973   3.288  0.0866 -0.2542 -1.0236
 1479SOL    HW2 5032   4.841   6.087   3.218 -0.0198  0.4805  0.0474
 1480SOL     OW 5033   3.074   3.814   1.752 -0.7820  0.5843 -0.3860
 1480SOL    HW1 5034   3.162   3.847   1.765 -0.5733 -0.2370  0.3141
 1480SOL    HW2 5035   3.053   3.836   1.661 -0.3994  2.0227 -0.1351
 1481SOL     OW 5036   4.008   4.640   3.206  0.3227 -0.4603 -0.2924
 1481SOL    HW1 5037   3.967   4.573   3.261 -1.7762  0.8965 -0.1699
 1481SOL    HW2 5038   3.952   4.717   3.216  2.9539  1.4928 -0.0375
 1482SOL     OW 5039   0.650   0.414   3.903 -0.1187 -0.9129 -0.0215
 1482SOL    HW1 5040   0.611   0.375   3.981 -0.8861  1.4403  0.8163
 1482SOL    HW2 5041   0.577   0.452   3.855  0.6076 -0.3312 -0.6923
 1483SOL     OW 5042   2.566   1.867   6.267  0.4520  0.4652  0.1138
 1483SOL    HW1 5043   2.520   1.921   6.332  2.7642  0.6895  1.6169
 1483SOL    HW2 5044   2.617   1.930   6.217  0.7136 -0.0034 -0.2041
 1484SOL     OW 5045   1.199   1.655   0.869 -0.1901  0.2435  0.3231
 1484SOL    HW1 5046   1.197   1.661   0.773 -0.8878  1.4297  0.4022
 1484SOL    HW2 5047   1.114   1.617   0.892  0.8835 -2.2451  0.3503
 1485SOL     OW 5048   5.194   6.615   6.653 -0.1792 -0.0833  0.1356
 1485SOL    HW1 5049   5.171   6.606   6.745  1.6467 -1.4079  0.4979
 1485SOL    HW2 5050   5.168   6.531   6.613  0.1808  0.0024 -0.2883
 1486SOL     OW 5051   6.351   4.546   5.829  0.6186 -0.0402 -0.1037
 1486SOL    HW1 5052   6.355   4.637   5.799  0.1843  0.1977  0.5603
 1486SOL    HW2 5053   6.403   4.498   5.765  1.5431  0.7957  0.0079
 1487SOL     OW 5054   6.547   6.876   5.729  0.1439  0.4178 -0.5489
 1487SOL    HW1 5055   6.590   6.804   5.774  1.1149  1.2853 -0.0705
 1487SOL    HW2 5056   6.454   6.855   5.733  0.2866  0.0466  1.0973
 1488SOL     OW 5057   7.104   1.832   1.544 -0.2785 -0.4396  0.0926
 1488SOL    HW1 5058   7.093   1.863   1.454 -0.4514  1.1183  0.6411
 1488SOL    HW2 5059   7.157   1.900   1.587  0.5677 -1.5934  0.9373
 1489SOL     OW 5060   0.257   0.516   0.806  0.0517  0.2982  0.3339
 1489SOL    HW1 5061   0.257   0.555   0.893 -2.0068  0.7696  0.1464
 1489SOL    HW2 5062   0.342   0.473   0.798 -0.3677 -1.1475  3.2090
 1490SOL     OW 5063   4.179   1.975   1.104 -0.0348 -0.3123 -0.0654
 1490SOL    HW1 5064   4.121   2.040   1.065 -2.1308 -2.2767 -0.3548
 1490SOL    HW2 5065   4.149   1.966   1.194  0.3514 -0.7144  0.0259
 1491SOL     OW 5066   4.694   0.159   0.899 -0.1047 -1.0586 -0.1245
 1491SOL    HW1 5067   4.712   0.233   0.841 -0.8080 -1.5183 -0.9527
 1491SOL    HW2 5068   4.760   0.165   0.968  0.8189 -0.5561 -1.0400
 1492SOL     OW 5069   5.333   0.245   0.423  0.3928  0.5632 -0.2111
 1492SOL    HW1 5070   5.249   0.275   0.388 -0.1077 -0.0278  0.4588
 1492SOL    HW2 5071   5.316   0.227   0.515  0.1791 -3.4648 -0.9517
 1493SOL     OW 5072   3.235   6.043   3.769 -0.2609 -0.1635 -0.0871
 1493SOL    HW1 5073   3.282   6.095   3.834 -0.2289  0.3662 -0.5313
 1493SOL    HW2 5074   3.159   6.096   3.747 -0.4160 -0.4665 -0.2823
 1494SOL     OW 5075   4.215   5.646   7.253 -0.3385 -0.3156  0.0828
 1494SOL    HW1 5076   4.249   5.616   7.169  0.4414 -1.2749  0.7304
 1494SOL    HW2 5077   4.293   5.671   7.303 -0.7439 -0.4779  0.8017
 1495SOL     OW 5078   4.827   1.397   4.187 -0.3597 -0.6752 -0.2203
 1495SOL    HW1 5079   4.831   1.393   4.282  1.4810  0.0282 -0.2492
 1495SOL    HW2 5080   4.790   1.313   4.161  0.3031 -1.3858  1.0677
 1496SOL     OW 5081   6.425   0.069   0.019  0.2903 -0.3472  0.3530
 1496SOL    HW1 5082   6.487   0.100   0.085 -0.3560  0.2565  0.6823
 1496SOL    HW2 5083   6.472   0.075  -0.064  0.8775 -0.4684  0.6767
 1497SOL     OW 5084   4.391   1.651   5.438 -0.5726  0.1268  0.7577
 1497SOL    HW1 5085   4.341   1.702   5.502 -2.3749 -0.1933 -0.3843
 1497SOL    HW2 5086   4.381   1.699   5.356  2.4002  0.9787  0.8199
 1498SOL     OW 5087   5.861   0.780   4.028  0.1081 -0.3342 -0.6536
 1498SOL    HW1 5088   5.810   0.718   4.081 -0.5200  0.7715  0.0526
 1498SOL    HW2 5089   5.949   0.775   4.065  0.1835 -1.1512 -0.9154
 1499SOL     OW 5090   0.738   0.704   0.788  0.3510 -0.0783  0.3491
 1499SOL    HW1 5091   0.752   0.762   0.713 -1.5694  0.4462  0.3765
 1499SOL    HW2 5092   0.744   0.761   0.864 -2.1480  0.2496  0.3486
 1500SOL     OW 5093   1.815   5.406   1.662  0.0252 -0.0665  0.2941
 1500SOL    HW1 5094   1.892   5.462   1.657  1.0691 -1.5118 -0.2062
 1500SOL    HW2 5095   1.805   5.370   1.574  0.0339 -1.5058  0.8659
 1501SOL     OW 5096   5.590   0.201   6.431  0.2603  0.2385 -0.0345
 1501SOL    HW1 5097   5.535   0.272   6.465  0.2470  1.0020 -1.5646
 1501SOL    HW2 5098   5.676   0.216   6.470 -0.4687 -0.6778  1.9937
 1502SOL     OW 5099   3.730   4.775   6.746  0.2507  0.0716  0.5719
 1502SOL    HW1 5100   3.774   4.821   6.817 -0.7524 -0.5708  1.6149
 1502SOL    HW2 5101   3.647   4.746   6.784 -1.3888  1.8214 -1.5266
 1503SOL     OW 5102   5.187   1.214   6.674  0.3555 -0.2326 -0.4039
 1503SOL    HW1 5103   5.263   1.212   6.615  0.5559 -1.7469 -0.1027
 1503SOL    HW2 5104   5.187   1.129   6.717 -0.0020  0.7234  1.5526
 1504SOL     OW 5105   6.769   1.969   0.114  0.1537  0.4635  0.3214
 1504SOL    HW1 5106   6.724   1.894   0.075  0.4259 -1.1647  3.0131
 1504SOL    HW2 5107   6.802   2.019   0.039 -2.2916 -0.6550 -1.5909
 1505SOL     OW 5108   5.413   5.640   2.051  0.2275  0.7118  0.5444
 1505SOL    HW1 5109   5.379   5.730   2.044 -0.6802  0.2941 -0.5396
 1505SOL    HW2 5110   5.352   5.588   1.999  0.9578 -0.4877  0.8886
 1506SOL     OW 5111   2.905   0.727   4.102 -0.0726  0.0365  0.0458
 1506SOL    HW1 5112   2.878   0.758   4.016 -0.2846 -1.9307 -0.6166
 1506SOL    HW2 5113   2.971   0.660   4.084 -0.0449 -0.3282  1.4155
 1507SOL     OW 5114   5.196   0.784   6.094 -0.0036  0.1435  0.0535
 1507SOL    HW1 5115   5.199   0.731   6.015 -1.3878 -0.6449  0.5213
 1507SOL    HW2 5116   5.224   0.871   6.066  1.2871 -0.5748 -0.9227
 1508SOL     OW 5117   2.281   5.058   4.865  0.2327 -0.2142 -0.6277
 1508SOL    HW1 5118   2.244   5.144   4.883 -0.3537 -0.5171 -0.3735
 1508SOL    HW2 5119   2.254   5.038   4.775 -0.1752 -0.4115 -0.4613
 1509SOL     OW 5120   4.580   5.322   4.714  0.3066  0.3477  0.6683
 1509SOL    HW1 5121   4.669   5.355   4.719  1.1574 -1.7868 -0.2509
 1509SOL    HW2 5122   4.574   5.257   4.783  0.3913 -1.6325 -1.1443
 1510SOL     OW 5123   2.344   3.038   3.327 -0.1816 -0.0006 -0.1045
 1510SOL    HW1 5124   2.352   3.040   3.422  0.6097 -1.1033 -0.1327
 1510SOL    HW2 5125   2.296   3.117   3.305  0.2763  0.6426  1.1552
 1511SOL     OW 5126   6.982   1.797   0.226  0.0959  0.0780 -0.5573
 1511SOL    HW1 5127   6.890   1.822   0.218 -0.3350 -1.7086 -1.2888
 1511SOL    HW2 5128   6.994   1.781   0.320 -0.4919 -0.2573 -0.5369
 1512SOL     OW 5129   6.108   5.685   5.436 -0.3196 -0.1251 -0.3235
 1512SOL    HW1 5130   6.073   5.703   5.349  0.7919 -0.4319 -0.8515
 1512SOL    HW2 5131   6.148   5.598   5.428 -0.2418 -0.1652  0.4939
 1513SOL     OW 5132   4.834   4.546   2.619 -0.3280  0.1240 -0.4981
 1513SOL    HW1 5133   4.796   4.473   2.668 -0.0287  0.0929 -0.3061
 1513SOL    HW2 5134   4.887   4.504   2.551  0.6538  0.1438  0.2369
 1514SOL     OW 5135   0.643   5.423   5.211  0.4259  0.3820  0.0574
 1514SOL    HW1 5136   0.726   5.401   5.254 -0.4934 -0.6581  1.3410
 1514SOL    HW2 5137   0.578   5.368   5.255 -0.6605 -0.1999 -2.2246
 1515SOL     OW 5138   4.435   5.041   0.548 -0.7169 -0.0962  0.4280
 1515SOL    HW1 5139   4.481   5.063   0.467 -2.3598 -0.4649 -0.6231
 1515SOL    HW2 5140   4.371   5.111   0.558 -1.4837 -0.8196  0.6321
 1516SOL     OW 5141   0.622   4.410   4.059  0.2188  0.3671  0.5270
 1516SOL    HW1 5142   0.639   4.347   4.128  0.3704  0.1725  0.3122
 1516SOL    HW2 5143   0.544   4.457   4.088  0.7132  0.7904  1.1860
 1517SOL     OW 5144   4.583   1.292   3.850  0.3756  0.2874 -0.3606
 1517SOL    HW1 5145   4.576   1.244   3.768  0.6904 -0.6344  0.1405
 1517SOL    HW2 5146   4.674   1.279   3.878 -0.2095 -0.9749  1.0555
 1518SOL     OW 5147   0.267   3.234   0.324  0.6222 -0.4232  0.0457
 1518SOL    HW1 5148   0.202   3.237   0.254 -0.0407  0.3324  0.6855
 1518SOL    HW2 5149   0.278   3.141   0.343 -0.7906 -0.5188  0.4184
 1519SOL     OW 5150   1.817   3.715   6.370 -0.2815 -0.5803  0.2315
 1519SOL    HW1 5151   1.883   3.664   6.415  0.7479  0.7240  0.2447
 1519SOL    HW2 5152   1.814   3.678   6.281 -0.7562 -1.7338  0.7245
 1520SOL     OW 5153   1.496   7.207   1.722  0.4541 -0.1129 -0.7582
 1520SOL    HW1 5154   1.452   7.141   1.669  0.0754  0.6564 -1.4179
 1520SOL    HW2 5155   1.540   7.263   1.658  1.5885 -0.3013 -0.1567
 1521SOL     OW 5156   5.810   4.944   1.229 -0.5339 -0.5989 -0.3146
 1521SOL    HW1 5157   5.779   5.032   1.248 -1.2112 -0.8705 -0.1380
 1521SOL    HW2 5158   5.731   4.895   1.206 -0.0433 -0.9078 -1.3909
 1522SOL     OW 5159   0.767   1.657   1.062 -0.6070  0.3995 -0.1275
 1522SOL    HW1 5160   0.819   1.588   1.103 -0.5201  1.1525  1.0463
 1522SOL    HW2 5161   0.676   1.628   1.073 -0.5842  0.6041  0.6051
 1523SOL     OW 5162   4.075   2.066   1.776  0.8107 -0.5934  0.1136
 1523SOL    HW1 5163   4.140   2.118   1.823  0.4485  0.2905 -0.3717
 1523SOL    HW2 5164   3.994   2.077   1.826  0.2801  0.8248 -1.0336
 1524SOL     OW 5165   0.997   0.148   5.603  0.0692 -0.4559  0.3610
 1524SOL    HW1 5166   0.968   0.080   5.663  2.3130 -2.5506 -0.8391
 1524SOL    HW2 5167   1.089   0.130   5.588  0.2664  1.7568 -1.4546
 1525SOL     OW 5168   2.425   3.102   5.615 -0.6863  0.5215  0.0669
 1525SOL    HW1 5169   2.457   3.158   5.686  0.9141 -0.3162  0.0185
 1525SOL    HW2 5170   2.497   3.042   5.597 -2.7217 -2.2822  0.8439
 1526SOL     OW 5171   6.765   4.232   5.881  0.3659  0.4940  0.0465
 1526SOL    HW1 5172   6.788   4.322   5.861  0.0812  0.5339 -0.1024
 1526SOL    HW2 5173   6.669   4.231   5.884  0.3757  0.2525  0.3020
 1527SOL     OW 5174   6.098   1.157   4.581 -0.3760 -0.2647 -0.9820
 1527SOL    HW1 5175   6.096   1.075   4.631  0.8785  0.6197  0.5461
 1527SOL    HW2 5176   6.185   1.159   4.541 -0.8261 -0.2224 -1.9833
 1528SOL     OW 5177   6.877   2.950   2.372 -0.2655 -0.2898  0.0101
 1528SOL    HW1 5178   6.930   2.875   2.345  1.0454  0.1825  1.2009
 1528SOL    HW2 5179   6.883   3.011   2.298  0.2826 -0.5395 -0.1591
 1529SOL     OW 5180   4.704   2.904   7.047 -0.3617  0.1338 -0.6512
 1529SOL    HW1 5181   4.725   2.852   6.970  0.4612 -0.0968 -0.2750
 1529SOL    HW2 5182   4.656   2.980   7.013  0.4640  0.3026 -1.4470
 1530SOL     OW 5183   6.691   1.799   4.567 -0.3758  0.2904 -0.0271
 1530SOL    HW1 5184   6.702   1.885   4.526 -2.3819  0.6715  0.1893
 1530SOL    HW2 5185   6.623   1.757   4.515  0.5251 -1.1405 -0.0605
 1531SOL     OW 5186   1.359   0.505   5.246  0.1233  0.2502 -0.2486
 1531SOL    HW1 5187   1.291   0.569   5.223 -1.7952 -1.8951 -0.7599
 1531SOL    HW2 5188   1.317   0.449   5.311  1.4061 -1.1779 -0.6372
 1532SOL     OW 5189   3.880   2.446   3.615 -0.4110 -0.5170  0.0733
 1532SOL    HW1 5190   3.820   2.496   3.671 -1.5559  0.3120 -1.8440
 1532SOL    HW2 5191   3.967   2.474   3.642 -0.8714 -1.0820  2.3019
 1533SOL     OW 5192   3.028   6.707   3.620 -0.0229  0.3215  0.3243
 1533SOL    HW1 5193   2.959   6.720   3.555  1.5196  1.6917 -1.1050
 1533SOL    HW2 5194   2.982   6.689   3.701 -2.0227 -0.6121 -0.9685
 1534SOL     OW 5195   4.231   6.821   1.061  0.0548  0.3495 -0.1028
 1534SOL    HW1 5196   4.325   6.823   1.040  0.9174 -1.5187  3.1542
 1534SOL    HW2 5197   4.221   6.885   1.131 -0.9987  0.0889 -0.0186
 1535SOL     OW 5198   3.981   2.747   5.433  0.0141  0.1041 -0.6304
 1535SOL    HW1 5199   4.074   2.726   5.440  0.1408  0.7160 -0.4097
 1535SOL    HW2 5200   3.974   2.836   5.469 -0.1490  1.3517 -3.6069
 1536SOL     OW 5201   5.724   0.545   6.683 -0.0925  0.3211  0.0307
 1536SOL    HW1 5202   5.816   0.552   6.660 -0.1343  0.4970 -0.0889
 1536SOL    HW2 5203   5.684   0.501   6.608 -0.1542  0.4986 -0.0402
 1537SOL     OW 5204   6.622   5.487   3.266 -0.3459 -0.2478  0.0907
 1537SOL    HW1 5205   6.546   5.437   3.237  0.3731 -1.7566  0.7632
 1537SOL    HW2 5206   6.585   5.561   3.315 -1.4061 -0.2417 -0.7084
 1538SOL     OW 5207   5.365   5.908   2.010  0.2899 -0.0398  0.6329
 1538SOL    HW1 5208   5.411   5.975   2.060  1.2145  0.0639 -0.3451
 1538SOL    HW2 5209   5.407   5.908   1.924 -1.6276  0.1388 -0.3256
 1539SOL     OW 5210   0.526   5.539   2.453 -0.0364  0.2493 -0.3730
 1539SOL    HW1 5211   0.534   5.605   2.522 -0.1317  0.7367 -0.8236
 1539SOL    HW2 5212   0.543   5.587   2.372  0.0445 -0.3136 -0.6938
 1540SOL     OW 5213   1.531   6.705   1.339  0.3059  0.3199  0.6353
 1540SOL    HW1 5214   1.510   6.662   1.421 -1.4646 -3.0466 -1.4492
 1540SOL    HW2 5215   1.618   6.673   1.316  1.4866  2.5048  1.9142
 1541SOL     OW 5216   5.725   5.232   4.965  0.0507 -0.0405 -0.2566
 1541SOL    HW1 5217   5.664   5.181   4.911  0.6760  0.2767 -1.2754
 1541SOL    HW2 5218   5.700   5.211   5.055 -0.4708 -1.2221 -0.6645
 1542SOL     OW 5219   3.634   0.123   3.062 -0.7855  0.0207  0.0120
 1542SOL    HW1 5220   3.560   0.088   3.011  0.5490 -1.1510 -1.1450
 1542SOL    HW2 5221   3.640   0.215   3.033 -1.3669 -0.0576 -0.3853
 1543SOL     OW 5222   3.477   2.777   3.794 -0.3272 -0.2501  0.1143
 1543SOL    HW1 5223   3.430   2.693   3.798  0.1741 -0.4799  1.2032
 1543SOL    HW2 5224   3.514   2.788   3.881  2.5129 -0.5635 -1.0171
 1544SOL     OW 5225   4.384   4.966   2.896 -0.2317  0.3567 -0.4350
 1544SOL    HW1 5226   4.298   4.981   2.934 -0.1052  2.2742 -0.9019
 1544SOL    HW2 5227   4.429   5.050   2.904  1.1554 -0.2861 -1.3343
 1545SOL     OW 5228   4.360   4.967   0.848  0.2500  0.9066  0.4027
 1545SOL    HW1 5229   4.386   4.990   0.759  1.8115 -1.3699  0.2272
 1545SOL    HW2 5230   4.277   4.919   0.837  0.6685  0.2383  0.1166
 1546SOL     OW 5231   0.056   4.727   4.756  0.0485  0.1111 -0.3725
 1546SOL    HW1 5232   0.081   4.732   4.849  0.9960  1.8278 -0.6978
 1546SOL    HW2 5233  -0.019   4.785   4.748 -1.7766 -2.1605 -0.1583
 1547SOL     OW 5234   4.940   0.017   4.750 -0.1175  0.6752  0.0165
 1547SOL    HW1 5235   5.032   0.015   4.722 -0.3055  0.8027 -0.5932
 1547SOL    HW2 5236   4.893   0.058   4.678 -0.8440 -0.5040 -0.1873
 1548SOL     OW 5237   1.441   2.627   4.987 -0.1434 -0.0142 -0.0680
 1548SOL    HW1 5238   1.446   2.704   5.044 -0.2084 -0.6164  0.7537
 1548SOL    HW2 5239   1.494   2.650   4.911 -1.8262  1.6510 -0.7803
 1549SOL     OW 5240   2.364   3.721   7.105 -0.2262 -0.2288 -0.2387
 1549SOL    HW1 5241   2.300   3.652   7.123 -1.9838  0.6829 -2.7481
 1549SOL    HW2 5242   2.413   3.688   7.029  0.0435  0.5805 -0.4154
 1550SOL     OW 5243   2.551   5.366   1.241  0.0001 -0.2677 -0.1725
 1550SOL    HW1 5244   2.465   5.341   1.207 -0.3746 -1.3693  1.5318
 1550SOL    HW2 5245   2.535   5.448   1.287 -0.1403 -0.4474  0.1033
 1551SOL     OW 5246   0.168   3.467   6.215 -0.1472  0.2844  0.5744
 1551SOL    HW1 5247   0.256   3.493   6.242 -0.6593 -0.0770  2.6270
 1551SOL    HW2 5248   0.110   3.534   6.251 -0.7795  0.1977 -0.2479
 1552SOL     OW 5249   6.191   0.072   6.863  0.4107 -0.2277  0.3706
 1552SOL    HW1 5250   6.173  -0.019   6.887  3.2944 -0.9448 -0.0734
 1552SOL    HW2 5251   6.177   0.074   6.768 -0.6218  0.0667  0.5166
 1553SOL     OW 5252   7.034   7.192   2.832 -1.2105 -0.1261 -0.1529
 1553SOL    HW1 5253   6.967   7.185   2.765 -2.3826 -1.1067  1.0931
 1553SOL    HW2 5254   7.108   7.235   2.789 -1.2190 -2.4889 -2.6120
 1554SOL     OW 5255   2.523   1.660   6.879  0.1595  0.3293  0.1989
 1554SOL    HW1 5256   2.581   1.598   6.923  0.5202  0.5540  0.0417
 1554SOL    HW2 5257   2.569   1.683   6.799 -0.3825  0.1145 -0.1768
 1555SOL     OW 5258   5.181   1.756   5.662 -0.7579  0.2251 -0.0764
 1555SOL    HW1 5259   5.165   1.760   5.756  0.8344 -0.2767  0.2243
 1555SOL    HW2 5260   5.094   1.753   5.623 -1.4360  0.8265  1.3541
 1556SOL     OW 5261   2.321   4.678   3.405 -0.3465  0.2775  0.0555
 1556SOL    HW1 5262   2.416   4.678   3.387 -0.8120 -0.2834 -2.6655
 1556SOL    HW2 5263   2.289   4.756   3.360 -1.3791 -0.3256 -0.2574
 1557SOL     OW 5264   1.094   2.986   4.895  0.1650  0.2333  0.0604
 1557SOL    HW1 5265   1.162   3.031   4.946 -0.3987 -0.2690  1.2775
 1557SOL    HW2 5266   1.012   3.019   4.931 -0.2546  1.0237 -1.5763
 1558SOL     OW 5267   1.985   5.841   5.736  0.0816 -0.0032  0.1838
 1558SOL    HW1 5268   1.943   5.919   5.701 -0.1460  0.1444  0.7891
 1558SOL    HW2 5269   2.060   5.826   5.678  0.8226  1.3456  0.7683
 1559SOL     OW 5270   7.076   5.744   5.762 -0.4470 -0.1960  0.1689
 1559SOL    HW1 5271   7.098   5.834   5.737  0.0049  0.0976  1.5926
 1559SOL    HW2 5272   7.150   5.715   5.815 -1.7159 -0.5489  1.7714
 1560SOL     OW 5273   3.478   5.339   4.013 -0.1749 -0.2195  0.3170
 1560SOL    HW1 5274   3.500   5.328   3.921 -2.9216 -0.2079 -0.3838
 1560SOL    HW2 5275   3.497   5.254   4.053 -0.9158 -0.8643 -0.6943
 1561SOL     OW 5276   5.374   6.618   7.135 -0.2888 -0.0833  0.0375
 1561SOL    HW1 5277   5.437   6.582   7.198  0.1690 -0.4183 -0.6150
 1561SOL    HW2 5278   5.420   6.617   7.051 -0.6910  0.9244 -0.2050
 1562SOL     OW 5279   2.020   5.251   0.306  0.2176  0.4555  0.0031
 1562SOL    HW1 5280   2.106   5.288   0.285  0.6158 -0.1328  0.5660
 1562SOL    HW2 5281   1.977   5.318   0.360  0.4507  0.6074  0.0013
 1563SOL     OW 5282   1.158   2.956   1.553  0.5299  0.1042  0.1183
 1563SOL    HW1 5283   1.086   2.929   1.611  0.0990 -0.5764 -0.7192
 1563SOL    HW2 5284   1.204   3.024   1.602 -0.0204 -0.2348  1.1309
 1564SOL     OW 5285   2.664   1.478   7.017  0.0095  0.0684  0.0500
 1564SOL    HW1 5286   2.728   1.548   7.032  1.4728 -1.0323 -0.8684
 1564SOL    HW2 5287   2.692   1.407   7.075 -0.3905 -0.4060 -0.3295
 1565SOL     OW 5288   4.254   2.687   1.024 -0.0039 -0.1193 -0.4895
 1565SOL    HW1 5289   4.171   2.665   1.065  0.5129  0.4091  0.8489
 1565SOL    HW2 5290   4.257   2.782   1.024  0.5771 -0.1351 -0.5913
 1566SOL     OW 5291   1.971   2.856   5.538  0.0917 -0.4818 -0.4268
 1566SOL    HW1 5292   2.041   2.831   5.598  1.6860  0.9873 -1.6248
 1566SOL    HW2 5293   1.945   2.943   5.566  0.7708  0.1747 -1.7708
 1567SOL     OW 5294   0.239   2.809   2.262 -0.2722  0.1467 -0.2933
 1567SOL    HW1 5295   0.214   2.885   2.315 -1.7367 -1.4118  1.2986
 1567SOL    HW2 5296   0.157   2.781   2.221  0.1044 -1.0458 -0.2402
 1568SOL     OW 5297   1.229   2.138   5.263  0.3590  0.1579 -0.1527
 1568SOL    HW1 5298   1.298   2.086   5.221  0.0264  1.0803 -1.9033
 1568SOL    HW2 5299   1.236   2.224   5.221 -0.8317  0.7163  0.7873
 1569SOL     OW 5300   3.196   6.733   0.669  0.5291 -0.1549  0.7161
 1569SOL    HW1 5301   3.135   6.739   0.743  1.0536  0.1433  1.1276
 1569SOL    HW2 5302   3.151   6.778   0.598  1.1827  1.9898  1.6315
 1570SOL     OW 5303   0.263   7.186   1.168  0.3448  0.0764  0.3716
 1570SOL    HW1 5304   0.175   7.170   1.202 -0.2051  0.4114 -0.8621
 1570SOL    HW2 5305   0.297   7.256   1.223 -0.8815  1.2625 -0.3546
 1571SOL     OW 5306   1.930   3.004   3.586 -0.1277 -0.9824  0.3549
 1571SOL    HW1 5307   2.014   2.957   3.588 -0.1926 -1.1736 -1.0619
 1571SOL    HW2 5308   1.869   2.942   3.546 -0.6239 -0.3179  0.0833
 1572SOL     OW 5309   3.226   2.778   1.530 -0.3623 -0.0207 -0.0883
 1572SOL    HW1 5310   3.141   2.748   1.561 -0.5147  1.3777  0.8894
 1572SOL    HW2 5311   3.223   2.765   1.435 -0.9439 -1.7294  0.1410
 1573SOL     OW 5312   3.649   0.133   1.422  0.1525  0.5683 -0.0286
 1573SOL    HW1 5313   3.617   0.169   1.339 -0.4462  2.4102  0.9860
 1573SOL    HW2 5314   3.739   0.165   1.429  0.4872 -0.2904 -0.3703
 1574SOL     OW 5315   3.874   0.719   5.978 -0.9026 -0.1259  0.2005
 1574SOL    HW1 5316   3.914   0.734   5.892 -1.7662  1.7345  0.0838
 1574SOL    HW2 5317   3.947   0.723   6.039 -0.5585  0.8576 -0.2469
 1575SOL     OW 5318   4.315   6.103   1.085  0.0520 -0.8066  0.3407
 1575SOL    HW1 5319   4.250   6.095   1.015 -0.3994 -2.0803  0.8970
 1575SOL    HW2 5320   4.287   6.040   1.152  1.2194 -0.5587  1.0816
 1576SOL     OW 5321   4.259   6.623   2.545 -0.1785 -0.0610  0.1792
 1576SOL    HW1 5322   4.287   6.700   2.595 -2.4616  0.8997  0.0323
 1576SOL    HW2 5323   4.254   6.552   2.610 -2.0642  0.9158  1.1442
 1577SOL     OW 5324   1.874   3.493   6.727  0.4167  0.6676 -0.7437
 1577SOL    HW1 5325   1.822   3.415   6.708  0.8862  0.4288 -1.0626
 1577SOL    HW2 5326   1.827   3.537   6.798  0.6773 -0.4469  0.1446
 1578SOL     OW 5327   5.847   4.023   7.224  0.4647 -0.3107  0.3507
 1578SOL    HW1 5328   5.865   3.979   7.307  0.1783  0.6263  0.9168
 1578SOL    HW2 5329   5.934   4.050   7.193  0.6038 -0.9333  0.1822
 1579SOL     OW 5330   3.167   5.952   1.816 -0.7223  0.3675 -0.0177
 1579SOL    HW1 5331   3.145   5.859   1.814  1.1104 -0.0879  0.4916
 1579SOL    HW2 5332   3.231   5.961   1.886  0.9957  1.5796 -1.6765
 1580SOL     OW 5333   3.088   3.685   2.878  0.3808  0.2689 -0.2179
 1580SOL    HW1 5334   3.124   3.603   2.912 -0.7141 -0.2646 -0.3193
 1580SOL    HW2 5335   3.022   3.710   2.943 -0.8720 -0.1269 -1.3217
 1581SOL     OW 5336   0.837   5.223   1.607  0.3443  0.5239 -0.0269
 1581SOL    HW1 5337   0.908   5.179   1.561 -0.2316  0.1694 -0.5802
 1581SOL    HW2 5338   0.797   5.154   1.662 -0.3058  0.4386 -0.5955
 1582SOL     OW 5339   3.885   1.081   5.942 -0.0578  0.5196  0.7729
 1582SOL    HW1 5340   3.939   1.058   5.867 -1.9249  1.0377 -0.7981
 1582SOL    HW2 5341   3.795   1.078   5.908 -0.7953  2.9970  2.3799
 1583SOL     OW 5342   3.179   4.592   5.462 -0.9314  0.0343  0.1337
 1583SOL    HW1 5343   3.140   4.629   5.541 -0.1294  2.5165 -0.5833
 1583SOL    HW2 5344   3.240   4.659   5.432 -0.7203 -1.1593 -2.2222
 1584SOL     OW 5345   1.527   1.800   2.390  0.1708 -0.3081  0.0508
 1584SOL    HW1 5346   1.454   1.771   2.334 -1.0273  0.1469  1.3559
 1584SOL    HW2 5347   1.550   1.723   2.442  0.9251 -0.5772 -0.6738
 1585SOL     OW 5348   4.426   3.115   6.146 -0.4376  0.1104  0.3486
 1585SOL    HW1 5349   4.353   3.069   6.106 -0.0282  0.9438 -1.3808
 1585SOL    HW2 5350   4.386   3.193   6.186 -0.4711  0.7673 -0.9251
 1586SOL     OW 5351   6.492   3.538   3.828  0.7466  0.0652  0.7324
 1586SOL    HW1 5352   6.510   3.567   3.739 -2.1331 -0.1515  0.0306
 1586SOL    HW2 5353   6.524   3.448   3.831  0.3462 -0.1201 -0.2706
 1587SOL     OW 5354   1.700   0.631   1.785  0.3816  0.5061  0.0385
 1587SOL    HW1 5355   1.642   0.588   1.848  0.9924  0.3197  0.4743
 1587SOL    HW2 5356   1.640   0.676   1.725 -0.2770 -1.1433 -0.5801
 1588SOL     OW 5357   0.339   0.320   4.313 -0.0813  0.2410 -0.3919
 1588SOL    HW1 5358   0.319   0.369   4.393  0.8928  1.2125 -0.7261
 1588SOL    HW2 5359   0.296   0.236   4.325  1.3717 -0.2140  1.8808
 1589SOL     OW 5360   4.777   2.608   5.428 -0.1082  0.3089  0.1978
 1589SOL    HW1 5361   4.811   2.641   5.511 -0.5758  0.1837  0.4405
 1589SOL    HW2 5362   4.765   2.514   5.442 -2.3235  0.6472  0.7313
 1590SOL     OW 5363   0.838   4.170   6.314  0.4940  0.3983 -0.1445
 1590SOL    HW1 5364   0.747   4.171   6.286  0.6016  0.2042 -0.5061
 1590SOL    HW2 5365   0.880   4.105   6.257  0.5985 -0.3946  0.8284
 1591SOL     OW 5366   6.629   2.355   6.456  0.4861 -0.1896  0.6644
 1591SOL    HW1 5367   6.604   2.411   6.529 -2.0750 -1.5118  0.8583
 1591SOL    HW2 5368   6.664   2.415   6.390 -1.8225  1.5970  1.0155
 1592SOL     OW 5369   4.556   7.048   6.816 -0.2394  0.3899 -0.3162
 1592SOL    HW1 5370   4.539   7.137   6.849 -0.5633 -0.4426  1.7922
 1592SOL    HW2 5371   4.634   7.019   6.862 -0.8284 -0.8782 -0.0854
 1593SOL     OW 5372   4.763   2.705   5.181  0.3421  0.9411  0.4145
 1593SOL    HW1 5373   4.841   2.667   5.140  1.1278  1.5751  1.3199
 1593SOL    HW2 5374   4.769   2.678   5.273 -0.2791  1.3591  0.5771
 1594SOL     OW 5375   5.283   0.396   2.491 -0.2113  0.6379 -0.1977
 1594SOL    HW1 5376   5.231   0.427   2.416 -1.5756 -1.1834 -0.0583
 1594SOL    HW2 5377   5.232   0.323   2.526  1.8342 -0.3709  0.7589
 1595SOL     OW 5378   1.596   4.842   5.245 -0.0137 -0.1538  0.2172
 1595SOL    HW1 5379   1.602   4.834   5.341 -0.3853  1.1618  0.3518
 1595SOL    HW2 5380   1.569   4.932   5.230 -0.1559 -0.4165 -1.1332
 1596SOL     OW 5381   0.253   2.023   2.856 -0.4516 -0.3849 -0.3844
 1596SOL    HW1 5382   0.262   2.106   2.810 -1.0509 -0.5138 -0.7322
 1596SOL    HW2 5383   0.343   1.995   2.873 -0.2569  0.5065  0.0438
 1597SOL     OW 5384   4.307   0.125   6.484 -0.3000 -0.0296  0.0144
 1597SOL    HW1 5385   4.292   0.161   6.571 -0.0616  0.2839 -0.0731
 1597SOL    HW2 5386   4.241   0.056   6.475  0.0673 -0.4714  0.6804
 1598SOL     OW 5387   2.247   1.120   2.879 -0.4691 -0.4521  0.1944
 1598SOL    HW1 5388   2.330   1.082   2.852  0.6802  0.5889  2.1506
 1598SOL    HW2 5389   2.254   1.213   2.855 -1.1353 -0.3937  0.2195
 1599SOL     OW 5390   5.279   2.110   5.217  0.6226  0.5864 -0.3686
 1599SOL    HW1 5391   5.196   2.082   5.256  0.3796  0.9001 -0.6445
 1599SOL    HW2 5392   5.346   2.082   5.278  0.3078  0.3467 -0.1304
 1600SOL     OW 5393   6.970   3.401   0.229  0.2433  0.0821 -0.0329
 1600SOL    HW1 5394   6.903   3.425   0.165  0.2155 -1.1608 -0.5003
 1600SOL    HW2 5395   6.980   3.306   0.218  2.0432  0.2422  0.0766
 1601SOL     OW 5396   0.905   4.258   3.508 -0.0202  0.5254 -0.1700
 1601SOL    HW1 5397   0.904   4.325   3.440  1.1622  0.3915 -0.3454
 1601SOL    HW2 5398   0.888   4.305   3.590 -0.3875  0.8482 -0.4333
 1602SOL     OW 5399   1.441   5.163   2.165 -0.5766 -0.3022 -0.5093
 1602SOL    HW1 5400   1.517   5.197   2.212 -0.5836  1.8280 -1.9690
 1602SOL    HW2 5401   1.374   5.152   2.232 -0.3454  1.9541  0.1162
 1603SOL     OW 5402   4.258   7.109   7.101 -1.1670 -0.1147  0.2288
 1603SOL    HW1 5403   4.253   7.036   7.161 -1.6313 -0.2630  0.0120
 1603SOL    HW2 5404   4.274   7.069   7.015  3.8898  0.2845  0.8171
 1604SOL     OW 5405   2.563   1.852   4.216 -0.0862 -0.1364 -0.4346
 1604SOL    HW1 5406   2.542   1.920   4.280  1.8114  0.2706 -0.2234
 1604SOL    HW2 5407   2.605   1.783   4.267  0.7098 -0.1538 -1.1011
 1605SOL     OW 5408   1.227   1.437   3.470 -0.0092  0.0618 -0.3835
 1605SOL    HW1 5409   1.268   1.440   3.557 -0.6591 -1.9015  0.0396
 1605SOL    HW2 5410   1.300   1.434   3.409  0.4583  0.8429  0.1244
 1606SOL     OW 5411   6.719   2.816   0.987 -0.2875  0.0066  0.1874
 1606SOL    HW1 5412   6.683   2.783   1.069  0.2562 -1.4872 -0.1654
 1606SOL    HW2 5413   6.797   2.763   0.972  1.8790  2.9178  0.7188
 1607SOL     OW 5414   6.237   3.527   3.874 -0.5419 -0.0632  0.8935
 1607SOL    HW1 5415   6.329   3.504   3.871 -0.5545 -0.4280  2.7416
 1607SOL    HW2 5416   6.193   3.462   3.820 -0.0337 -1.5672  2.2773
 1608SOL     OW 5417   6.170   5.241   3.895 -0.0206  0.4912 -0.1051
 1608SOL    HW1 5418   6.108   5.306   3.927 -1.4333  0.7675 -3.1893
 1608SOL    HW2 5419   6.146   5.229   3.802  2.6325 -1.6066 -0.5738
 1609SOL     OW 5420   6.131   5.405   4.724  0.0770  0.3079  0.0466
 1609SOL    HW1 5421   6.163   5.317   4.706 -0.4453  0.1137  0.0410
 1609SOL    HW2 5422   6.055   5.392   4.781 -2.9362  0.4074 -3.7263
 1610SOL     OW 5423   6.871   1.453   4.876 -0.0517 -0.0762 -0.3877
 1610SOL    HW1 5424   6.856   1.547   4.881 -0.7513 -0.2698  1.6825
 1610SOL    HW2 5425   6.957   1.440   4.918 -0.6239 -0.4933  0.6922
 1611SOL     OW 5426   6.833   0.151   5.740  0.6073 -0.0347  0.7675
 1611SOL    HW1 5427   6.884   0.191   5.810 -0.4975 -0.1694  1.6642
 1611SOL    HW2 5428   6.742   0.162   5.767  0.1780 -0.3049 -0.5328
 1612SOL     OW 5429   3.191   2.169   4.410 -0.3693 -0.1380 -0.2086
 1612SOL    HW1 5430   3.230   2.203   4.329 -2.0942 -2.7921 -2.2392
 1612SOL    HW2 5431   3.103   2.207   4.411  0.1210  0.9934  1.1839
 1613SOL     OW 5432   3.615   4.074   7.019  0.3635 -0.2609 -0.0426
 1613SOL    HW1 5433   3.673   4.138   6.975  1.3937 -1.0904  0.0871
 1613SOL    HW2 5434   3.559   4.041   6.949  0.4139  0.1530 -0.2820
 1614SOL     OW 5435   5.865   0.969   4.494  0.6541 -0.2525  0.0905
 1614SOL    HW1 5436   5.849   1.000   4.583  0.5614 -0.6356  0.2068
 1614SOL    HW2 5437   5.790   1.001   4.443  0.8828  0.2652  0.0770
 1615SOL     OW 5438   3.412   2.505   3.421  0.2159  0.7580 -0.2181
 1615SOL    HW1 5439   3.325   2.478   3.450  0.3029 -0.3943 -0.9703
 1615SOL    HW2 5440   3.472   2.458   3.477  0.3856  3.3080  1.8363
 1616SOL     OW 5441   3.969   3.323   3.732  0.0520  0.0243 -0.3594
 1616SOL    HW1 5442   4.042   3.339   3.791 -0.7211  0.2806  0.5473
 1616SOL    HW2 5443   3.936   3.411   3.711 -0.3892 -0.1150 -0.2552
 1617SOL     OW 5444   3.425   0.966   3.374  0.5258 -0.1458  0.6723
 1617SOL    HW1 5445   3.376   0.991   3.295  1.3003 -0.1390  0.1898
 1617SOL    HW2 5446   3.365   0.911   3.424 -0.0554  0.0557  0.1950
 1618SOL     OW 5447   6.497   1.337   6.504 -0.4400  0.2256 -0.7081
 1618SOL    HW1 5448   6.490   1.250   6.465  0.3074 -0.3019  0.3086
 1618SOL    HW2 5449   6.586   1.366   6.484 -0.9034  1.0494 -1.6244
 1619SOL     OW 5450   1.868   4.358   7.191 -0.6485 -0.3381 -0.2463
 1619SOL    HW1 5451   1.913   4.290   7.242 -2.1444 -1.3692 -0.2615
 1619SOL    HW2 5452   1.882   4.438   7.240  0.8937 -0.6976 -0.0645
 1620SOL     OW 5453   6.519   0.050   6.206 -0.6641 -0.4107 -0.4988
 1620SOL    HW1 5454   6.431   0.028   6.238 -1.2441  1.1338 -0.9645
 1620SOL    HW2 5455   6.524   0.010   6.119 -1.5848  0.9571 -1.2037
 1621SOL     OW 5456   4.705   5.128   0.623 -0.0830 -0.3618  0.0271
 1621SOL    HW1 5457   4.789   5.083   0.618  0.3240  0.6074 -3.5741
 1621SOL    HW2 5458   4.641   5.062   0.597  0.0310 -0.0399 -1.0912
 1622SOL     OW 5459   5.382   0.989   6.417 -0.0376 -0.3327  0.0955
 1622SOL    HW1 5460   5.363   1.078   6.447  0.9019 -0.4818  1.1617
 1622SOL    HW2 5461   5.307   0.938   6.446  0.4087 -0.2839  1.3679
 1623SOL     OW 5462   2.361   6.961   7.066  0.1030 -0.2000 -0.7701
 1623SOL    HW1 5463   2.377   7.044   7.021 -0.9376  0.5155  0.1674
 1623SOL    HW2 5464   2.387   6.894   7.002  2.8401  0.8398 -0.8245
 1624SOL     OW 5465   6.941   2.360   5.230  0.8309  0.5537  0.1436
 1624SOL    HW1 5466   6.939   2.312   5.312 -2.4659  1.4920  0.6918
 1624SOL    HW2 5467   6.975   2.446   5.252  0.9091  0.4802  0.3081
 1625SOL     OW 5468   5.625   7.212   5.682 -0.1938  0.1050  0.0902
 1625SOL    HW1 5469   5.685   7.284   5.703 -0.2825  0.2297 -0.0815
 1625SOL    HW2 5470   5.538   7.251   5.683 -0.3902 -0.3403  1.5421
 1626SOL     OW 5471   2.746   5.471   5.776 -0.5022  0.3972  0.3185
 1626SOL    HW1 5472   2.838   5.448   5.773 -0.4671  0.4762  0.7588
 1626SOL    HW2 5473   2.700   5.388   5.764 -0.3753  0.1484  1.5456
 1627SOL     OW 5474   2.783   2.520   5.088  0.3313 -0.1897 -0.6185
 1627SOL    HW1 5475   2.714   2.473   5.135 -0.4557  0.2083 -1.3667
 1627SOL    HW2 5476   2.739   2.598   5.054  0.8318 -0.6405 -2.3000
 1628SOL     OW 5477   6.172   0.804   1.456 -0.2634  0.1308 -1.0041
 1628SOL    HW1 5478   6.245   0.860   1.430 -0.4884  0.2257 -1.4237
 1628SOL    HW2 5479   6.094   0.856   1.439 -0.5546 -0.8284 -2.7208
 1629SOL     OW 5480   6.659   4.380   4.296  0.0739  0.5010 -0.0531
 1629SOL    HW1 5481   6.566   4.387   4.315  0.2401 -0.6802  1.2860
 1629SOL    HW2 5482   6.665   4.315   4.226  0.1174 -2.2265  2.3756
 1630SOL     OW 5483   5.986   6.330   4.288  0.8352  0.4137  0.0970
 1630SOL    HW1 5484   5.904   6.283   4.272  0.7935  0.3835  0.4060
 1630SOL    HW2 5485   5.975   6.414   4.243  0.3193  0.7353  0.8170
 1631SOL     OW 5486   3.697   4.004   5.060  0.2500  0.0184  0.1088
 1631SOL    HW1 5487   3.720   3.918   5.025 -0.3384 -0.4363  0.8188
 1631SOL    HW2 5488   3.602   4.011   5.045  0.5043  1.0457 -1.0328
 1632SOL     OW 5489   1.631   5.234   0.542  0.2575  0.1045  0.4631
 1632SOL    HW1 5490   1.640   5.171   0.613  0.7147 -1.0010 -0.5426
 1632SOL    HW2 5491   1.721   5.263   0.524  0.4317 -1.2685 -1.0775
 1633SOL     OW 5492   4.361   0.493   6.503 -0.3662  0.5517 -0.2726
 1633SOL    HW1 5493   4.407   0.432   6.562 -1.2614  0.3489  0.2179
 1633SOL    HW2 5494   4.278   0.450   6.483 -0.5789  1.1661 -0.7233
 1634SOL     OW 5495   3.148   2.587   4.544  0.4637 -0.0541 -0.0353
 1634SOL    HW1 5496   3.093   2.641   4.600 -1.5024 -0.8204 -1.1290
 1634SOL    HW2 5497   3.199   2.649   4.493  1.7982  0.6502  2.1072
 1635SOL     OW 5498   3.844   5.144   3.040  0.3104 -0.3147 -0.0139
 1635SOL    HW1 5499   3.766   5.093   3.062  0.1419  1.0205  2.7818
 1635SOL    HW2 5500   3.820   5.234   3.064  1.3540  0.7486 -2.8039
 1636SOL     OW 5501   4.934   3.243   5.454  0.2344 -0.0802  0.4449
 1636SOL    HW1 5502   4.915   3.211   5.543 -3.0821 -1.9504 -0.8469
 1636SOL    HW2 5503   4.944   3.164   5.402  1.7265  1.0219 -0.9995
 1637SOL     OW 5504   0.228   3.540   2.831  0.1125 -0.1242  0.0933
 1637SOL    HW1 5505   0.141   3.546   2.791  0.0749  0.4308  0.2676
 1637SOL    HW2 5506   0.270   3.623   2.811  0.4169 -0.1878  0.4583
 1638SOL     OW 5507   6.300   0.447   4.025 -0.8525 -0.0087  0.0017
 1638SOL    HW1 5508   6.369   0.381   4.017  0.7126  1.4995  0.8911
 1638SOL    HW2 5509   6.282   0.452   4.119 -0.1296  1.6608  0.0652
 1639SOL     OW 5510   0.828   5.602   1.367 -1.1602 -0.1355 -0.0045
 1639SOL    HW1 5511   0.858   5.544   1.437  0.2101  0.5500 -0.0221
 1639SOL    HW2 5512   0.905   5.653   1.343 -2.5065  2.2091  0.4874
 1640SOL     OW 5513   0.570   4.467   1.316 -0.7536  0.0630 -0.1785
 1640SOL    HW1 5514   0.641   4.520   1.353  0.1200 -1.0583 -0.2157
 1640SOL    HW2 5515   0.585   4.470   1.221 -0.0382 -1.1643 -0.1091
 1641SOL     OW 5516   2.748   3.358   2.180 -0.5277  0.8862 -0.8479
 1641SOL    HW1 5517   2.684   3.400   2.238 -1.6767 -0.4477 -1.1171
 1641SOL    HW2 5518   2.705   3.278   2.151  1.8369 -0.7785  0.1119
 1642SOL     OW 5519   4.839   3.243   1.156 -0.0166 -0.3918 -0.0917
 1642SOL    HW1 5520   4.848   3.160   1.203 -0.9980  0.5436  1.8243
 1642SOL    HW2 5521   4.745   3.254   1.145  0.1916 -0.4448 -2.0469
 1643SOL     OW 5522   4.196   6.930   1.691  0.0743  0.2509 -0.3924
 1643SOL    HW1 5523   4.137   6.855   1.691 -0.3599  0.5778  1.1754
 1643SOL    HW2 5524   4.245   6.921   1.609  0.1330 -1.8220 -0.1746
 1644SOL     OW 5525   4.220   2.466   0.844 -0.1565  0.0804 -0.2932
 1644SOL    HW1 5526   4.222   2.532   0.913 -0.5620 -0.1740 -0.0369
 1644SOL    HW2 5527   4.177   2.390   0.884  0.0393 -0.2364 -0.6747
 1645SOL     OW 5528   1.493   3.374   4.021 -0.2412 -0.4113  0.3139
 1645SOL    HW1 5529   1.548   3.452   4.018  0.9239 -1.2963 -2.9740
 1645SOL    HW2 5530   1.516   3.332   4.104  2.2232  0.5198  0.1310
 1646SOL     OW 5531   3.677   2.167   7.030  0.4551  0.1633 -0.9405
 1646SOL    HW1 5532   3.629   2.124   6.959  0.1742  0.1236 -0.7276
 1646SOL    HW2 5533   3.768   2.168   7.000  0.1737  1.1613 -1.8015
 1647SOL     OW 5534   7.137   3.415   7.171 -0.4225  0.1051 -0.0261
 1647SOL    HW1 5535   7.116   3.397   7.080  0.7774 -0.6632 -0.1692
 1647SOL    HW2 5536   7.199   3.346   7.195  0.5186  1.2392  0.8782
 1648SOL     OW 5537   5.218   0.340   6.698 -0.0086  0.0042  0.0700
 1648SOL    HW1 5538   5.249   0.365   6.611  0.1312  1.7902  0.6094
 1648SOL    HW2 5539   5.297   0.334   6.751 -0.1855  0.0778  0.3447
 1649SOL     OW 5540   6.282   5.809   2.995  0.2205  0.5910  0.1561
 1649SOL    HW1 5541   6.227   5.883   3.021  1.8795  0.8235  3.2949
 1649SOL    HW2 5542   6.248   5.735   3.045  0.3235 -0.1522 -0.8621
 1650SOL     OW 5543   1.856   5.513   1.153 -0.7510  0.7779 -0.5496
 1650SOL    HW1 5544   1.929   5.451   1.158 -1.1841  0.4113  1.9906
 1650SOL    HW2 5545   1.892   5.587   1.104  1.7889  1.1334  1.7061
 1651SOL     OW 5546   5.541   2.056   1.067 -0.2571  0.1298  0.3233
 1651SOL    HW1 5547   5.634   2.036   1.056  0.0470  2.7241 -2.2695
 1651SOL    HW2 5548   5.519   2.020   1.153  2.0913 -4.1609 -0.7197
 1652SOL     OW 5549   4.913   1.796   5.988  0.1956 -0.5565 -0.1472
 1652SOL    HW1 5550   4.923   1.722   6.048  2.6290 -1.3263 -1.4359
 1652SOL    HW2 5551   4.832   1.777   5.940  0.5606 -2.1401 -0.1509
 1653SOL     OW 5552   5.500   2.988   1.382  0.5055 -0.2101 -0.6991
 1653SOL    HW1 5553   5.410   2.973   1.356 -0.4156  1.0935  1.5943
 1653SOL    HW2 5554   5.527   2.907   1.424  0.3748 -0.5633 -1.2970
 1654SOL     OW 5555   6.743   1.545   1.869 -0.1573  0.1071 -0.0386
 1654SOL    HW1 5556   6.725   1.639   1.864 -1.8135 -0.1732  0.0937
 1654SOL    HW2 5557   6.792   1.534   1.950 -0.8658  0.7405  0.4835
 1655SOL     OW 5558   3.668   4.599   3.229  0.1576  0.1769 -0.0056
 1655SOL    HW1 5559   3.736   4.535   3.254  0.1992  0.8512  1.7007
 1655SOL    HW2 5560   3.599   4.546   3.189  2.1013 -0.4229 -2.7410
 1656SOL     OW 5561   6.879   1.029   1.820 -0.1069  0.3940  0.1429
 1656SOL    HW1 5562   6.914   1.116   1.805  2.0988 -0.5550 -0.4320
 1656SOL    HW2 5563   6.790   1.044   1.851  0.7412  2.8779  1.5276
 1657SOL     OW 5564   4.144   6.275   5.970  0.2714 -0.3467 -0.3209
 1657SOL    HW1 5565   4.129   6.200   6.027  0.2808 -0.9655 -1.1085
 1657SOL    HW2 5566   4.152   6.236   5.882 -0.5270  0.6572 -0.8412
 1658SOL     OW 5567   6.044   2.158   5.761  0.0580 -0.6599 -0.2512
 1658SOL    HW1 5568   5.959   2.150   5.718 -1.2266 -1.3777  2.3445
 1658SOL    HW2 5569   6.057   2.074   5.806  0.4855  0.7056  2.2781
 1659SOL     OW 5570   2.117   2.664   2.898  0.3845  0.4291 -0.4416
 1659SOL    HW1 5571   2.112   2.576   2.859 -2.0678  1.7442 -3.2665
 1659SOL    HW2 5572   2.070   2.655   2.982  1.1458 -1.2052 -0.1587
 1660SOL     OW 5573   0.256   1.756   5.544 -0.1232  0.0228 -0.3168
 1660SOL    HW1 5574   0.242   1.850   5.555 -0.6747 -0.0482 -0.3615
 1660SOL    HW2 5575   0.219   1.737   5.458 -1.7272 -0.5564  0.4709
 1661SOL     OW 5576   7.183   2.604   1.430  0.7005 -0.5403 -0.3921
 1661SOL    HW1 5577   7.143   2.639   1.510 -0.6618 -2.7585 -0.0564
 1661SOL    HW2 5578   7.246   2.540   1.461 -0.9133 -2.5105 -1.0897
 1662SOL     OW 5579   7.222   4.399   4.230 -0.4100  0.6984  0.2852
 1662SOL    HW1 5580   7.218   4.484   4.185  0.6152 -1.2203 -3.6209
 1662SOL    HW2 5581   7.131   4.373   4.241 -0.6919  1.5140 -0.0734
 1663SOL     OW 5582   3.397   5.026   4.704  0.4697  0.1555  0.1670
 1663SOL    HW1 5583   3.410   4.946   4.652  0.6269  0.6519 -0.5626
 1663SOL    HW2 5584   3.309   5.055   4.682  0.9084  0.9243 -0.5927
 1664SOL     OW 5585   0.451   0.331   0.764  0.0643 -0.5675  0.0899
 1664SOL    HW1 5586   0.481   0.259   0.820 -1.1048 -1.1349 -0.0040
 1664SOL    HW2 5587   0.416   0.288   0.686  1.1719  0.1984 -0.8367
 1665SOL     OW 5588   3.619   5.295   6.625  0.2053  0.0231  0.3531
 1665SOL    HW1 5589   3.571   5.293   6.543  0.4470  0.5484  0.1952
 1665SOL    HW2 5590   3.581   5.224   6.677 -0.3883  0.1056  0.0375
 1666SOL     OW 5591   1.429   6.245   0.640  0.0921  0.1002  0.5557
 1666SOL    HW1 5592   1.462   6.326   0.602  1.5400 -0.2521  1.0524
 1666SOL    HW2 5593   1.369   6.211   0.573 -0.7197  1.6811  0.4443
 1667SOL     OW 5594   1.666   7.050   1.857  0.6870 -0.3969  0.0687
 1667SOL    HW1 5595   1.629   6.977   1.906  0.9568 -0.6170 -0.0552
 1667SOL    HW2 5596   1.590   7.096   1.822  0.4833  0.0101  1.0446
 1668SOL     OW 5597   0.179   3.453   5.688  0.6521  0.0862  0.0311
 1668SOL    HW1 5598   0.127   3.380   5.722 -1.4693  0.9359 -1.3168
 1668SOL    HW2 5599   0.118   3.505   5.636  2.3283  2.3479  0.2103
 1669SOL     OW 5600   5.665   4.381   6.491  0.2550  0.2251 -0.2989
 1669SOL    HW1 5601   5.693   4.290   6.497 -1.1836 -0.2013  0.1660
 1669SOL    HW2 5602   5.734   4.425   6.442  0.3625 -1.3811 -1.6182
 1670SOL     OW 5603   1.943   6.471   4.234 -0.3548  0.5856  0.7483
 1670SOL    HW1 5604   1.966   6.385   4.268  1.3862  0.9566  0.5646
 1670SOL    HW2 5605   1.876   6.454   4.168 -0.4246 -0.5579  1.1023
 1671SOL     OW 5606   1.971   1.811   1.813  0.3896 -0.2657 -0.0479
 1671SOL    HW1 5607   1.958   1.759   1.734 -1.2793 -0.4433  0.3396
 1671SOL    HW2 5608   1.890   1.861   1.823  1.0319  0.6028  0.9235
 1672SOL     OW 5609   3.050   1.642   2.422 -0.3897 -0.1068  0.5436
 1672SOL    HW1 5610   2.978   1.694   2.387 -1.0376 -2.4916 -1.8135
 1672SOL    HW2 5611   3.008   1.565   2.459  0.5990  0.7013  3.5033
 1673SOL     OW 5612   5.197   6.214   2.515 -0.0640 -0.1431 -0.0849
 1673SOL    HW1 5613   5.179   6.171   2.431  1.2388  1.8422 -1.4150
 1673SOL    HW2 5614   5.110   6.232   2.552 -0.7211  1.4760 -2.3205
 1674SOL     OW 5615   2.311   3.742   0.314 -0.6353 -0.2815 -0.1331
 1674SOL    HW1 5616   2.297   3.704   0.400  2.8649 -0.4829  0.4234
 1674SOL    HW2 5617   2.347   3.829   0.331 -0.8050  0.0499 -1.3827
 1675SOL     OW 5618   0.234   6.708   4.386 -0.4878  0.2473 -0.4090
 1675SOL    HW1 5619   0.313   6.724   4.335  0.9280 -2.5724  0.7686
 1675SOL    HW2 5620   0.169   6.677   4.323  0.3445 -0.4331 -0.9336
 1676SOL     OW 5621   0.599   2.048   0.410 -0.0472 -0.1077 -0.1853
 1676SOL    HW1 5622   0.589   1.977   0.473 -2.3418  1.1053  0.9298
 1676SOL    HW2 5623   0.631   2.122   0.462  1.8253 -0.1794 -1.2212
 1677SOL     OW 5624   5.263   2.229   3.023 -0.2602 -0.0807 -0.2284
 1677SOL    HW1 5625   5.203   2.268   3.086  1.8185  0.2944  1.5755
 1677SOL    HW2 5626   5.291   2.301   2.968  0.1227  0.1414  0.2526
 1678SOL     OW 5627   4.394   4.195   1.044  0.5576 -0.3366  0.1384
 1678SOL    HW1 5628   4.468   4.150   1.003  0.7950  1.6800 -1.7234
 1678SOL    HW2 5629   4.421   4.287   1.049 -1.4522  0.2686  0.3170
 1679SOL     OW 5630   4.428   0.678   4.082  0.2277  0.1701 -0.3291
 1679SOL    HW1 5631   4.352   0.670   4.024 -0.3662 -0.6671  0.5616
 1679SOL    HW2 5632   4.401   0.636   4.163  0.6495  2.3674  0.9721
 1680SOL     OW 5633   0.843   4.905   6.049 -0.2658  0.0247  0.1914
 1680SOL    HW1 5634   0.897   4.887   6.126 -0.4557  2.5085  0.9546
 1680SOL    HW2 5635   0.887   4.859   5.977  0.7769 -1.0342  1.4897
 1681SOL     OW 5636   1.363   5.328   2.928  0.1109  0.0587 -0.2573
 1681SOL    HW1 5637   1.273   5.355   2.911 -0.2999 -0.0843  1.5125
 1681SOL    HW2 5638   1.399   5.400   2.981  1.0309  0.1080 -0.9419
 1682SOL     OW 5639   0.699   2.975   2.559 -0.5085 -0.2907 -0.4642
 1682SOL    HW1 5640   0.781   2.991   2.512  0.8036 -2.8320  0.8278
 1682SOL    HW2 5641   0.658   2.903   2.511 -0.8630 -0.5392  0.1970
 1683SOL     OW 5642   4.118   5.561   2.640 -1.1128  0.0493  0.5679
 1683SOL    HW1 5643   4.104   5.629   2.575  0.3305  0.7629  0.9697
 1683SOL    HW2 5644   4.118   5.479   2.590  2.7693  0.7860 -0.8182
 1684SOL     OW 5645   4.614   6.437   2.903 -0.0154  0.5501 -0.0146
 1684SOL    HW1 5646   4.646   6.417   2.815 -0.0838 -1.1042  0.3232
 1684SOL    HW2 5647   4.547   6.371   2.919 -0.6841  1.4507  0.9090
 1685SOL     OW 5648   4.122   4.912   0.128  0.1754 -0.3647  0.8305
 1685SOL    HW1 5649   4.151   4.945   0.043  0.3446  0.9345  1.3833
 1685SOL    HW2 5650   4.172   4.831   0.141  1.2431  0.2120  0.3534
 1686SOL     OW 5651   6.272   4.661   0.568 -0.0667  0.3087 -0.7256
 1686SOL    HW1 5652   6.263   4.642   0.475 -0.1561  0.3671 -0.7291
 1686SOL    HW2 5653   6.351   4.716   0.573 -0.5356  1.0060 -0.8656
 1687SOL     OW 5654   2.180   3.199   1.109  0.1239  0.2794 -0.2133
 1687SOL    HW1 5655   2.203   3.287   1.140  0.1056  0.4116 -0.5664
 1687SOL    HW2 5656   2.135   3.158   1.183 -0.3078  0.7491 -0.2129
 1688SOL     OW 5657   5.535   3.610   4.220  0.2408  0.3395 -0.7217
 1688SOL    HW1 5658   5.495   3.695   4.201  0.5719  0.2463 -1.8613
 1688SOL    HW2 5659   5.626   3.618   4.190  0.6305 -0.0112  0.3045
 1689SOL     OW 5660   4.191   3.053   1.836 -0.6748 -0.1722 -0.2056
 1689SOL    HW1 5661   4.269   3.038   1.782  0.5326 -2.0226  1.9563
 1689SOL    HW2 5662   4.159   2.966   1.858 -2.7096  0.5696 -0.1319
 1690SOL     OW 5663   1.897   1.784   1.496  0.2186  0.0031 -0.5163
 1690SOL    HW1 5664   1.848   1.708   1.465  1.0942 -1.2646  1.1244
 1690SOL    HW2 5665   1.989   1.759   1.488  0.5020  0.2232  1.5529
 1691SOL     OW 5666   5.662   4.489   6.747  0.0325 -0.4134  0.1754
 1691SOL    HW1 5667   5.677   4.427   6.675 -2.5989 -1.1661  0.2143
 1691SOL    HW2 5668   5.624   4.566   6.704  0.4720 -0.0152  0.4975
 1692SOL     OW 5669   3.772   3.372   4.074  0.3456  0.6012 -0.4288
 1692SOL    HW1 5670   3.840   3.439   4.079 -0.4682  1.5721 -2.0680
 1692SOL    HW2 5671   3.700   3.409   4.126  0.6712  0.0207  0.4577
 1693SOL     OW 5672   3.110   2.335   0.089  0.3838 -0.0511  0.3681
 1693SOL    HW1 5673   3.115   2.353   0.183 -0.2976  3.2330 -0.1555
 1693SOL    HW2 5674   3.199   2.351   0.058  0.1703  0.7669  0.1674
 1694SOL     OW 5675   4.437   1.354   2.997  0.5870 -0.3599 -0.2427
 1694SOL    HW1 5676   4.402   1.298   2.927 -0.7308  0.0448  0.0707
 1694SOL    HW2 5677   4.478   1.293   3.058  1.0197 -0.7887 -0.9576
 1695SOL     OW 5678   0.592   3.392   4.882  0.3616  0.3797 -0.1955
 1695SOL    HW1 5679   0.538   3.329   4.931  0.3264 -0.7854 -1.6911
 1695SOL    HW2 5680   0.529   3.441   4.829  0.6227 -0.0919 -0.9590
 1696SOL     OW 5681   1.720   3.709   6.864  0.1173 -0.2820 -0.4222
 1696SOL    HW1 5682   1.766   3.750   6.937  2.4810 -0.8732 -1.5210
 1696SOL    HW2 5683   1.646   3.663   6.904 -0.3456  1.8126  1.2449
 1697SOL     OW 5684   3.430   1.553   2.271  0.4367 -0.1146 -0.4870
 1697SOL    HW1 5685   3.512   1.589   2.304  0.4231 -0.7340  0.2476
 1697SOL    HW2 5686   3.436   1.459   2.288 -0.8835 -0.0264  0.6069
 1698SOL     OW 5687   0.175   5.806   6.308 -0.1009  0.2804  0.5996
 1698SOL    HW1 5688   0.220   5.884   6.277  2.2496 -1.0251  0.6605
 1698SOL    HW2 5689   0.082   5.829   6.304  0.4637  2.4292 -1.1190
 1699SOL     OW 5690   7.082   5.483   1.865 -0.2828  0.0565 -0.2209
 1699SOL    HW1 5691   7.174   5.511   1.864 -0.3581  0.3674  1.3112
 1699SOL    HW2 5692   7.086   5.388   1.854  0.0910  0.3078 -2.6607
 1700SOL     OW 5693   2.217   4.111   0.096  0.1462  0.0041  0.4230
 1700SOL    HW1 5694   2.256   4.122   0.182 -1.3143  1.0787  0.9601
 1700SOL    HW2 5695   2.289   4.127   0.035  1.0394 -0.1607  1.4231
 1701SOL     OW 5696   3.863   0.793   5.426  0.1768 -0.2252  0.0229
 1701SOL    HW1 5697   3.927   0.862   5.407 -0.3769  0.3146  0.1111
 1701SOL    HW2 5698   3.836   0.809   5.516 -0.7694  0.0979 -0.3218
 1702SOL     OW 5699   6.218   6.922   2.282  0.2631  0.3083 -0.1421
 1702SOL    HW1 5700   6.297   6.887   2.241  0.7956  0.3106  0.8667
 1702SOL    HW2 5701   6.222   7.016   2.268  0.8082  0.3905  0.5105
 1703SOL     OW 5702   4.493   6.726   0.711  0.1345  0.1319 -0.1951
 1703SOL    HW1 5703   4.546   6.696   0.637 -0.2027  0.7614 -0.7026
 1703SOL    HW2 5704   4.456   6.810   0.681  0.2882  0.5685  0.8230
 1704SOL     OW 5705   4.767   0.510   1.497  0.1052 -0.4670 -0.4760
 1704SOL    HW1 5706   4.733   0.432   1.453 -2.4309  0.7699 -0.7487
 1704SOL    HW2 5707   4.726   0.583   1.451  0.6096  0.9722  1.3304
 1705SOL     OW 5708   2.761   5.724   3.731  0.1971  0.3805  0.2453
 1705SOL    HW1 5709   2.830   5.675   3.685  1.2135  1.5421  0.5152
 1705SOL    HW2 5710   2.682   5.671   3.718  0.0877  1.3421 -4.0807
 1706SOL     OW 5711   2.709   5.524   5.394 -0.0398 -0.9194 -0.2403
 1706SOL    HW1 5712   2.630   5.550   5.441 -0.4859 -2.9916  0.2074
 1706SOL    HW2 5713   2.779   5.534   5.459 -0.4745 -2.5909  0.5008
 1707SOL     OW 5714   5.833   7.049   4.357 -0.1817  0.0852  0.3017
 1707SOL    HW1 5715   5.816   7.130   4.404 -0.7426  0.0402  0.1811
 1707SOL    HW2 5716   5.747   7.023   4.321  0.3016  0.3056 -1.0385
 1708SOL     OW 5717   1.721   4.018   6.677  0.0660  0.8482  0.2016
 1708SOL    HW1 5718   1.718   4.104   6.718  0.4872  0.7864  0.3687
 1708SOL    HW2 5719   1.772   3.964   6.738  1.7441  1.0787 -0.9412
 1709SOL     OW 5720   4.298   1.877   0.143 -0.4188  0.1896  0.2870
 1709SOL    HW1 5721   4.291   1.791   0.102 -0.3238 -1.1319  2.9150
 1709SOL    HW2 5722   4.391   1.896   0.140 -0.6084  0.9451 -1.6802
 1710SOL     OW 5723   6.250   5.587   2.642 -0.0675 -0.0550  0.3278
 1710SOL    HW1 5724   6.227   5.679   2.628 -0.7143 -0.0317  1.4793
 1710SOL    HW2 5725   6.183   5.554   2.702 -0.9107 -1.7767 -1.4986
 1711SOL     OW 5726   3.928   6.924   7.221  0.9600  0.3247 -0.2462
 1711SOL    HW1 5727   3.914   6.846   7.168  0.2411 -0.3315  0.8815
 1711SOL    HW2 5728   3.930   6.996   7.158 -3.8379  0.0346 -0.9002
 1712SOL     OW 5729   4.388   2.453   3.724 -0.1885  0.1582  0.6322
 1712SOL    HW1 5730   4.437   2.403   3.660 -1.2156 -2.0553  1.5481
 1712SOL    HW2 5731   4.440   2.446   3.805 -0.3909  0.5061  0.7952
 1713SOL     OW 5732   1.880   3.517   2.601  0.5341 -0.4907 -0.3863
 1713SOL    HW1 5733   1.908   3.559   2.682 -0.1058 -1.1536  0.1882
 1713SOL    HW2 5734   1.814   3.453   2.628 -0.5730  0.1273 -1.5585
 1714SOL     OW 5735   6.264   6.698   6.092 -0.0155 -0.2022  0.1383
 1714SOL    HW1 5736   6.281   6.653   6.175 -0.4332  1.2495  1.0175
 1714SOL    HW2 5737   6.301   6.785   6.104 -0.4548  0.1508 -1.0550
 1715SOL     OW 5738   4.770   5.889   3.441 -0.1756 -0.6800  0.6931
 1715SOL    HW1 5739   4.717   5.818   3.477 -1.2455 -0.2840 -0.0944
 1715SOL    HW2 5740   4.831   5.911   3.512 -0.3589 -1.8448  1.2253
 1716SOL     OW 5741   6.120   1.445   0.109 -0.4524  0.2555  0.8327
 1716SOL    HW1 5742   6.040   1.392   0.107 -0.0543 -0.3371 -0.1765
 1716SOL    HW2 5743   6.120   1.486   0.195 -2.0760  0.6263  0.6646
 1717SOL     OW 5744   3.614   6.793   5.283  0.1762  0.0128 -0.0262
 1717SOL    HW1 5745   3.670   6.759   5.352  0.2887  1.5341  0.6658
 1717SOL    HW2 5746   3.534   6.819   5.329  1.1162  3.1755 -0.0367
 1718SOL     OW 5747   5.220   5.736   5.714  0.5017 -0.0825  0.3143
 1718SOL    HW1 5748   5.223   5.784   5.631  2.4471  0.1594  0.5131
 1718SOL    HW2 5749   5.202   5.804   5.780 -1.4257 -0.3269  0.0796
 1719SOL     OW 5750   4.990   0.475   6.711  0.0306 -0.0899  0.0579
 1719SOL    HW1 5751   5.077   0.436   6.705  0.5295  0.7409  1.5680
 1719SOL    HW2 5752   4.945   0.425   6.779 -1.4419 -1.8702 -2.1433
 1720SOL     OW 5753   0.758   4.437   2.632 -0.0487 -0.3005 -0.5275
 1720SOL    HW1 5754   0.800   4.513   2.592 -1.7778  0.5070 -0.8864
 1720SOL    HW2 5755   0.732   4.467   2.719  0.0307 -0.7502 -0.3473
 1721SOL     OW 5756   6.836   4.381   0.103 -0.1491  0.5349 -0.3260
 1721SOL    HW1 5757   6.813   4.289   0.089 -1.6115  0.8674 -0.1984
 1721SOL    HW2 5758   6.908   4.379   0.166 -1.7895 -0.4274  1.5595
 1722SOL     OW 5759   2.939   3.845   3.655 -0.4715  0.6400 -0.2369
 1722SOL    HW1 5760   2.964   3.931   3.622  0.8504 -0.2137 -1.5212
 1722SOL    HW2 5761   2.910   3.861   3.744 -0.4816  2.4565 -0.5549
 1723SOL     OW 5762   4.908   6.097   2.664 -0.1267 -0.8619 -0.0761
 1723SOL    HW1 5763   4.824   6.114   2.621  0.2556  0.6171 -0.2685
 1723SOL    HW2 5764   4.896   6.128   2.753  0.5325  0.3451 -0.3896
 1724SOL     OW 5765   0.130   6.776   6.616  0.1918 -0.0928 -0.7766
 1724SOL    HW1 5766   0.088   6.798   6.699 -0.1934  2.4358 -1.6052
 1724SOL    HW2 5767   0.079   6.702   6.583 -0.5218 -0.2220  0.5626
 1725SOL     OW 5768   1.100   3.163   3.633 -0.2728 -0.4461 -0.0264
 1725SOL    HW1 5769   1.047   3.177   3.711  1.0773 -2.2947  1.2758
 1725SOL    HW2 5770   1.094   3.068   3.616  0.4318 -0.2560 -1.4389
 1726SOL     OW 5771   3.889   4.113   0.566  0.7819 -0.4016  1.1029
 1726SOL    HW1 5772   3.810   4.142   0.612  0.4232  0.7068 -0.1843
 1726SOL    HW2 5773   3.869   4.024   0.539  0.4168 -0.5323  1.7738
 1727SOL     OW 5774   4.395   5.705   0.961 -0.0549  0.4911  0.2722
 1727SOL    HW1 5775   4.435   5.789   0.982  0.0603  0.4549  0.1947
 1727SOL    HW2 5776   4.390   5.659   1.045  0.4681  0.3188  0.2116
 1728SOL     OW 5777   5.144   3.502   2.400 -0.1751  0.2166 -0.4706
 1728SOL    HW1 5778   5.111   3.454   2.476  1.9317 -3.0933 -1.5728
 1728SOL    HW2 5779   5.189   3.578   2.438 -3.6562  1.5306  1.2828
 1729SOL     OW 5780   3.531   5.900   6.085  0.2607  0.0247  0.1838
 1729SOL    HW1 5781   3.437   5.916   6.090  0.4137  0.2306  2.7031
 1729SOL    HW2 5782   3.571   5.985   6.105  0.9969 -0.1186 -0.6464
 1730SOL     OW 5783   1.453   2.812   2.310 -0.1281  0.7352 -0.4514
 1730SOL    HW1 5784   1.516   2.794   2.380 -0.2627  0.9485 -0.2706
 1730SOL    HW2 5785   1.472   2.902   2.283 -1.7534  1.6146  1.1190
 1731SOL     OW 5786   5.917   6.017   0.314 -0.0252 -0.3572  0.0365
 1731SOL    HW1 5787   5.998   5.970   0.336 -1.3989 -2.0541  1.6621
 1731SOL    HW2 5788   5.878   6.039   0.399 -0.7287  1.4498 -0.7177
 1732SOL     OW 5789   3.062   6.285   6.178  0.3388 -0.0442  0.0479
 1732SOL    HW1 5790   3.109   6.203   6.164 -0.9882 -0.8502  0.2845
 1732SOL    HW2 5791   2.979   6.274   6.131 -0.4733  0.5833  1.2990
 1733SOL     OW 5792   4.379   0.487   0.413 -0.1065  0.7917 -1.0867
 1733SOL    HW1 5793   4.304   0.434   0.442  0.7016  1.2042  1.9996
 1733SOL    HW2 5794   4.358   0.575   0.444  0.9699  1.1905 -1.4892
 1734SOL     OW 5795   6.582   1.272   5.257 -0.4765  0.2640 -0.3156
 1734SOL    HW1 5796   6.664   1.277   5.207 -0.1717  1.6041  0.2804
 1734SOL    HW2 5797   6.605   1.220   5.334 -0.7476 -1.1589 -1.1840
 1735SOL     OW 5798   3.282   3.341   7.044  0.1441  0.1539  0.0846
 1735SOL    HW1 5799   3.222   3.321   7.116 -0.4148 -1.1309 -0.7173
 1735SOL    HW2 5800   3.258   3.429   7.016  0.5384  0.7655  1.6342
 1736SOL     OW 5801   4.964   1.370   6.652  0.2818 -0.4058 -0.6781
 1736SOL    HW1 5802   4.919   1.339   6.574  0.0796 -1.8488  0.0046
 1736SOL    HW2 5803   5.022   1.298   6.677  1.1449  0.4695 -0.1170
 1737SOL     OW 5804   4.787   4.558   1.912 -0.0497 -0.4079 -0.8994
 1737SOL    HW1 5805   4.733   4.637   1.909  0.9917  0.2668 -2.7917
 1737SOL    HW2 5806   4.756   4.511   1.989 -1.7616  1.0793 -0.6366
 1738SOL     OW 5807   2.991   5.304   5.920  0.3973 -0.4861  0.4697
 1738SOL    HW1 5808   3.068   5.296   5.976  0.4010 -1.9448  0.2706
 1738SOL    HW2 5809   2.966   5.214   5.900 -2.6394 -0.1233  2.2871
 1739SOL     OW 5810   5.412   2.638   5.928 -0.2223 -0.2681  0.1423
 1739SOL    HW1 5811   5.449   2.626   6.015 -0.0484 -1.2793 -0.0667
 1739SOL    HW2 5812   5.403   2.550   5.893  0.7919  0.1883 -1.3189
 1740SOL     OW 5813   3.441   0.618   2.325  0.1572  0.4231  0.0481
 1740SOL    HW1 5814   3.379   0.561   2.371 -0.7451  0.6279 -0.8792
 1740SOL    HW2 5815   3.498   0.653   2.394 -1.5901  1.2643  1.1048
 1741SOL     OW 5816   6.143   5.026   1.755 -0.3845 -0.1911  0.8265
 1741SOL    HW1 5817   6.203   5.085   1.799 -0.3270 -0.1912  0.7506
 1741SOL    HW2 5818   6.060   5.037   1.800 -0.8674  1.3775 -0.4114
 1742SOL     OW 5819   4.090   3.281   5.947 -0.0097 -0.3465 -0.0049
 1742SOL    HW1 5820   4.096   3.376   5.950  1.7036 -0.3369 -2.4721
 1742SOL    HW2 5821   4.025   3.263   5.879 -2.4711 -0.9623  2.3963
 1743SOL     OW 5822   4.385   1.777   2.504  1.0202  0.7026  0.7211
 1743SOL    HW1 5823   4.299   1.817   2.492  0.1926 -0.6278  1.9627
 1743SOL    HW2 5824   4.406   1.739   2.418  0.1726  0.6677  0.5250
 1744SOL     OW 5825   1.944   6.122   3.480 -0.4019 -0.2951 -0.4246
 1744SOL    HW1 5826   1.888   6.178   3.426  2.4842  2.8583 -0.3489
 1744SOL    HW2 5827   1.947   6.039   3.433 -4.6620 -0.4203 -0.6718
 1745SOL     OW 5828   1.870   3.117   0.325 -0.4611 -0.4223 -0.2330
 1745SOL    HW1 5829   1.832   3.203   0.308  0.2085 -0.0415  0.1617
 1745SOL    HW2 5830   1.874   3.110   0.420 -0.2603 -0.7746 -0.2634
 1746SOL     OW 5831   3.561   3.221   5.293 -0.3692  0.3008 -0.2625
 1746SOL    HW1 5832   3.644   3.223   5.339  0.2548  1.4557 -1.4153
 1746SOL    HW2 5833   3.526   3.133   5.310  1.8267 -0.7710 -1.0745
 1747SOL     OW 5834   3.060   3.473   1.653  0.1956 -0.1120 -0.3257
 1747SOL    HW1 5835   3.110   3.523   1.589  1.5493 -1.4770 -0.3716
 1747SOL    HW2 5836   3.075   3.518   1.736 -0.1961  0.6816 -0.6793
 1748SOL     OW 5837   1.174   1.950   2.951  0.2080  0.3976  0.8258
 1748SOL    HW1 5838   1.079   1.941   2.959  0.0099  1.3897 -0.3002
 1748SOL    HW2 5839   1.208   1.865   2.977 -0.9836  0.0544  1.3142
 1749SOL     OW 5840   4.557   1.902   5.078 -0.2703  0.4836  0.2086
 1749SOL    HW1 5841   4.652   1.891   5.070 -0.5417 -1.5822 -0.5106
 1749SOL    HW2 5842   4.545   1.993   5.106  1.8896  0.9265 -0.2417
 1750SOL     OW 5843   0.212   4.664   6.586  0.0741 -0.5382  0.6230
 1750SOL    HW1 5844   0.156   4.698   6.656 -1.6524 -0.8390 -0.5913
 1750SOL    HW2 5845   0.233   4.575   6.613 -1.2230 -0.9182  0.4104
 1751SOL     OW 5846   2.871   3.646   1.407  0.4677  0.1301  0.8261
 1751SOL    HW1 5847   2.867   3.556   1.439 -0.0147 -0.2716 -0.3553
 1751SOL    HW2 5848   2.780   3.672   1.396  0.6250 -0.1034 -1.2182
 1752SOL     OW 5849   2.908   3.956   6.660 -0.1469 -0.5687  0.6299
 1752SOL    HW1 5850   2.962   3.957   6.582  0.8376 -0.3121  1.3007
 1752SOL    HW2 5851   2.818   3.960   6.628  0.2891  0.9255 -0.4558
 1753SOL     OW 5852   5.065   2.194   4.283 -0.2981 -0.4102  0.3422
 1753SOL    HW1 5853   5.141   2.251   4.290 -0.4076 -0.3374  0.9287
 1753SOL    HW2 5854   5.019   2.224   4.204  1.0500 -1.3810 -0.8283
 1754SOL     OW 5855   1.253   0.186   1.459  0.7710 -0.2491  0.3900
 1754SOL    HW1 5856   1.255   0.282   1.467 -0.0097  0.0410 -2.2362
 1754SOL    HW2 5857   1.241   0.155   1.548 -0.3146  2.1777  1.1417
 1755SOL     OW 5858   6.611   6.577   5.146  0.1502 -0.4835 -0.2687
 1755SOL    HW1 5859   6.611   6.563   5.051 -0.2333 -2.0968 -0.0495
 1755SOL    HW2 5860   6.674   6.512   5.179  0.9188  0.6404  0.5086
 1756SOL     OW 5861   3.959   5.078   6.883 -0.1457 -0.4354  0.0601
 1756SOL    HW1 5862   3.888   5.134   6.913 -2.5433 -2.7665 -1.0489
 1756SOL    HW2 5863   3.979   5.110   6.795 -0.9527 -0.8076 -0.2590
 1757SOL     OW 5864   5.336   6.136   5.876  0.4673 -0.4470 -0.1802
 1757SOL    HW1 5865   5.269   6.139   5.807 -1.0293 -0.0779  1.2622
 1757SOL    HW2 5866   5.312   6.208   5.935  3.2652  0.9438 -0.6486
 1758SOL     OW 5867   1.087   3.769   2.230 -0.5937  0.4381 -0.2023
 1758SOL    HW1 5868   1.182   3.763   2.231 -0.5560  0.9892  0.9070
 1758SOL    HW2 5869   1.065   3.796   2.141  0.0495 -2.8989 -1.4269
 1759SOL     OW 5870   5.730   5.763   4.125 -0.1415  0.1718  0.3244
 1759SOL    HW1 5871   5.807   5.797   4.170 -0.2317  0.9825 -0.1266
 1759SOL    HW2 5872   5.697   5.837   4.075 -0.8472 -0.3474  0.0164
 1760SOL     OW 5873   6.594   3.274   3.506 -0.4761  0.2071  0.0841
 1760SOL    HW1 5874   6.543   3.215   3.451 -2.4325  1.4905  0.4736
 1760SOL    HW2 5875   6.582   3.241   3.595 -0.1290  0.1654  0.1176
 1761SOL     OW 5876   2.555   0.238   2.345  0.4746  0.1382 -0.4926
 1761SOL    HW1 5877   2.516   0.185   2.276  0.1634  0.2840 -0.4299
 1761SOL    HW2 5878   2.636   0.271   2.307  0.3896  0.0790 -0.7263
 1762SOL     OW 5879   6.993   5.079   5.401 -0.5610 -0.2616 -0.5012
 1762SOL    HW1 5880   6.953   5.023   5.467  1.4174 -0.6742  0.3889
 1762SOL    HW2 5881   6.935   5.156   5.397 -1.4440 -0.8456  0.7132
 1763SOL     OW 5882   1.934   4.149   4.374 -0.1811  0.2591  0.0585
 1763SOL    HW1 5883   1.852   4.111   4.404  0.3120 -1.8981 -1.2137
 1763SOL    HW2 5884   1.918   4.243   4.373 -2.8596 -0.1617 -0.7904
 1764SOL     OW 5885   3.795   6.702   3.822  0.0496 -0.2557 -0.3654
 1764SOL    HW1 5886   3.787   6.607   3.809  1.0998 -0.4703  0.5307
 1764SOL    HW2 5887   3.870   6.712   3.880 -0.1579  1.1250 -0.3275
 1765SOL     OW 5888   5.496   3.327   4.113  0.0254  0.0528  0.0317
 1765SOL    HW1 5889   5.510   3.405   4.166  2.0192  0.6170 -1.2621
 1765SOL    HW2 5890   5.460   3.360   4.030 -2.0306 -0.7153  0.5921
 1766SOL     OW 5891   7.063   3.193   2.546  0.0148 -0.1727  0.0277
 1766SOL    HW1 5892   6.986   3.179   2.602 -0.4208 -0.6951 -0.6894
 1766SOL    HW2 5893   7.039   3.153   2.463  0.9696 -0.0965 -0.2854
 1767SOL     OW 5894   4.214   6.519   6.409  0.6632 -0.1684  0.3095
 1767SOL    HW1 5895   4.251   6.491   6.325  1.3687  0.2194  0.4893
 1767SOL    HW2 5896   4.246   6.455   6.473  0.1692 -0.4320  0.2912
 1768SOL     OW 5897   0.166   4.417   2.886 -0.4468 -0.4169 -0.5821
 1768SOL    HW1 5898   0.184   4.472   2.810 -0.9001  1.9186  0.9572
 1768SOL    HW2 5899   0.243   4.426   2.941 -0.2294 -1.8976 -0.6355
 1769SOL     OW 5900   0.084   5.845   5.155  0.6398  0.3940 -0.4000
 1769SOL    HW1 5901   0.037   5.769   5.120 -0.5888  0.6740  0.5982
 1769SOL    HW2 5902   0.082   5.909   5.084  2.0388 -0.6415 -1.3926
 1770SOL     OW 5903   1.828   5.585   6.033  0.0859  0.8905  0.1589
 1770SOL    HW1 5904   1.798   5.509   6.083  2.0079  0.6784  1.0438
 1770SOL    HW2 5905   1.921   5.593   6.056  0.5525  1.8899 -1.9967
 1771SOL     OW 5906   2.393   4.130   1.071 -0.1204 -0.1988 -0.3680
 1771SOL    HW1 5907   2.471   4.166   1.112 -0.2005 -2.4457  1.8777
 1771SOL    HW2 5908   2.321   4.184   1.103  0.3157  0.7896 -1.0560
 1772SOL     OW 5909   7.006   3.029   1.110  0.2383  0.4856 -0.1339
 1772SOL    HW1 5910   6.988   2.939   1.083  0.6426 -1.0572  4.2991
 1772SOL    HW2 5911   7.098   3.042   1.088 -0.3378  0.5657 -2.6144
 1773SOL     OW 5912   4.459   3.046   1.754 -0.0292  0.0928  0.3227
 1773SOL    HW1 5913   4.466   3.070   1.847 -0.0542  1.1295  0.0584
 1773SOL    HW2 5914   4.513   3.111   1.709  1.4222 -1.4591 -0.2331
 1774SOL     OW 5915   4.831   3.918   6.273 -0.0306  0.0483  0.3168
 1774SOL    HW1 5916   4.797   3.834   6.304  1.8584 -0.1923  1.8220
 1774SOL    HW2 5917   4.914   3.896   6.232  0.0703  1.0771 -0.0451
 1775SOL     OW 5918   4.496   0.291   6.010  0.2196  0.3761  0.7312
 1775SOL    HW1 5919   4.500   0.199   6.036  1.1974  0.6635  1.6200
 1775SOL    HW2 5920   4.420   0.325   6.058 -1.1300 -0.3440 -0.8570
 1776SOL     OW 5921   7.092   6.394   3.032  0.1260 -0.4455  0.3383
 1776SOL    HW1 5922   7.063   6.387   2.941  1.7239 -1.7615 -0.1011
 1776SOL    HW2 5923   7.109   6.304   3.058  2.1918  0.1436  1.0867
 1777SOL     OW 5924   3.710   5.427   2.058  0.2306 -0.3429 -0.0857
 1777SOL    HW1 5925   3.758   5.507   2.080  0.4943 -0.7616  0.8680
 1777SOL    HW2 5926   3.642   5.421   2.124 -1.5833  0.6019 -1.8151
 1778SOL     OW 5927   4.349   4.512   6.758  0.3493  0.1464  0.3623
 1778SOL    HW1 5928   4.442   4.492   6.747  0.2237 -0.2427  0.0270
 1778SOL    HW2 5929   4.319   4.449   6.824  0.1712 -0.1454 -0.0020
 1779SOL     OW 5930   2.940   0.112   6.841  0.9516  0.1624 -0.0109
 1779SOL    HW1 5931   2.922   0.206   6.838 -0.4688  0.0033  2.3703
 1779SOL    HW2 5932   3.025   0.105   6.883  0.9211  0.3569  0.0842
 1780SOL     OW 5933   4.874   5.415   6.052  0.4953  0.2355 -0.2824
 1780SOL    HW1 5934   4.851   5.507   6.067 -1.0146 -0.1156 -0.4119
 1780SOL    HW2 5935   4.854   5.400   5.959  0.5456 -0.2831 -0.2119
 1781SOL     OW 5936   6.613   3.530   0.454  0.0389 -0.3806  0.4777
 1781SOL    HW1 5937   6.707   3.516   0.468  0.5232  0.2464 -1.9492
 1781SOL    HW2 5938   6.581   3.562   0.538  1.8963 -1.1016  1.4914
 1782SOL     OW 5939   2.381   6.262   6.643  0.1244 -0.3248 -0.1382
 1782SOL    HW1 5940   2.388   6.169   6.664 -1.6252 -0.3489  0.4749
 1782SOL    HW2 5941   2.455   6.280   6.586 -0.7683 -2.6119 -2.1124
 1783SOL     OW 5942   1.517   2.654   1.390  0.0746  0.1284  0.3028
 1783SOL    HW1 5943   1.599   2.613   1.418 -0.5626 -2.0090 -0.8086
 1783SOL    HW2 5944   1.477   2.685   1.471  2.6933  2.6608  0.7206
 1784SOL     OW 5945   4.465   2.834   4.962  0.3159 -0.5435 -0.7877
 1784SOL    HW1 5946   4.404   2.908   4.969  0.1633 -0.4972 -2.4523
 1784SOL    HW2 5947   4.552   2.875   4.961  0.3057 -0.4975 -0.1665
 1785SOL     OW 5948   3.671   5.741   6.954 -0.1502 -0.3238 -0.3794
 1785SOL    HW1 5949   3.765   5.738   6.941 -0.1935  0.8099 -0.9663
 1785SOL    HW2 5950   3.636   5.677   6.892  0.2244 -0.7745 -0.1314
 1786SOL     OW 5951   4.314   0.879   0.012  0.2196  0.0180  0.7490
 1786SOL    HW1 5952   4.221   0.889   0.033  1.1163  3.0355  3.6832
 1786SOL    HW2 5953   4.342   0.965  -0.019  1.6680 -1.3432 -1.9414
 1787SOL     OW 5954   5.802   0.997   5.618 -0.1468  0.5456  0.0467
 1787SOL    HW1 5955   5.898   0.999   5.614 -0.0879 -1.1724  0.4263
 1787SOL    HW2 5956   5.774   1.047   5.542  1.0436  0.0503 -0.7244
 1788SOL     OW 5957   0.626   6.108   0.737 -0.7422 -0.5221  0.4580
 1788SOL    HW1 5958   0.565   6.085   0.806  0.6953 -0.7293  1.6844
 1788SOL    HW2 5959   0.628   6.204   0.737 -1.3315 -0.5102  0.1770
 1789SOL     OW 5960   5.846   1.509   2.120 -0.2923  0.2575  0.1493
 1789SOL    HW1 5961   5.919   1.482   2.064 -0.8677  0.7599 -0.8772
 1789SOL    HW2 5962   5.836   1.438   2.183 -1.3837 -1.6416 -2.0955
 1790SOL     OW 5963   3.245   5.475   2.252  0.1061 -0.4720  0.4095
 1790SOL    HW1 5964   3.167   5.425   2.276  0.4876 -3.0641 -3.3584
 1790SOL    HW2 5965   3.213   5.544   2.194  0.0918  1.4272  2.5835
 1791SOL     OW 5966   4.812   5.599   3.187 -0.1929  0.1056 -0.0256
 1791SOL    HW1 5967   4.741   5.663   3.194 -1.4561 -1.2497 -0.1805
 1791SOL    HW2 5968   4.861   5.626   3.110 -0.6342  0.9513 -0.0234
 1792SOL     OW 5969   1.526   5.556   7.043  0.5146 -0.0396 -0.1889
 1792SOL    HW1 5970   1.558   5.468   7.022  0.2562 -0.6817  2.0004
 1792SOL    HW2 5971   1.431   5.549   7.039  0.4812  0.0098  0.4778
 1793SOL     OW 5972   0.065   1.076   6.107  0.1462 -0.0762  0.2593
 1793SOL    HW1 5973   0.075   0.987   6.073  1.4258  0.5168 -0.9855
 1793SOL    HW2 5974   0.101   1.132   6.038 -2.8180  1.5786 -0.0041
 1794SOL     OW 5975   6.169   2.125   4.487 -0.0899 -0.6131  0.0578
 1794SOL    HW1 5976   6.200   2.202   4.535  0.3587 -0.0182 -1.1430
 1794SOL    HW2 5977   6.218   2.052   4.525 -1.4099 -0.4978  2.0376
 1795SOL     OW 5978   4.188   4.426   1.885 -0.5703  0.2654 -0.2867
 1795SOL    HW1 5979   4.145   4.365   1.826 -0.0141 -1.1937  0.7970
 1795SOL    HW2 5980   4.276   4.391   1.896 -0.4710  0.8620  0.9372
 1796SOL     OW 5981   4.171   1.110   3.163 -0.0629 -0.1588 -0.4329
 1796SOL    HW1 5982   4.105   1.059   3.211  2.4247 -2.7539  0.3565
 1796SOL    HW2 5983   4.177   1.192   3.212 -2.0075 -0.2632  0.0423
 1797SOL     OW 5984   3.426   4.038   6.246 -0.2353  0.4416  0.2807
 1797SOL    HW1 5985   3.396   3.958   6.203  0.3364 -0.2306  1.1235
 1797SOL    HW2 5986   3.491   4.074   6.186  0.4344 -0.4032  0.4888
 1798SOL     OW 5987   5.153   6.657   1.948  0.3422  0.0557  0.4540
 1798SOL    HW1 5988   5.110   6.571   1.954  0.3074  0.1062  0.9509
 1798SOL    HW2 5989   5.102   6.705   1.883  1.1721 -0.7676 -0.8507
 1799SOL     OW 5990   2.516   3.704   6.820 -0.5015  0.4735 -0.4446
 1799SOL    HW1 5991   2.577   3.648   6.773 -0.4455  1.4751 -1.6008
 1799SOL    HW2 5992   2.477   3.759   6.752 -1.5838  0.8688  0.4822
 1800SOL     OW 5993   1.916   1.727   4.897 -0.2150  0.1820  0.0742
 1800SOL    HW1 5994   1.999   1.695   4.930 -0.7369 -1.2802 -0.0277
 1800SOL    HW2 5995   1.924   1.823   4.902  1.7570  0.0741 -0.7085
 1801SOL     OW 5996   7.126   0.149   3.841 -0.2856 -0.2485 -0.3617
 1801SOL    HW1 5997   7.063   0.079   3.821  0.0361 -0.7509  0.3753
 1801SOL    HW2 5998   7.126   0.204   3.762 -1.9451 -0.0106 -0.2178
 1802SOL     OW 5999   0.814   1.213   0.789  0.2290  0.0539  0.1694
 1802SOL    HW1 6000   0.847   1.123   0.788  1.6354  0.5604  0.8645
 1802SOL    HW2 6001   0.741   1.211   0.851 -1.1024 -1.0778 -1.4047
 1803SOL     OW 6002   5.886   1.052   6.557  0.0494 -0.0376 -0.5916
 1803SOL    HW1 6003   5.840   1.021   6.635  0.5326 -1.1741 -0.7511
 1803SOL    HW2 6004   5.933   1.130   6.587 -0.0104 -0.2911  0.1775
 1804SOL     OW 6005   6.596   7.022   1.246  0.4578 -0.0279 -0.2614
 1804SOL    HW1 6006   6.595   6.940   1.196  2.2136 -1.7381  2.3173
 1804SOL    HW2 6007   6.676   7.066   1.218 -1.0933  1.4308 -2.5194
 1805SOL     OW 6008   4.646   6.766   4.306 -0.0400 -0.8037  0.8498
 1805SOL    HW1 6009   4.634   6.848   4.257  1.5385 -0.0243  1.7112
 1805SOL    HW2 6010   4.559   6.744   4.338 -0.7193 -0.1933 -0.5344
 1806SOL     OW 6011   7.086   7.166   4.009  0.3188  0.1034  0.5135
 1806SOL    HW1 6012   7.156   7.154   3.945 -0.4616 -1.7825 -0.0201
 1806SOL    HW2 6013   7.090   7.088   4.064 -0.0585  0.9487  1.7811
 1807SOL     OW 6014   3.645   0.700   3.396 -0.1830  0.5228  0.4728
 1807SOL    HW1 6015   3.646   0.640   3.321 -1.0073 -0.3294  1.1339
 1807SOL    HW2 6016   3.623   0.785   3.358 -2.0228 -0.1702 -0.0918
 1808SOL     OW 6017   3.557   7.001   5.890 -0.0886 -0.1911  0.1455
 1808SOL    HW1 6018   3.550   6.981   5.797  1.2196 -0.3257  0.0603
 1808SOL    HW2 6019   3.598   7.087   5.892  0.8020 -0.6188  0.6015
 1809SOL     OW 6020   4.277   2.970   1.446 -0.1072  0.5240  0.1559
 1809SOL    HW1 6021   4.292   2.907   1.517  0.4137  0.2929 -0.1590
 1809SOL    HW2 6022   4.198   2.938   1.403  0.1195  0.1215  0.0361
 1810SOL     OW 6023   3.803   3.198   2.425  0.1086 -0.3891  0.0522
 1810SOL    HW1 6024   3.794   3.146   2.344 -0.6530 -0.4256  0.1571
 1810SOL    HW2 6025   3.715   3.199   2.462  0.1025  1.0977 -0.0089
 1811SOL     OW 6026   3.198   4.590   2.580 -0.5836  0.1607 -0.2289
 1811SOL    HW1 6027   3.204   4.682   2.607 -1.5094  0.4191 -0.8829
 1811SOL    HW2 6028   3.288   4.566   2.557 -0.5284  1.2729 -1.2306
 1812SOL     OW 6029   2.130   0.943   6.334  0.2644  0.4271  0.2041
 1812SOL    HW1 6030   2.186   1.019   6.348  1.2130 -0.5064  1.7387
 1812SOL    HW2 6031   2.043   0.971   6.364 -0.0388  1.7564 -1.8174
 1813SOL     OW 6032   4.826   6.932   5.013 -0.2414 -0.0318  0.2641
 1813SOL    HW1 6033   4.860   6.996   5.075  1.6326 -0.6183 -0.1326
 1813SOL    HW2 6034   4.824   6.979   4.929 -0.0301 -0.1158  0.2115
 1814SOL     OW 6035   3.819   4.047   1.579 -0.2682 -0.0671  0.1342
 1814SOL    HW1 6036   3.817   4.120   1.641 -2.5101  0.2344 -0.2375
 1814SOL    HW2 6037   3.880   4.075   1.510 -0.8040  1.2938  0.1953
 1815SOL     OW 6038   5.364   4.080   0.720 -0.0294 -0.6018  0.8910
 1815SOL    HW1 6039   5.435   4.041   0.670 -1.0792  1.6551 -2.5767
 1815SOL    HW2 6040   5.285   4.037   0.686 -0.7906  1.2372  0.2813
 1816SOL     OW 6041   3.084   7.192   0.898  0.1340 -0.1417 -0.3349
 1816SOL    HW1 6042   3.009   7.139   0.925 -0.9921  1.2890 -0.5771
 1816SOL    HW2 6043   3.155   7.163   0.954 -0.4256 -1.9772 -0.5301
 1817SOL     OW 6044   0.646   5.271   2.335  0.1657  0.7108  0.5344
 1817SOL    HW1 6045   0.646   5.347   2.392 -0.6252  1.4232 -0.4145
 1817SOL    HW2 6046   0.678   5.303   2.251 -0.2108  0.0133  0.1159
 1818SOL     OW 6047   3.724   3.325   5.606 -0.5111  0.2477  0.4400
 1818SOL    HW1 6048   3.700   3.414   5.578  1.5775  1.1747  1.5579
 1818SOL    HW2 6049   3.763   3.286   5.528 -1.0536  0.4336  0.0664
 1819SOL     OW 6050   3.413   3.641   2.628  0.7871  0.4671  0.2016
 1819SOL    HW1 6051   3.394   3.705   2.697  1.7167  1.1226 -0.1419
 1819SOL    HW2 6052   3.352   3.569   2.645 -0.2425  1.4204  0.6126
 1820SOL     OW 6053   1.699   5.378   3.409 -0.4651 -0.5871  0.5837
 1820SOL    HW1 6054   1.680   5.440   3.338 -0.1579 -1.5653 -0.3719
 1820SOL    HW2 6055   1.624   5.385   3.468 -0.2597  0.9617  0.6808
 1821SOL     OW 6056   3.100   6.111   5.654  0.5586 -0.2062  0.6063
 1821SOL    HW1 6057   3.083   6.167   5.579  0.8180  0.3567  0.9687
 1821SOL    HW2 6058   3.015   6.103   5.697  0.0931 -1.6758 -0.5193
 1822SOL     OW 6059   5.614   7.030   0.295 -0.2867 -0.2406  0.0385
 1822SOL    HW1 6060   5.687   7.043   0.356 -0.3859 -0.5152  0.2167
 1822SOL    HW2 6061   5.551   7.097   0.318 -0.1878 -0.1467  0.0356
 1823SOL     OW 6062   3.762   1.857   2.140  0.3223 -0.3973 -0.1871
 1823SOL    HW1 6063   3.755   1.905   2.222  2.5027  0.6947 -0.6193
 1823SOL    HW2 6064   3.829   1.791   2.157 -1.2870 -2.1059 -0.2079
 1824SOL     OW 6065   1.028   2.844   0.494 -0.0922  0.0967  0.0766
 1824SOL    HW1 6066   1.033   2.765   0.440 -0.8681 -0.5393  0.9158
 1824SOL    HW2 6067   1.073   2.821   0.575 -1.7480 -0.0476  0.9771
 1825SOL     OW 6068   4.823   2.333   7.016  0.0931 -0.7823  0.0706
 1825SOL    HW1 6069   4.878   2.332   7.094 -0.8771  0.2935  0.7750
 1825SOL    HW2 6070   4.774   2.251   7.020 -0.3156 -0.4981  0.8462
 1826SOL     OW 6071   4.940   0.185   6.856  0.0831  0.2738 -0.5598
 1826SOL    HW1 6072   4.870   0.250   6.862  1.4072  1.7700 -1.1852
 1826SOL    HW2 6073   4.996   0.203   6.931  0.2561 -0.4075 -0.5205
 1827SOL     OW 6074   5.500   1.919   2.710  0.2786  0.0637  0.2605
 1827SOL    HW1 6075   5.429   1.857   2.693  0.0908  0.2761  0.2612
 1827SOL    HW2 6076   5.456   1.999   2.739  0.5539 -0.0266  0.9456
 1828SOL     OW 6077   0.634   3.330   1.597  0.5507  0.2011  0.0136
 1828SOL    HW1 6078   0.587   3.257   1.638  0.8599 -0.4448 -0.7620
 1828SOL    HW2 6079   0.701   3.355   1.661  1.4179 -1.1888 -0.3289
 1829SOL     OW 6080   6.555   2.153   4.728  0.2877 -0.2883 -0.2563
 1829SOL    HW1 6081   6.605   2.120   4.653  0.3472  1.3935 -0.9924
 1829SOL    HW2 6082   6.532   2.242   4.703 -2.6150 -0.8439  0.3062
 1830SOL     OW 6083   2.338   6.747   1.632  0.0633  0.1941 -0.8375
 1830SOL    HW1 6084   2.378   6.776   1.714  2.4356 -2.4161 -0.9925
 1830SOL    HW2 6085   2.335   6.825   1.578 -0.2037  1.6396  1.2080
 1831SOL     OW 6086   7.249   1.790   6.937 -0.7564  0.6111 -0.7335
 1831SOL    HW1 6087   7.271   1.794   6.843 -0.3182 -0.6219 -0.6889
 1831SOL    HW2 6088   7.178   1.726   6.942  0.5432 -0.8052  0.0061
 1832SOL     OW 6089   0.099   5.482   3.211 -0.3805 -0.2744  0.1495
 1832SOL    HW1 6090   0.046   5.458   3.287  1.0684 -2.1763  0.6194
 1832SOL    HW2 6091   0.036   5.507   3.144 -1.7679 -0.5182  1.3433
 1833SOL     OW 6092   3.928   6.114   2.202 -0.2850  0.1627  0.3114
 1833SOL    HW1 6093   3.917   6.029   2.244 -0.8049 -0.2739 -0.6829
 1833SOL    HW2 6094   4.019   6.138   2.218 -0.2236 -0.4400  0.8528
 1834SOL     OW 6095   0.114   6.236   4.665 -0.6449 -0.2769 -0.9742
 1834SOL    HW1 6096   0.208   6.233   4.647 -0.4510 -0.5838  0.0919
 1834SOL    HW2 6097   0.075   6.182   4.595 -0.1005  0.4238 -1.8291
 1835SOL     OW 6098   4.968   5.833   4.255  0.6087 -0.1590  0.9947
 1835SOL    HW1 6099   4.928   5.915   4.225 -0.3424 -0.6620  0.8716
 1835SOL    HW2 6100   5.000   5.852   4.343  2.4595  1.0185  0.1182
 1836SOL     OW 6101   3.336   1.060   6.003  0.0309  0.0531  0.2203
 1836SOL    HW1 6102   3.286   1.094   6.078  0.0799  1.9877 -0.6051
 1836SOL    HW2 6103   3.396   1.131   5.981  0.6099 -0.8535 -1.1246
 1837SOL     OW 6104   2.193   2.571   3.296 -0.2212  0.3793  0.7952
 1837SOL    HW1 6105   2.106   2.603   3.271 -1.1108 -1.8892  0.9385
 1837SOL    HW2 6106   2.227   2.531   3.217 -0.5331 -1.3731  1.5362
 1838SOL     OW 6107   1.729   5.512   6.504  0.5227  0.3125  0.0799
 1838SOL    HW1 6108   1.681   5.573   6.448 -0.4555 -1.0725 -0.6480
 1838SOL    HW2 6109   1.679   5.430   6.498  0.1693  0.2391  3.3368
 1839SOL     OW 6110   3.780   5.720   2.557  0.4999 -0.3756 -0.3696
 1839SOL    HW1 6111   3.775   5.625   2.546 -0.7794 -0.4742  0.9211
 1839SOL    HW2 6112   3.872   5.738   2.576  0.6338 -1.4106 -0.0355
 1840SOL     OW 6113   0.210   1.645   5.287  0.8291  0.0132 -0.3220
 1840SOL    HW1 6114   0.252   1.699   5.219 -0.1394  0.7946 -0.3101
 1840SOL    HW2 6115   0.127   1.618   5.248  0.0375  0.8987  0.7342
 1841SOL     OW 6116   0.629   7.157   5.222 -0.2764  0.2407 -0.0391
 1841SOL    HW1 6117   0.543   7.130   5.191  0.3468 -1.1419 -0.5943
 1841SOL    HW2 6118   0.684   7.156   5.144  0.7454 -0.9725  0.6768
 1842SOL     OW 6119   5.370   4.502   0.266  0.0932  0.1845 -0.3317
 1842SOL    HW1 6120   5.370   4.567   0.196  2.1115  0.4612 -0.1104
 1842SOL    HW2 6121   5.369   4.554   0.347  1.9764 -0.0240 -0.1540
 1843SOL     OW 6122   6.507   6.128   7.036  0.2687 -0.1728  0.1641
 1843SOL    HW1 6123   6.575   6.109   6.971 -1.3219  0.1091 -1.6247
 1843SOL    HW2 6124   6.551   6.179   7.103  1.5047  1.2473 -1.6881
 1844SOL     OW 6125   3.776   4.771   4.416 -0.3020 -0.4528 -0.3180
 1844SOL    HW1 6126   3.790   4.856   4.374  0.1373 -0.1586  0.3968
 1844SOL    HW2 6127   3.865   4.741   4.439 -0.5907 -0.1583  1.2345
 1845SOL     OW 6128   3.619   0.069   4.481  0.4736 -0.6423 -0.1046
 1845SOL    HW1 6129   3.682   0.125   4.526 -1.9713  0.1521  2.4893
 1845SOL    HW2 6130   3.656  -0.019   4.487  1.7037 -0.0815  0.6611
 1846SOL     OW 6131   1.539   7.116   1.091 -0.5580  0.0002  0.3276
 1846SOL    HW1 6132   1.494   7.071   1.162  0.7047 -0.2889  0.9650
 1846SOL    HW2 6133   1.521   7.063   1.014 -0.0271 -0.9766  0.8629
 1847SOL     OW 6134   0.492   5.767   4.287  0.2841  0.5775 -0.4632
 1847SOL    HW1 6135   0.528   5.710   4.354 -1.5131 -3.3871 -2.7084
 1847SOL    HW2 6136   0.568   5.792   4.234  0.7455 -2.1776 -1.1669
 1848SOL     OW 6137   5.771   4.013   1.255  0.2903 -0.1679  0.2038
 1848SOL    HW1 6138   5.815   3.989   1.336 -0.1919  0.1603  0.5650
 1848SOL    HW2 6139   5.821   3.968   1.186  0.7291 -0.4024  0.6732
 1849SOL     OW 6140   7.161   6.584   0.226  0.5085 -0.3805  0.2104
 1849SOL    HW1 6141   7.239   6.530   0.217  0.1039 -0.5231 -2.6636
 1849SOL    HW2 6142   7.195   6.672   0.244  1.2400 -0.8804  1.3455
 1850SOL     OW 6143   0.008   0.647   0.683 -0.1454  0.1745 -0.0348
 1850SOL    HW1 6144   0.084   0.598   0.713  0.8218  1.1925 -0.7909
 1850SOL    HW2 6145  -0.001   0.718   0.746 -1.0202 -0.4481  0.5605
 1851SOL     OW 6146   1.339   1.261   3.772  0.0515  0.1527  0.4456
 1851SOL    HW1 6147   1.339   1.341   3.719 -0.8973  0.0279  0.2497
 1851SOL    HW2 6148   1.324   1.292   3.862 -0.5942  0.1813  0.3335
 1852SOL     OW 6149   0.681   0.920   0.995 -0.0680 -0.0519 -0.3084
 1852SOL    HW1 6150   0.680   1.011   0.965 -0.6837  0.1397  0.2848
 1852SOL    HW2 6151   0.767   0.909   1.034  0.2109  0.1137 -0.8636
 1853SOL     OW 6152   1.596   5.044   5.580  0.5231 -0.2008 -0.2229
 1853SOL    HW1 6153   1.576   4.955   5.552 -2.3494  0.4726 -0.5203
 1853SOL    HW2 6154   1.570   5.047   5.673 -0.7509  0.6760 -0.5857
 1854SOL     OW 6155   0.153   3.897   2.473  0.0406 -0.3339  0.9637
 1854SOL    HW1 6156   0.112   3.917   2.557 -0.2566  3.7950 -0.0462
 1854SOL    HW2 6157   0.079   3.884   2.413  0.2217  0.8637  0.4745
 1855SOL     OW 6158   1.094   3.671   4.865  0.2220 -0.2219  0.6313
 1855SOL    HW1 6159   1.149   3.680   4.944  0.8014  0.8676  0.1259
 1855SOL    HW2 6160   1.011   3.712   4.890 -0.0226 -0.9946  1.0828
 1856SOL     OW 6161   0.608   6.822   1.697  0.5158  0.2874  0.0492
 1856SOL    HW1 6162   0.524   6.864   1.712  2.3218  3.3705  2.1830
 1856SOL    HW2 6163   0.663   6.892   1.661  2.5070 -1.3256 -0.1284
 1857SOL     OW 6164   0.997   4.792   4.501 -0.3390  0.3536 -0.0924
 1857SOL    HW1 6165   1.092   4.782   4.506 -0.1896  0.6153 -2.0524
 1857SOL    HW2 6166   0.976   4.774   4.410 -2.0664  1.2013  0.1226
 1858SOL     OW 6167   4.777   3.024   1.332 -0.1403  0.3265 -0.3079
 1858SOL    HW1 6168   4.692   2.981   1.323 -0.3322  0.6495 -0.0333
 1858SOL    HW2 6169   4.776   3.062   1.420  0.0792  0.7761 -0.4966
 1859SOL     OW 6170   3.782   1.962   2.692  0.2171 -0.0780 -0.3327
 1859SOL    HW1 6171   3.782   2.057   2.705  1.6602 -0.2544  1.1788
 1859SOL    HW2 6172   3.731   1.928   2.765  1.1097 -0.5607  0.0708
 1860SOL     OW 6173   2.024   5.955   3.253  0.3152  0.1812 -0.0808
 1860SOL    HW1 6174   2.070   5.899   3.315 -0.2049  1.5470  1.5572
 1860SOL    HW2 6175   2.087   6.024   3.230  0.1891  0.2051 -0.3630
 1861SOL     OW 6176   2.591   5.184   6.008  0.5182  0.1894 -0.1233
 1861SOL    HW1 6177   2.546   5.268   6.010  1.1657  0.5171  0.7890
 1861SOL    HW2 6178   2.612   5.170   5.916 -0.6435  0.4574 -0.4381
 1862SOL     OW 6179   3.849   0.370   7.051 -0.8291  0.4825  0.6258
 1862SOL    HW1 6180   3.866   0.426   6.975  0.4886  0.2405  0.7271
 1862SOL    HW2 6181   3.823   0.431   7.120  1.0496  1.0472  0.8681
 1863SOL     OW 6182   4.769   4.962   0.199  0.1147 -0.5840 -0.2816
 1863SOL    HW1 6183   4.754   5.055   0.217  1.3722  0.1339 -2.6409
 1863SOL    HW2 6184   4.864   4.952   0.203 -0.0848 -2.1390  1.4509
 1864SOL     OW 6185   2.538   5.369   0.487  0.7529 -0.1747  0.3459
 1864SOL    HW1 6186   2.557   5.309   0.559 -0.2811 -1.8591 -0.7395
 1864SOL    HW2 6187   2.621   5.377   0.440  1.0804 -0.1642  0.9204
 1865SOL     OW 6188   0.400   4.290   3.716 -0.1820  0.0267 -0.1875
 1865SOL    HW1 6189   0.388   4.309   3.623 -0.0328  1.9929  0.1779
 1865SOL    HW2 6190   0.479   4.235   3.719  0.7685  1.3107 -1.0919
 1866SOL     OW 6191   3.930   7.251   5.261 -0.1796 -0.4206 -0.0795
 1866SOL    HW1 6192   3.962   7.318   5.322  0.6116 -0.4984 -0.4108
 1866SOL    HW2 6193   3.988   7.257   5.185 -0.9134 -0.5998 -0.6590
 1867SOL     OW 6194   2.712   5.846   7.103 -0.3097  0.1425 -0.2872
 1867SOL    HW1 6195   2.787   5.856   7.161  0.0278  0.4086 -0.7648
 1867SOL    HW2 6196   2.660   5.925   7.116 -0.6836 -0.1935  0.2893
 1868SOL     OW 6197   3.840   6.260   0.161 -0.1345 -0.0226  0.6373
 1868SOL    HW1 6198   3.873   6.235   0.247  2.1078  1.5456  0.2890
 1868SOL    HW2 6199   3.753   6.296   0.177 -0.5030 -1.4735  1.9855
 1869SOL     OW 6200   1.547   2.088   0.547 -0.1104  0.0415 -0.2827
 1869SOL    HW1 6201   1.520   2.047   0.629  0.3815 -0.5123 -0.4001
 1869SOL    HW2 6202   1.565   2.015   0.488 -0.2360  0.4349 -0.8156
 1870SOL     OW 6203   0.394   4.307   5.416  0.1939 -0.2852  0.4514
 1870SOL    HW1 6204   0.400   4.211   5.419  0.8278 -0.2381  0.6600
 1870SOL    HW2 6205   0.417   4.336   5.504 -0.8869  0.0167  0.6403
 1871SOL     OW 6206   7.074   0.044   6.415 -0.2925  0.2412  0.3222
 1871SOL    HW1 6207   7.167   0.027   6.429 -0.6904 -0.3589  2.5748
 1871SOL    HW2 6208   7.068   0.139   6.405  0.3279  0.5275  2.4285
 1872SOL     OW 6209   0.178   6.249   0.698 -0.5986  0.9120  0.4187
 1872SOL    HW1 6210   0.180   6.227   0.791 -1.9712 -0.4242  0.1335
 1872SOL    HW2 6211   0.269   6.271   0.678 -0.2662  1.1483  2.0411
 1873SOL     OW 6212   7.167   0.728   3.719 -0.2769 -0.0960 -0.0123
 1873SOL    HW1 6213   7.110   0.784   3.665  0.2906 -0.4648 -1.0022
 1873SOL    HW2 6214   7.115   0.711   3.798 -1.2249  0.2440 -0.5488
 1874SOL     OW 6215   4.519   1.438   4.077 -0.0751 -0.6436  0.0276
 1874SOL    HW1 6216   4.571   1.418   4.155 -1.2005 -3.0045  0.2055
 1874SOL    HW2 6217   4.548   1.373   4.012 -1.8203 -1.0883 -0.3148
 1875SOL     OW 6218   4.976   3.027   3.811 -0.3906  0.0734  0.3377
 1875SOL    HW1 6219   4.930   3.051   3.891 -1.7700 -0.2211 -0.3585
 1875SOL    HW2 6220   5.020   2.945   3.832 -1.9788 -0.7860  0.3364
 1876SOL     OW 6221   5.237   3.867   6.667 -0.2034  0.5240 -0.5910
 1876SOL    HW1 6222   5.236   3.956   6.632 -2.1246  1.7117  2.2771
 1876SOL    HW2 6223   5.146   3.838   6.661 -0.0908 -0.2190  0.9360
 1877SOL     OW 6224   6.281   4.830   0.045 -0.0100 -0.6517 -0.1299
 1877SOL    HW1 6225   6.189   4.846   0.067 -0.3602 -2.5648 -0.1643
 1877SOL    HW2 6226   6.282   4.828  -0.051  0.1830 -0.0056 -0.1433
 1878SOL     OW 6227   5.664   5.101   2.502  0.4124  0.4486 -0.0217
 1878SOL    HW1 6228   5.672   5.135   2.413 -0.4014 -0.5018 -0.4693
 1878SOL    HW2 6229   5.592   5.038   2.497 -0.6324  1.4671  1.6384
 1879SOL     OW 6230   6.197   2.395   4.078 -1.1407 -0.7218 -0.4313
 1879SOL    HW1 6231   6.241   2.459   4.135 -2.0526 -0.2024 -0.3019
 1879SOL    HW2 6232   6.168   2.326   4.136  0.3870 -1.5682 -0.6542
 1880SOL     OW 6233   0.141   0.278   0.287 -0.1357 -0.6305  0.0083
 1880SOL    HW1 6234   0.209   0.341   0.263 -0.2662 -0.2251  0.7059
 1880SOL    HW2 6235   0.149   0.208   0.221  2.6909 -1.8866  1.5826
 1881SOL     OW 6236   0.253   2.362   2.746  0.7042  0.2791  0.0675
 1881SOL    HW1 6237   0.186   2.418   2.706  0.5836 -0.0877 -0.2460
 1881SOL    HW2 6238   0.332   2.381   2.696  0.3533 -0.8165 -0.9077
 1882SOL     OW 6239   0.609   4.524   3.671  0.6138  0.4318  0.8186
 1882SOL    HW1 6240   0.524   4.480   3.680  0.2212  1.3814  1.9456
 1882SOL    HW2 6241   0.673   4.459   3.699  0.5394 -1.2671 -2.7075
 1883SOL     OW 6242   7.218   2.376   3.682 -0.8026 -0.0038  0.2809
 1883SOL    HW1 6243   7.178   2.290   3.688  0.8511 -0.9475 -1.6887
 1883SOL    HW2 6244   7.188   2.411   3.598  0.2434  0.4327  0.0796
 1884SOL     OW 6245   2.110   1.108   4.810  0.0616  0.2345  0.3232
 1884SOL    HW1 6246   2.035   1.062   4.845 -1.5121  1.8596 -0.7861
 1884SOL    HW2 6247   2.127   1.066   4.725  1.2367 -0.9697  1.1387
 1885SOL     OW 6248   5.867   5.981   5.467  0.1990  0.2198 -0.0604
 1885SOL    HW1 6249   5.955   5.958   5.439 -0.0886  0.0743 -0.8511
 1885SOL    HW2 6250   5.812   5.966   5.390 -0.7338 -0.9676  0.8073
 1886SOL     OW 6251   4.388   0.012   5.105  0.6329 -0.2475 -0.0137
 1886SOL    HW1 6252   4.396   0.056   5.020 -0.4300 -0.6161 -0.3059
 1886SOL    HW2 6253   4.476  -0.023   5.121  0.0474 -3.1258 -2.5838
 1887SOL     OW 6254   5.879   6.824   5.143 -1.1842 -0.2810 -0.1338
 1887SOL    HW1 6255   5.957   6.813   5.089  0.3771  1.3117  1.7067
 1887SOL    HW2 6256   5.824   6.885   5.094  0.2924  1.2837  0.1311
 1888SOL     OW 6257   4.031   6.691   7.136 -0.1489 -0.0707  0.0083
 1888SOL    HW1 6258   4.021   6.635   7.059  0.2017  0.1483 -0.1972
 1888SOL    HW2 6259   4.007   6.635   7.210 -3.4559  0.5544 -0.4909
 1889SOL     OW 6260   6.668   0.023   2.950  0.1010  0.2318  0.0833
 1889SOL    HW1 6261   6.739   0.039   2.888  0.5306 -0.4252  0.3972
 1889SOL    HW2 6262   6.589   0.055   2.905  0.5499  0.6737 -0.3895
 1890SOL     OW 6263   3.696   4.736   1.202 -0.6716  0.0497 -0.0341
 1890SOL    HW1 6264   3.713   4.824   1.236  1.8392  0.1365 -1.4642
 1890SOL    HW2 6265   3.760   4.681   1.246 -0.7542 -0.7016 -0.8489
 1891SOL     OW 6266   2.654   4.543   0.014  0.0686 -0.0556  0.0056
 1891SOL    HW1 6267   2.626   4.475  -0.047 -1.3982  1.3037 -0.8950
 1891SOL    HW2 6268   2.689   4.612  -0.043  0.6681  0.3265  0.8359
 1892SOL     OW 6269   4.112   1.878   1.352  0.3678  0.0738  0.1456
 1892SOL    HW1 6270   4.183   1.837   1.402 -1.3416 -2.3853  0.6184
 1892SOL    HW2 6271   4.077   1.945   1.411  0.3532 -0.7438  1.0834
 1893SOL     OW 6272   2.476   2.408   0.566  0.0400 -0.3052  0.0451
 1893SOL    HW1 6273   2.471   2.324   0.521 -0.9468 -0.7679  0.9975
 1893SOL    HW2 6274   2.507   2.387   0.654  0.0721  0.3507  0.1945
 1894SOL     OW 6275   2.497   3.833   0.584 -0.0217  0.6865 -0.3494
 1894SOL    HW1 6276   2.440   3.909   0.597 -1.7032 -0.2861 -1.7080
 1894SOL    HW2 6277   2.530   3.843   0.495 -2.1226 -1.3116 -1.4190
 1895SOL     OW 6278   0.512   6.513   5.805 -0.0644  1.1419  0.1144
 1895SOL    HW1 6279   0.533   6.421   5.822  0.4364  1.5057  1.5488
 1895SOL    HW2 6280   0.485   6.547   5.891  0.0437  2.4074 -0.3481
 1896SOL     OW 6281   5.233   2.800   2.744 -0.7782  0.2597  0.4062
 1896SOL    HW1 6282   5.270   2.712   2.747  1.2212  1.1194  2.0401
 1896SOL    HW2 6283   5.261   2.841   2.826 -1.0811  2.6442 -0.6439
 1897SOL     OW 6284   2.691   6.253   1.422 -0.0628  0.0572  0.0090
 1897SOL    HW1 6285   2.709   6.338   1.462  1.6270 -0.0964 -0.3683
 1897SOL    HW2 6286   2.703   6.268   1.328  3.4919 -1.2940  0.1568
 1898SOL     OW 6287   7.154   0.689   4.996  0.4204  0.2985  0.2469
 1898SOL    HW1 6288   7.102   0.609   5.001  0.3969  0.2166 -1.0773
 1898SOL    HW2 6289   7.222   0.670   4.931 -0.9677  2.0916 -1.7896
 1899SOL     OW 6290   2.797   5.892   3.175  0.3057  0.2688 -0.0078
 1899SOL    HW1 6291   2.760   5.915   3.090  0.8108  2.7781  0.4012
 1899SOL    HW2 6292   2.882   5.937   3.178 -0.5156  1.7949  2.5121
 1900SOL     OW 6293   5.734   6.707   2.379 -0.4389  0.8313 -0.4380
 1900SOL    HW1 6294   5.740   6.773   2.449 -2.1550  1.1012 -0.5346
 1900SOL    HW2 6295   5.811   6.723   2.324 -0.2687  2.0475  0.1455
 1901SOL     OW 6296   4.041   0.318   5.060 -0.1876  0.0848  0.4017
 1901SOL    HW1 6297   3.994   0.341   5.140 -0.0068 -0.3787  0.6448
 1901SOL    HW2 6298   3.973   0.297   4.997 -0.3088 -0.9000  0.8488
 1902SOL     OW 6299   4.574   1.357   2.468 -0.6179  0.1039  0.1215
 1902SOL    HW1 6300   4.607   1.428   2.413 -0.0035 -0.4984 -0.2910
 1902SOL    HW2 6301   4.524   1.302   2.408 -0.1882 -0.3975  0.2245
 1903SOL     OW 6302   7.195   2.210   5.025  0.1875  0.4531 -0.4771
 1903SOL    HW1 6303   7.162   2.295   5.052 -0.5738  0.8183 -2.4844
 1903SOL    HW2 6304   7.259   2.229   4.956  1.9997 -0.4626  0.8936
 1904SOL     OW 6305   1.224   1.573   6.264  0.3365 -0.3185 -0.3972
 1904SOL    HW1 6306   1.301   1.570   6.208  0.4584  0.6572 -0.2933
 1904SOL    HW2 6307   1.257   1.607   6.348 -0.6214  2.4171 -1.0883
 1905SOL     OW 6308   0.364   0.724   4.144  0.3916  0.1324  0.0337
 1905SOL    HW1 6309   0.345   0.630   4.136  2.3133 -0.2051 -0.8393
 1905SOL    HW2 6310   0.308   0.765   4.078 -1.8013 -0.1837  1.6348
 1906SOL     OW 6311   4.293   1.686   6.009  0.4300 -0.5349  0.2927
 1906SOL    HW1 6312   4.317   1.764   5.958  1.4762  0.1872  1.8595
 1906SOL    HW2 6313   4.198   1.686   6.009  0.4135  0.8650  0.4341
 1907SOL     OW 6314   1.046   1.377   0.596 -0.2297 -0.1484 -0.8075
 1907SOL    HW1 6315   1.016   1.385   0.506 -1.7369  1.1573 -0.2286
 1907SOL    HW2 6316   0.990   1.309   0.634 -2.1788  1.9061  0.1266
 1908SOL     OW 6317   1.742   4.504   4.110 -0.7520  0.3268  0.0269
 1908SOL    HW1 6318   1.674   4.502   4.043 -0.7039  3.0807 -0.1493
 1908SOL    HW2 6319   1.823   4.483   4.062 -1.3307 -2.4089  0.1439
 1909SOL     OW 6320   0.684   6.625   0.734 -0.4175  0.3989  0.1480
 1909SOL    HW1 6321   0.780   6.630   0.736 -0.3771 -0.5193  0.6745
 1909SOL    HW2 6322   0.655   6.712   0.758  0.2877  0.7835 -0.3622
 1910SOL     OW 6323   0.935   5.468   6.648 -0.7183 -0.4438  0.5210
 1910SOL    HW1 6324   0.853   5.480   6.695 -1.3546  0.2592 -0.7375
 1910SOL    HW2 6325   0.909   5.428   6.565  0.3132 -1.0738  0.4929
 1911SOL     OW 6326   6.831   0.912   2.579 -0.6910  0.6860 -0.1061
 1911SOL    HW1 6327   6.769   0.966   2.531  0.7998  2.5501  0.0285
 1911SOL    HW2 6328   6.835   0.830   2.529 -0.8395  1.7678 -1.9246
 1912SOL     OW 6329   5.856   1.356   3.922 -0.3484 -0.2496  0.2255
 1912SOL    HW1 6330   5.885   1.411   3.994  0.9935 -0.0147 -0.4871
 1912SOL    HW2 6331   5.786   1.303   3.960 -1.5733  1.8293  0.9613
 1913SOL     OW 6332   3.899   6.469   7.247 -0.3691 -0.3015 -0.5765
 1913SOL    HW1 6333   3.878   6.410   7.319 -0.9330 -0.2326 -0.6851
 1913SOL    HW2 6334   3.876   6.421   7.168  2.0710 -1.1410 -0.8299
 1914SOL     OW 6335   6.252   4.376   5.515  0.6845  0.5232  0.0691
 1914SOL    HW1 6336   6.197   4.430   5.458  1.9575 -0.2526 -1.9452
 1914SOL    HW2 6337   6.295   4.314   5.456  1.2936 -0.9516  2.0092
 1915SOL     OW 6338   6.737   3.617   6.620 -0.5922 -0.1446 -0.1688
 1915SOL    HW1 6339   6.822   3.654   6.597 -0.0251 -1.7172 -0.6792
 1915SOL    HW2 6340   6.688   3.690   6.659  0.5965  1.0338 -0.8609
 1916SOL     OW 6341   2.059   5.380   3.514  0.4160  0.2757 -0.3838
 1916SOL    HW1 6342   2.035   5.465   3.549  0.7716 -0.1858  1.0296
 1916SOL    HW2 6343   2.153   5.372   3.533 -0.0653 -1.3467  1.5578
 1917SOL     OW 6344   5.514   6.253   1.946  0.3107 -0.0314  0.1141
 1917SOL    HW1 6345   5.470   6.209   2.019  0.1952  2.4462  1.5802
 1917SOL    HW2 6346   5.490   6.345   1.955  3.1463  0.8746 -0.9849
 1918SOL     OW 6347   1.392   1.252   6.440 -0.2273  0.1702  0.3276
 1918SOL    HW1 6348   1.379   1.234   6.533  0.0823  1.3080  0.5992
 1918SOL    HW2 6349   1.475   1.301   6.436 -0.3155  0.2632 -0.5260
 1919SOL     OW 6350   3.098   2.789   3.334  0.0756 -0.3322  0.1833
 1919SOL    HW1 6351   3.160   2.862   3.343  0.1176 -0.2659 -0.6717
 1919SOL    HW2 6352   3.115   2.735   3.411  0.3305  0.3440  0.6122
 1920SOL     OW 6353   6.186   0.239   7.111 -0.4011 -0.4089 -0.2847
 1920SOL    HW1 6354   6.138   0.208   7.034 -0.8922 -0.8231  0.1851
 1920SOL    HW2 6355   6.273   0.198   7.102 -0.8461 -1.4391  0.0093
 1921SOL     OW 6356   3.997   0.720   6.256  0.2888 -0.1571  0.1349
 1921SOL    HW1 6357   4.024   0.643   6.205 -1.3222 -0.3057 -0.5280
 1921SOL    HW2 6358   3.916   0.692   6.300  0.2794  0.8062  0.7424
 1922SOL     OW 6359   6.868   5.221   3.127 -0.4431 -0.7275  0.1123
 1922SOL    HW1 6360   6.917   5.234   3.208 -1.0011  0.0014  0.3430
 1922SOL    HW2 6361   6.794   5.165   3.153  0.2554 -1.8279 -0.2344
 1923SOL     OW 6362   6.669   4.400   1.394 -0.0694 -0.0855  0.0352
 1923SOL    HW1 6363   6.650   4.493   1.379  0.8639  0.3975  1.6540
 1923SOL    HW2 6364   6.765   4.395   1.393 -0.1020 -0.8808  0.7754
 1924SOL     OW 6365   0.644   3.830   0.643  0.6066  0.7847 -0.2748
 1924SOL    HW1 6366   0.703   3.897   0.610  1.3582  1.0081  1.4666
 1924SOL    HW2 6367   0.607   3.867   0.723  0.6946 -0.6842  0.4680
 1925SOL     OW 6368   3.026   4.429   3.461  0.2798 -0.5883 -0.0554
 1925SOL    HW1 6369   3.012   4.522   3.444 -1.0273 -1.0421 -1.5597
 1925SOL    HW2 6370   3.119   4.415   3.443  0.4436  0.3745  0.0223
 1926SOL     OW 6371   1.860   5.841   6.384  0.5237  0.4838 -0.0144
 1926SOL    HW1 6372   1.775   5.797   6.393  0.5865  0.3712  0.0374
 1926SOL    HW2 6373   1.852   5.919   6.438  0.2462  0.7865 -0.4851
 1927SOL     OW 6374   0.451   4.111   4.381  0.2203  0.6380  0.4411
 1927SOL    HW1 6375   0.426   4.172   4.450 -0.5733 -1.7654  2.3768
 1927SOL    HW2 6376   0.368   4.091   4.337  0.0762 -0.7222  1.2859
 1928SOL     OW 6377   3.930   2.118   5.647  0.1744  0.4992 -0.0761
 1928SOL    HW1 6378   3.876   2.053   5.693 -0.2639 -0.3741 -1.7977
 1928SOL    HW2 6379   3.916   2.199   5.695  0.1814 -0.5207  1.6942
 1929SOL     OW 6380   7.014   4.120   1.689  0.4743  0.2294  0.3301
 1929SOL    HW1 6381   7.025   4.103   1.782  0.2818 -2.4453 -0.1059
 1929SOL    HW2 6382   7.103   4.128   1.656  0.6416 -1.8423  0.2336
 1930SOL     OW 6383   1.596   3.349   2.160  0.3112 -0.0321 -0.2157
 1930SOL    HW1 6384   1.650   3.290   2.108 -0.2218 -0.0667 -0.7323
 1930SOL    HW2 6385   1.640   3.433   2.156  0.5391 -0.1551 -0.3013
 1931SOL     OW 6386   5.438   2.031   4.048  0.2088  0.6142 -0.1477
 1931SOL    HW1 6387   5.408   2.089   3.978 -2.2757  1.6816  1.7314
 1931SOL    HW2 6388   5.358   2.004   4.093  1.3997 -3.3830 -0.2337
 1932SOL     OW 6389   1.129   0.418   4.814  0.1908 -0.1707  0.0946
 1932SOL    HW1 6390   1.082   0.335   4.822 -0.2294  0.0607  0.0601
 1932SOL    HW2 6391   1.092   0.459   4.735  0.8824 -0.2618 -0.2802
 1933SOL     OW 6392   5.025   6.806   5.869 -0.8076 -0.4707 -0.6645
 1933SOL    HW1 6393   5.115   6.774   5.865 -0.8787 -0.5331 -2.0455
 1933SOL    HW2 6394   5.010   6.825   5.961  0.7746 -0.0352 -0.4801
 1934SOL     OW 6395   1.612   1.787   6.083  0.2939 -0.1277  0.1271
 1934SOL    HW1 6396   1.573   1.873   6.101 -1.4074 -0.6138 -1.1791
 1934SOL    HW2 6397   1.696   1.807   6.040  1.0041  0.8951  1.9122
 1935SOL     OW 6398   2.625   5.142   3.161  0.0519  0.1753  0.0782
 1935SOL    HW1 6399   2.619   5.187   3.076 -0.4608 -0.6458 -0.3330
 1935SOL    HW2 6400   2.648   5.052   3.138  2.9979  0.6220  0.9904
 1936SOL     OW 6401   6.053   3.757   3.964 -0.3120  0.3480 -0.0733
 1936SOL    HW1 6402   6.085   3.692   3.902  0.7234 -0.0308  0.8314
 1936SOL    HW2 6403   5.995   3.709   4.022 -1.1886  0.6769 -0.6728
 1937SOL     OW 6404   3.671   0.589   6.666  0.7964  0.3495  0.2439
 1937SOL    HW1 6405   3.602   0.649   6.693 -0.4158 -0.9225  0.0019
 1937SOL    HW2 6406   3.630   0.503   6.666  2.1528 -0.3201 -0.6908
 1938SOL     OW 6407   5.613   4.212   1.363 -0.4587  0.0570  0.1167
 1938SOL    HW1 6408   5.688   4.236   1.417 -1.2872  1.3085  0.7272
 1938SOL    HW2 6409   5.635   4.126   1.329  1.3895  0.5395  0.0462
 1939SOL     OW 6410   3.620   5.594   7.191  0.0118 -0.2026  0.6717
 1939SOL    HW1 6411   3.696   5.536   7.184  0.1757 -0.2088  2.2725
 1939SOL    HW2 6412   3.633   5.658   7.122  0.9954 -0.7638  0.3199
 1940SOL     OW 6413   3.753   1.346   2.261  0.0396 -0.6382  0.3694
 1940SOL    HW1 6414   3.837   1.320   2.298 -0.0225 -0.9607  0.2796
 1940SOL    HW2 6415   3.707   1.387   2.334  0.3572 -0.2693  0.3670
 1941SOL     OW 6416   4.834   6.031   1.614  0.1057 -0.0715  0.1454
 1941SOL    HW1 6417   4.743   6.019   1.586  0.3709 -1.6436 -0.1349
 1941SOL    HW2 6418   4.880   6.060   1.536 -0.0596  0.1840  0.1452
 1942SOL     OW 6419   1.585   0.231   1.617  0.0457  0.1256  0.3240
 1942SOL    HW1 6420   1.556   0.231   1.527 -0.2712 -0.6353  0.4191
 1942SOL    HW2 6421   1.681   0.239   1.612  0.1408 -1.1350 -0.1343
 1943SOL     OW 6422   2.251   3.640   4.044  0.2697  0.1104 -0.0089
 1943SOL    HW1 6423   2.323   3.670   3.989  0.5501 -1.3636 -0.4568
 1943SOL    HW2 6424   2.283   3.559   4.084 -0.8879 -0.2090  0.2887
 1944SOL     OW 6425   3.640   0.386   2.963 -0.5990 -0.3135  0.1290
 1944SOL    HW1 6426   3.627   0.480   2.974 -0.4442 -0.0631 -1.6604
 1944SOL    HW2 6427   3.662   0.375   2.870 -3.0220 -2.3600 -0.2895
 1945SOL     OW 6428   7.241   2.493   6.368 -0.8011 -0.6044 -0.7018
 1945SOL    HW1 6429   7.320   2.440   6.379  1.0909  2.4140  0.8923
 1945SOL    HW2 6430   7.178   2.455   6.428  1.3277  0.3407  2.2517
 1946SOL     OW 6431   1.971   0.617   0.787  0.1721 -0.0742  0.0728
 1946SOL    HW1 6432   2.009   0.593   0.872 -2.2398 -0.6745  1.0323
 1946SOL    HW2 6433   2.010   0.555   0.725  0.0550 -1.2964  1.1870
 1947SOL     OW 6434   5.760   2.600   2.003 -0.5107  0.0716  0.5958
 1947SOL    HW1 6435   5.852   2.604   2.031 -0.8061  2.2116  1.3318
 1947SOL    HW2 6436   5.762   2.616   1.909  0.0332 -1.8601  0.2685
 1948SOL     OW 6437   1.259   5.058   5.919  0.3575  0.3658  0.5430
 1948SOL    HW1 6438   1.243   5.081   6.010  0.6799  0.6837  0.5191
 1948SOL    HW2 6439   1.210   5.122   5.868 -1.9316 -1.3327  0.4971
 1949SOL     OW 6440   0.542   2.937   6.671  0.2242  0.0296 -0.3006
 1949SOL    HW1 6441   0.541   2.907   6.761 -1.1931  1.2651  0.1236
 1949SOL    HW2 6442   0.614   2.890   6.630  1.5413  0.2241  1.7431
 1950SOL     OW 6443   6.171   2.420   3.811  0.3716  0.2932  0.2882
 1950SOL    HW1 6444   6.191   2.438   3.903 -2.5047  2.2517  0.6049
 1950SOL    HW2 6445   6.156   2.326   3.808  1.6236  0.0319  1.5969
 1951SOL     OW 6446   1.263   3.586   1.269 -0.1931  0.3723  0.5030
 1951SOL    HW1 6447   1.272   3.493   1.250 -2.1017  0.2605  0.0955
 1951SOL    HW2 6448   1.206   3.620   1.200 -1.5529  1.3380  2.0507
 1952SOL     OW 6449   6.083   1.211   5.018 -0.2641 -0.5084 -0.4592
 1952SOL    HW1 6450   6.118   1.300   5.020  1.8363 -1.3407  1.4762
 1952SOL    HW2 6451   6.160   1.155   5.015 -1.5666 -2.2997 -1.9440
 1953SOL     OW 6452   1.953   3.796   0.281  0.1827  0.6219  1.0055
 1953SOL    HW1 6453   2.037   3.751   0.291  0.3211  0.4058 -0.9689
 1953SOL    HW2 6454   1.901   3.765   0.355  2.2841  1.8168  3.0361
 1954SOL     OW 6455   5.820   2.521   2.823 -0.4811 -0.6690  0.2908
 1954SOL    HW1 6456   5.840   2.613   2.840  1.0064 -0.5804 -1.8147
 1954SOL    HW2 6457   5.868   2.473   2.890 -2.0385  0.0896  2.0119
 1955SOL     OW 6458   1.884   0.960   6.522  0.0582  0.3984 -0.3213
 1955SOL    HW1 6459   1.801   1.006   6.517 -0.7695 -0.9723  0.3538
 1955SOL    HW2 6460   1.860   0.867   6.521  1.6350 -0.0224 -1.0752
 1956SOL     OW 6461   5.132   0.032   6.648 -0.1537 -0.4022  0.1063
 1956SOL    HW1 6462   5.162  -0.011   6.728 -4.3421 -3.3618  0.2290
 1956SOL    HW2 6463   5.135   0.126   6.668 -1.2699 -1.0910  3.8148
 1957SOL     OW 6464   0.133   4.849   2.719  0.6184 -0.2139 -0.0233
 1957SOL    HW1 6465   0.141   4.921   2.656  1.4862 -0.4310 -0.1646
 1957SOL    HW2 6466   0.043   4.818   2.708  0.4533  0.4043 -0.4460
 1958SOL     OW 6467   0.131   3.490   2.279 -0.2407 -0.5982 -0.0769
 1958SOL    HW1 6468   0.083   3.476   2.361  0.2846  0.9418  0.5098
 1958SOL    HW2 6469   0.223   3.486   2.304 -0.0703 -0.7507 -0.7155
 1959SOL     OW 6470   0.624   4.021   1.289 -0.0662  0.1592  0.1819
 1959SOL    HW1 6471   0.580   4.105   1.301 -1.5516 -0.8339  1.8505
 1959SOL    HW2 6472   0.556   3.963   1.254  0.9222 -0.3821 -0.8718
 1960SOL     OW 6473   3.761   4.864   5.805 -0.1709 -0.0361 -0.0759
 1960SOL    HW1 6474   3.756   4.861   5.709 -0.0151  0.3847 -0.0978
 1960SOL    HW2 6475   3.833   4.925   5.823 -0.0084 -0.3414  0.3067
 1961SOL     OW 6476   4.711   1.840   6.312  0.0217 -0.1782 -0.4753
 1961SOL    HW1 6477   4.672   1.832   6.225 -0.2939 -1.5611 -0.2107
 1961SOL    HW2 6478   4.653   1.791   6.370  0.6716  0.0448  0.3868
 1962SOL     OW 6479   6.554   1.672   2.396  0.5842  0.1870  0.5631
 1962SOL    HW1 6480   6.629   1.715   2.436  1.0176 -0.3651  0.3560
 1962SOL    HW2 6481   6.532   1.600   2.455  0.2414  0.3222  0.6038
 1963SOL     OW 6482   1.887   2.420   0.898  0.0510  0.2189 -0.1706
 1963SOL    HW1 6483   1.935   2.402   0.817 -0.1948 -0.6944 -0.1224
 1963SOL    HW2 6484   1.885   2.515   0.904  0.8085  0.2830 -0.7997
 1964SOL     OW 6485   5.927   3.624   5.702  0.7415 -0.5933  0.3079
 1964SOL    HW1 6486   5.834   3.633   5.680  0.2995 -1.3208  1.8003
 1964SOL    HW2 6487   5.934   3.662   5.789  1.6401 -1.5514  0.6542
 1965SOL     OW 6488   6.120   2.808   2.744 -0.3442  0.0427 -0.7548
 1965SOL    HW1 6489   6.209   2.839   2.756 -0.7421  0.8801  0.1558
 1965SOL    HW2 6490   6.114   2.727   2.794 -0.6888  1.1097  0.9724
 1966SOL     OW 6491   3.919   5.776   5.392  0.0142  0.1802  0.2994
 1966SOL    HW1 6492   3.851   5.775   5.460 -1.3857 -0.3945 -1.0589
 1966SOL    HW2 6493   3.955   5.864   5.396  1.1434 -0.3369  2.8964
 1967SOL     OW 6494   2.491   1.965   6.988 -0.0159 -0.0212 -0.3820
 1967SOL    HW1 6495   2.580   1.949   7.020 -0.1908 -1.7156 -0.6699
 1967SOL    HW2 6496   2.496   2.051   6.946  1.1654  0.4722  0.7241
 1968SOL     OW 6497   1.513   0.903   1.341 -0.5678  0.6695 -0.3533
 1968SOL    HW1 6498   1.506   0.994   1.371  1.8227  1.7721 -2.9051
 1968SOL    HW2 6499   1.573   0.907   1.266  0.1198 -3.1238 -0.0964
 1969SOL     OW 6500   5.335   1.191   4.271 -1.1079  1.1176  0.2346
 1969SOL    HW1 6501   5.314   1.101   4.298 -0.7789  1.1306  0.5384
 1969SOL    HW2 6502   5.250   1.232   4.258 -1.2648  0.2154 -1.7372
 1970SOL     OW 6503   0.401   3.515   6.347 -0.2335 -0.2028 -0.1679
 1970SOL    HW1 6504   0.448   3.432   6.338 -0.3930 -0.1962 -1.2014
 1970SOL    HW2 6505   0.464   3.574   6.387  0.5414 -0.2850 -1.2424
 1971SOL     OW 6506   2.588   3.333   3.465 -0.0397  0.6218  0.1732
 1971SOL    HW1 6507   2.528   3.389   3.416 -0.9112  0.6837  1.2719
 1971SOL    HW2 6508   2.554   3.244   3.451 -0.4517  0.6640  0.8548
 1972SOL     OW 6509   2.606   1.201   4.276  0.9733  0.0876  0.1512
 1972SOL    HW1 6510   2.643   1.131   4.223 -0.4230 -0.4647 -0.1327
 1972SOL    HW2 6511   2.596   1.275   4.216  0.1532 -0.2750 -0.1670
 1973SOL     OW 6512   0.957   5.473   7.099  0.3189  0.7573 -0.3380
 1973SOL    HW1 6513   0.936   5.520   7.019 -0.7170  0.1652 -0.4170
 1973SOL    HW2 6514   1.009   5.534   7.150 -0.5680  1.7959 -0.6697
 1974SOL     OW 6515   4.876   3.430   0.559 -0.0503  0.3830  0.3567
 1974SOL    HW1 6516   4.951   3.452   0.615  0.1041  1.2899 -0.2069
 1974SOL    HW2 6517   4.840   3.350   0.599  1.0704  0.0692  0.7700
 1975SOL     OW 6518   2.178   0.806   7.032 -0.7108  0.0907  0.0323
 1975SOL    HW1 6519   2.172   0.800   6.937 -0.4083  0.0286  0.0163
 1975SOL    HW2 6520   2.267   0.777   7.052 -0.7418  0.1987  0.3259
 1976SOL     OW 6521   0.573   3.000   4.816  0.5908  0.3067 -0.1579
 1976SOL    HW1 6522   0.522   3.074   4.848  1.5265  0.2205  1.5512
 1976SOL    HW2 6523   0.660   3.036   4.799  1.1797 -0.5034  1.1265
 1977SOL     OW 6524   6.387   4.376   6.622  0.6291 -0.2880  0.6703
 1977SOL    HW1 6525   6.351   4.465   6.630 -1.3463 -1.1000  1.1861
 1977SOL    HW2 6526   6.425   4.358   6.708  1.3565  0.1942  0.4512
 1978SOL     OW 6527   4.324   4.730   4.128 -0.1671  0.8464  0.1208
 1978SOL    HW1 6528   4.340   4.722   4.034 -0.7783 -0.6653  0.1244
 1978SOL    HW2 6529   4.397   4.683   4.168 -1.0060 -0.2850  0.3334
 1979SOL     OW 6530   1.885   2.549   1.542  0.4715  0.1648 -0.6473
 1979SOL    HW1 6531   1.836   2.623   1.507 -0.7601  0.1368  0.9888
 1979SOL    HW2 6532   1.858   2.475   1.486 -1.6405  0.0824  0.3992
 1980SOL     OW 6533   1.274   2.782   7.031 -0.4897  0.6319 -0.7141
 1980SOL    HW1 6534   1.234   2.757   6.948  1.0966 -0.2482 -1.2426
 1980SOL    HW2 6535   1.274   2.701   7.083  1.6809  0.3024 -1.1873
 1981SOL     OW 6536   6.966   6.437   6.422  0.4027  0.3374  0.1377
 1981SOL    HW1 6537   6.907   6.475   6.357  0.0649  0.0970  0.2963
 1981SOL    HW2 6538   6.957   6.494   6.498 -1.7578 -1.2552  1.1304
 1982SOL     OW 6539   0.501   4.193   1.781 -0.2155  0.1414  0.4499
 1982SOL    HW1 6540   0.550   4.112   1.766 -1.5181 -0.5721 -0.0101
 1982SOL    HW2 6541   0.545   4.233   1.856  0.9724 -0.5579  0.1492
 1983SOL     OW 6542   2.896   7.209   4.694 -0.2091 -0.2254 -0.6637
 1983SOL    HW1 6543   2.920   7.152   4.768 -0.5365 -0.0379 -0.4142
 1983SOL    HW2 6544   2.832   7.269   4.730 -1.1486 -0.7976 -1.3629
 1984SOL     OW 6545   0.890   4.252   1.921 -0.1568 -0.0813  0.2463
 1984SOL    HW1 6546   0.823   4.221   1.982  1.0122  1.3425  2.3098
 1984SOL    HW2 6547   0.917   4.173   1.874 -1.2426 -1.1773  1.4102
 1985SOL     OW 6548   4.900   6.306   1.295 -0.3473 -0.2432  0.1124
 1985SOL    HW1 6549   4.817   6.346   1.270 -0.1880 -0.7596 -1.2549
 1985SOL    HW2 6550   4.967   6.362   1.257 -0.0619  0.0929  1.0912
 1986SOL     OW 6551   4.519   5.702   6.608  0.0394  0.4867 -0.1390
 1986SOL    HW1 6552   4.601   5.707   6.657  0.5923 -1.0560 -0.8741
 1986SOL    HW2 6553   4.516   5.612   6.576 -1.0672  1.0493 -1.6573
 1987SOL     OW 6554   3.975   2.994   0.787 -0.9413  0.4955  0.6197
 1987SOL    HW1 6555   3.897   3.036   0.750 -0.7853  0.2133 -0.0308
 1987SOL    HW2 6556   4.032   3.067   0.810 -0.4666  0.6407 -0.9587
 1988SOL     OW 6557   1.560   2.157   6.037  0.4599  0.1681 -0.0093
 1988SOL    HW1 6558   1.518   2.242   6.052  0.8678  0.3090  0.3361
 1988SOL    HW2 6559   1.633   2.155   6.098  1.0101 -0.0414 -0.6694
 1989SOL     OW 6560   5.435   7.108   4.630 -0.0626 -0.1613  0.5283
 1989SOL    HW1 6561   5.471   7.187   4.590  2.2448 -1.1812  0.5040
 1989SOL    HW2 6562   5.494   7.089   4.703 -0.2431 -2.2093  0.1620
 1990SOL     OW 6563   5.204   0.952   2.260 -0.3177 -0.4526  0.3568
 1990SOL    HW1 6564   5.294   0.925   2.246 -0.1744  0.1238  0.1443
 1990SOL    HW2 6565   5.155   0.916   2.186  0.3289  2.0944 -1.3793
 1991SOL     OW 6566   3.608   1.338   3.474 -0.0231  0.1850 -0.0752
 1991SOL    HW1 6567   3.652   1.421   3.454 -1.5565  1.2544  0.8548
 1991SOL    HW2 6568   3.521   1.348   3.436 -0.9621 -0.1046  1.9525
 1992SOL     OW 6569   4.996   6.724   2.429 -1.1993  0.2328 -0.0377
 1992SOL    HW1 6570   4.908   6.692   2.405 -0.6406 -0.1681 -1.6158
 1992SOL    HW2 6571   5.034   6.753   2.346 -0.3022  1.5736  0.8315
 1993SOL     OW 6572   5.586   6.468   5.405  0.1964  0.2089  0.0398
 1993SOL    HW1 6573   5.657   6.499   5.349 -1.2516  1.1606 -1.3153
 1993SOL    HW2 6574   5.592   6.372   5.401  0.8833  0.2755 -0.7341
 1994SOL     OW 6575   0.126   6.976   4.141 -0.1499 -0.5549 -0.1815
 1994SOL    HW1 6576   0.209   7.016   4.164 -0.3629 -0.5898  0.6648
 1994SOL    HW2 6577   0.148   6.907   4.079  0.3078  0.3286 -1.0070
 1995SOL     OW 6578   5.515   0.266   5.897  0.2346 -0.3628 -0.1534
 1995SOL    HW1 6579   5.566   0.330   5.847 -0.3804 -0.0141 -0.3370
 1995SOL    HW2 6580   5.490   0.200   5.832  1.8370 -1.4042  0.2540
 1996SOL     OW 6581   2.959   5.557   2.848  0.2713 -0.4039 -0.8560
 1996SOL    HW1 6582   3.001   5.617   2.787  0.7865 -0.1024 -0.2140
 1996SOL    HW2 6583   3.011   5.477   2.843  1.3827  0.2126  0.4748
 1997SOL     OW 6584   1.140   5.482   2.842 -0.7603  0.3062  0.1076
 1997SOL    HW1 6585   1.149   5.435   2.759  1.5791 -3.3196  2.2504
 1997SOL    HW2 6586   1.154   5.574   2.819 -1.1212 -0.4838 -3.6222
 1998SOL     OW 6587   5.754   1.854   5.811 -0.0584  0.2562 -0.3858
 1998SOL    HW1 6588   5.675   1.830   5.860  1.0022 -2.0073  0.2805
 1998SOL    HW2 6589   5.732   1.838   5.720 -0.9839  1.4075 -0.3660
 1999SOL     OW 6590   2.124   5.111   6.135 -0.3451 -0.2042  0.1079
 1999SOL    HW1 6591   2.061   5.175   6.170 -0.8960 -0.4270 -0.4873
 1999SOL    HW2 6592   2.132   5.045   6.204  0.3923  0.6133  0.8230
 2000SOL     OW 6593   6.618   2.358   0.883  0.4139 -0.0273 -0.0984
 2000SOL    HW1 6594   6.557   2.327   0.950 -0.8364 -1.0305 -1.6501
 2000SOL    HW2 6595   6.680   2.413   0.930 -0.1634 -1.0916  1.9502
 2001SOL     OW 6596   4.227   3.178   5.231  0.0546  0.1503  0.1911
 2001SOL    HW1 6597   4.232   3.146   5.321 -1.2121  1.1762  0.6429
 2001SOL    HW2 6598   4.308   3.147   5.190  0.9386  0.2130  1.8533
 2002SOL     OW 6599   1.761   3.088   0.613 -1.1342 -0.1833 -0.0255
 2002SOL    HW1 6600   1.753   3.144   0.689  3.7281  1.4594 -0.5511
 2002SOL    HW2 6601   1.782   3.001   0.649 -0.9910  0.0941  0.5580
 2003SOL     OW 6602   1.434   2.391   1.002 -0.3351 -0.0349 -0.1313
 2003SOL    HW1 6603   1.461   2.472   1.046 -1.5751 -0.7126  1.9787
 2003SOL    HW2 6604   1.452   2.406   0.910  0.8878  2.0624  0.4244
 2004SOL     OW 6605   2.258   0.024   4.539 -0.3614 -0.6073 -0.0797
 2004SOL    HW1 6606   2.312  -0.054   4.553 -0.6582 -1.1832 -2.0513
 2004SOL    HW2 6607   2.172  -0.000   4.574  0.0201 -0.4960  0.9721
 2005SOL     OW 6608   3.552   3.567   3.781 -0.1340 -0.0781  0.2725
 2005SOL    HW1 6609   3.497   3.639   3.809  0.9484  0.8540  0.0238
 2005SOL    HW2 6610   3.596   3.537   3.861 -1.1129 -0.9351  0.5021
 2006SOL     OW 6611   5.892   3.458   2.521 -0.6758 -0.5692 -0.3436
 2006SOL    HW1 6612   5.933   3.392   2.577  0.8647 -0.7585 -1.6334
 2006SOL    HW2 6613   5.812   3.416   2.489 -0.4697 -1.2545  0.0260
 2007SOL     OW 6614   4.101   6.794   4.818 -0.3475  0.4887  0.1642
 2007SOL    HW1 6615   4.044   6.736   4.769  0.7497 -0.1405 -0.3730
 2007SOL    HW2 6616   4.176   6.740   4.843 -0.1916  1.1816  1.2575
 2008SOL     OW 6617   5.341   2.686   2.065 -0.0332  0.3160  0.5005
 2008SOL    HW1 6618   5.337   2.782   2.068 -1.9126  0.2457  0.9619
 2008SOL    HW2 6619   5.295   2.663   1.985  2.8452 -0.1236 -1.0979
 2009SOL     OW 6620   6.480   5.162   5.326  0.7247  0.1390  0.0810
 2009SOL    HW1 6621   6.489   5.107   5.248  1.4141  0.7469 -0.2627
 2009SOL    HW2 6622   6.386   5.160   5.346  0.6941 -0.8485 -0.1576
 2010SOL     OW 6623   3.319   5.020   5.061  0.1751  0.2963 -0.0486
 2010SOL    HW1 6624   3.261   5.004   4.987 -2.2581  2.6455  1.2817
 2010SOL    HW2 6625   3.370   5.097   5.035  0.1390  0.4303  0.2822
 2011SOL     OW 6626   2.974   6.921   2.980 -0.8404  0.0163 -0.1094
 2011SOL    HW1 6627   2.903   6.929   3.043 -1.0661 -0.9420 -0.2277
 2011SOL    HW2 6628   2.958   6.990   2.916 -1.6217 -0.1417 -0.0876
 2012SOL     OW 6629   3.631   2.451   6.749 -0.4640  0.0525 -0.5278
 2012SOL    HW1 6630   3.656   2.427   6.660  0.6256 -1.2953  0.1166
 2012SOL    HW2 6631   3.543   2.486   6.741 -0.2907  0.1426 -2.1664
 2013SOL     OW 6632   3.936   6.887   1.388  0.5460 -0.6244 -0.6546
 2013SOL    HW1 6633   3.958   6.794   1.388 -0.1107 -0.8596  2.3507
 2013SOL    HW2 6634   4.018   6.931   1.369  1.3966 -1.7904  0.1928
 2014SOL     OW 6635   2.555   6.504   4.074 -0.1354  0.5455  0.3334
 2014SOL    HW1 6636   2.473   6.526   4.117 -0.2593 -1.7153  1.3427
 2014SOL    HW2 6637   2.529   6.480   3.985 -0.4365  0.8739  0.3322
 2015SOL     OW 6638   1.612   1.541   5.788 -0.2757 -0.0326 -0.1612
 2015SOL    HW1 6639   1.533   1.488   5.780 -0.7562  0.0931  3.0417
 2015SOL    HW2 6640   1.580   1.628   5.810  0.6489  0.9150 -2.3687
 2016SOL     OW 6641   6.822   6.714   0.034  0.3049  0.7914  0.2242
 2016SOL    HW1 6642   6.811   6.754   0.120 -1.6976  0.8107 -0.0298
 2016SOL    HW2 6643   6.860   6.628   0.053  1.5539  1.4799  0.9836
 2017SOL     OW 6644   6.245   1.084   5.877 -0.0927  0.0258  0.0682
 2017SOL    HW1 6645   6.264   1.165   5.924 -1.8066  0.3157  0.2708
 2017SOL    HW2 6646   6.327   1.063   5.833  0.2292  2.1394 -0.4019
 2018SOL     OW 6647   6.271   0.593   1.346 -0.2251  0.3557  0.3275
 2018SOL    HW1 6648   6.189   0.551   1.322 -0.9555  1.5784  0.6368
 2018SOL    HW2 6649   6.245   0.677   1.384  1.0773  0.0771  1.9014
 2019SOL     OW 6650   0.501   0.637   2.079 -0.2947 -0.1120  0.7395
 2019SOL    HW1 6651   0.579   0.671   2.037 -1.0144  0.5682 -0.0576
 2019SOL    HW2 6652   0.430   0.693   2.048 -1.2200 -1.2107  0.8354
 2020SOL     OW 6653   0.932   3.232   6.329 -0.1990  0.1720 -0.5570
 2020SOL    HW1 6654   0.977   3.148   6.337  2.3925  1.6751  1.5266
 2020SOL    HW2 6655   0.904   3.236   6.238 -0.9146 -3.1750 -0.5524
 2021SOL     OW 6656   0.165   2.368   5.218 -0.3350  0.0002  0.2485
 2021SOL    HW1 6657   0.190   2.446   5.266  1.4203  0.4043 -1.2612
 2021SOL    HW2 6658   0.168   2.394   5.126  2.0777 -2.2783 -0.3906
 2022SOL     OW 6659   5.094   2.289   6.873 -0.2534  0.2941 -0.3761
 2022SOL    HW1 6660   5.130   2.370   6.838 -1.4816  1.2917  0.6547
 2022SOL    HW2 6661   5.004   2.311   6.898 -0.6073 -1.3825 -0.1014
 2023SOL     OW 6662   3.553   0.631   6.379  0.2309 -0.0468  0.0066
 2023SOL    HW1 6663   3.567   0.657   6.288  1.4669 -1.1590 -0.1286
 2023SOL    HW2 6664   3.515   0.544   6.373 -1.8383  0.7841  0.5170
 2024SOL     OW 6665   2.446   5.032   5.559  0.3287 -0.0911 -0.1496
 2024SOL    HW1 6666   2.478   5.054   5.472  1.7056  1.7149  0.7694
 2024SOL    HW2 6667   2.363   4.987   5.544  1.8143 -2.1444 -2.4655
 2025SOL     OW 6668   1.870   0.205   1.548 -0.1489 -0.1398  0.2483
 2025SOL    HW1 6669   1.899   0.258   1.623  0.9275 -0.1270 -0.1695
 2025SOL    HW2 6670   1.864   0.116   1.582  0.6351 -0.1835  0.2809
 2026SOL     OW 6671   1.722   6.084   1.151 -0.6456 -0.0544  0.1260
 2026SOL    HW1 6672   1.733   6.178   1.167 -2.1696  0.2658 -0.6058
 2026SOL    HW2 6673   1.693   6.049   1.235  1.9609 -0.2594  0.9941
 2027SOL     OW 6674   4.497   0.254   3.181 -0.0340  0.1853  0.5264
 2027SOL    HW1 6675   4.437   0.327   3.194  1.1275  1.8135 -2.5748
 2027SOL    HW2 6676   4.512   0.218   3.268 -1.6801  2.8091  1.9408
 2028SOL     OW 6677   1.099   0.787   0.429 -0.0143 -0.0069 -0.0141
 2028SOL    HW1 6678   1.130   0.778   0.338  0.4956 -0.1879  0.1771
 2028SOL    HW2 6679   1.131   0.873   0.456 -2.4134  1.2068 -0.8766
 2029SOL     OW 6680   1.356   2.605   4.337  0.0568  0.1200 -0.3003
 2029SOL    HW1 6681   1.388   2.653   4.413 -0.6254 -1.2805  0.9007
 2029SOL    HW2 6682   1.417   2.532   4.327 -0.6662 -0.5049 -0.2184
 2030SOL     OW 6683   2.118   4.356   0.762  0.1311  0.0260 -0.2807
 2030SOL    HW1 6684   2.166   4.373   0.844 -1.7345  0.8434  0.6734
 2030SOL    HW2 6685   2.091   4.265   0.769  1.0422 -0.2678 -0.5541
 2031SOL     OW 6686   0.804   2.511   3.374  0.0001  0.0643 -0.4950
 2031SOL    HW1 6687   0.827   2.418   3.374 -0.6886 -0.1075 -0.2776
 2031SOL    HW2 6688   0.708   2.512   3.374  0.0056  0.7740 -0.2710
 2032SOL     OW 6689   5.909   2.436   6.466 -0.1052  0.0901 -0.1794
 2032SOL    HW1 6690   5.940   2.375   6.533 -1.4837 -0.7776 -0.3095
 2032SOL    HW2 6691   5.832   2.477   6.504  0.9011  1.9167 -0.0291
 2033SOL     OW 6692   6.386   3.189   6.513  0.1653  0.1218  0.0809
 2033SOL    HW1 6693   6.391   3.178   6.418 -1.5848 -0.3993  0.0417
 2033SOL    HW2 6694   6.477   3.204   6.540  0.6780  0.2353 -1.6633
 2034SOL     OW 6695   0.384   0.491   2.409  0.0322  0.0409 -0.6255
 2034SOL    HW1 6696   0.292   0.501   2.385 -0.3439 -0.5313  0.5369
 2034SOL    HW2 6697   0.399   0.556   2.477  0.7342  0.7356 -1.4235
 2035SOL     OW 6698   5.499   0.938   2.570 -0.4447  0.4907 -0.2438
 2035SOL    HW1 6699   5.414   0.897   2.588 -0.3505  0.1594 -0.5479
 2035SOL    HW2 6700   5.544   0.877   2.511 -0.2522  0.9748 -0.6087
 2036SOL     OW 6701   5.136   6.285   1.617 -0.2826  0.1219  0.5893
 2036SOL    HW1 6702   5.094   6.221   1.559  0.4602 -0.0355  0.2213
 2036SOL    HW2 6703   5.156   6.360   1.561 -1.4192  0.8077  1.0843
 2037SOL     OW 6704   3.438   2.372   1.226  0.5386  0.5042  1.0349
 2037SOL    HW1 6705   3.487   2.451   1.250 -0.7733  1.0310  2.0390
 2037SOL    HW2 6706   3.467   2.305   1.288  1.8525  0.1025  0.0122
 2038SOL     OW 6707   0.108   5.906   4.867 -0.1672  0.0322 -0.2807
 2038SOL    HW1 6708   0.098   6.001   4.876  1.5076  0.2021 -0.0563
 2038SOL    HW2 6709   0.046   5.882   4.798 -2.0992  0.9604  1.0881
 2039SOL     OW 6710   0.180   1.409   2.201  0.1153 -0.3815 -0.4125
 2039SOL    HW1 6711   0.179   1.314   2.189 -1.2302 -0.3440 -0.7009
 2039SOL    HW2 6712   0.148   1.422   2.290  1.1792 -0.2360 -0.0481
 2040SOL     OW 6713   0.740   3.283   6.768 -0.5244  0.3848  0.0879
 2040SOL    HW1 6714   0.752   3.374   6.796 -1.3932  0.5286 -0.0072
 2040SOL    HW2 6715   0.713   3.237   6.847  2.5427 -0.3635  0.7963
 2041SOL     OW 6716   4.788   3.603   6.729  0.1631  0.0036 -0.6964
 2041SOL    HW1 6717   4.733   3.629   6.803  0.8614 -0.6965  0.0746
 2041SOL    HW2 6718   4.731   3.550   6.674  0.4956 -2.0593  0.9018
 2042SOL     OW 6719   4.281   0.541   2.431 -0.2434  0.2749 -0.6048
 2042SOL    HW1 6720   4.305   0.519   2.521 -1.7498  1.8195  0.2109
 2042SOL    HW2 6721   4.304   0.633   2.422 -1.3060  0.4739 -1.3679
 2043SOL     OW 6722   4.622   1.155   4.771  0.0142 -0.4942 -0.0827
 2043SOL    HW1 6723   4.589   1.244   4.755 -0.8054 -0.8493 -0.4130
 2043SOL    HW2 6724   4.717   1.162   4.758  0.0603  0.5166  0.7467
 2044SOL     OW 6725   7.216   4.690   0.683 -0.5197  0.9902 -0.2874
 2044SOL    HW1 6726   7.305   4.707   0.714 -0.5053  1.2631 -0.4737
 2044SOL    HW2 6727   7.227   4.653   0.595 -0.5697  0.4528 -0.0727
 2045SOL     OW 6728   2.586   4.466   3.944  0.8308  1.0483  0.3993
 2045SOL    HW1 6729   2.624   4.383   3.914 -1.5505  0.0043  0.1343
 2045SOL    HW2 6730   2.570   4.516   3.864 -0.8440  0.3339  0.2493
 2046SOL     OW 6731   7.187   6.880   4.741  0.3070  0.7021 -0.0995
 2046SOL    HW1 6732   7.117   6.937   4.709  0.6376  0.6325 -0.9786
 2046SOL    HW2 6733   7.267   6.918   4.704  0.4401 -0.8519 -1.4708
 2047SOL     OW 6734   2.724   7.113   0.894 -0.1199  0.1477 -0.1239
 2047SOL    HW1 6735   2.765   7.107   0.980 -1.2745 -0.7596  0.3858
 2047SOL    HW2 6736   2.682   7.028   0.882  0.1765  0.2033 -1.6617
 2048SOL     OW 6737   6.870   2.093   0.462  0.8560 -0.8078  0.3900
 2048SOL    HW1 6738   6.898   2.126   0.547 -0.8959 -0.1574  0.7297
 2048SOL    HW2 6739   6.837   2.171   0.416 -1.2038 -1.6894  0.3392
 2049SOL     OW 6740   4.858   3.900   0.439  0.2812 -0.0187 -0.6120
 2049SOL    HW1 6741   4.941   3.858   0.461 -1.1491 -1.8588  1.5363
 2049SOL    HW2 6742   4.792   3.832   0.454 -1.7278  1.8015 -0.9428
 2050SOL     OW 6743   5.977   5.334   2.510  0.0668  0.1655  0.0689
 2050SOL    HW1 6744   5.955   5.414   2.557  2.7379  1.5639 -0.9315
 2050SOL    HW2 6745   6.055   5.301   2.554  0.0218 -0.8867 -0.6330
 2051SOL     OW 6746   0.108   5.431   2.062 -0.3937  0.9788 -0.2827
 2051SOL    HW1 6747   0.054   5.359   2.030  0.6621  0.3903 -0.7630
 2051SOL    HW2 6748   0.187   5.390   2.094 -0.4152  1.8030  0.8470
 2052SOL     OW 6749   6.884   4.526   0.583 -0.1605 -0.1765  0.0012
 2052SOL    HW1 6750   6.938   4.531   0.662 -0.3538 -0.5897  0.1599
 2052SOL    HW2 6751   6.797   4.504   0.614  0.3971 -3.4894 -0.5481
 2053SOL     OW 6752   6.073   2.449   4.475  0.1373  0.7987  0.0159
 2053SOL    HW1 6753   6.094   2.539   4.499 -0.9335  1.2492 -0.7505
 2053SOL    HW2 6754   6.143   2.397   4.516  0.2964  1.8857  1.1448
 2054SOL     OW 6755   6.085   3.265   2.992  0.2102 -0.5270  0.0443
 2054SOL    HW1 6756   5.995   3.265   2.958  1.0350  0.3100 -2.2550
 2054SOL    HW2 6757   6.140   3.265   2.913  2.2306 -1.0347  1.4188
 2055SOL     OW 6758   3.993   1.261   2.077 -0.0223  0.0593 -0.2739
 2055SOL    HW1 6759   4.064   1.286   2.136 -0.2996  1.7344 -0.6230
 2055SOL    HW2 6760   4.028   1.277   1.989 -0.5717  0.1717 -0.4712
 2056SOL     OW 6761   6.010   5.842   2.323 -0.3253  0.6211  0.2643
 2056SOL    HW1 6762   5.967   5.813   2.403  0.3984 -1.3003 -0.0246
 2056SOL    HW2 6763   5.944   5.833   2.255  0.0587 -0.8786  0.0843
 2057SOL     OW 6764   1.371   4.054   6.948  0.5462 -0.4149  0.4779
 2057SOL    HW1 6765   1.453   4.027   6.990 -0.7445 -0.7216  2.8970
 2057SOL    HW2 6766   1.392   4.136   6.904  2.1798 -0.5524  0.9786
 2058SOL     OW 6767   1.545   2.068   5.145  0.0113 -0.1824  0.4939
 2058SOL    HW1 6768   1.623   2.123   5.136  0.2900 -0.5033  0.9384
 2058SOL    HW2 6769   1.567   1.987   5.100 -0.3935  0.0586 -0.1461
 2059SOL     OW 6770   5.743   2.822   4.183  0.2020 -0.0770  0.4378
 2059SOL    HW1 6771   5.789   2.755   4.233  0.7351 -0.9838 -1.2072
 2059SOL    HW2 6772   5.723   2.779   4.099  1.2837  2.0668 -0.9583
 2060SOL     OW 6773   4.570   3.373   6.738 -0.2429  0.2019  0.5708
 2060SOL    HW1 6774   4.604   3.385   6.650  0.5443  0.5306  0.9073
 2060SOL    HW2 6775   4.478   3.399   6.733 -0.1554  0.3838 -0.1077
 2061SOL     OW 6776   6.167   5.227   0.463  0.4941 -0.3221 -0.1975
 2061SOL    HW1 6777   6.190   5.213   0.372 -0.8882 -1.5304 -0.3879
 2061SOL    HW2 6778   6.135   5.142   0.493 -1.3116  0.6433  0.7103
 2062SOL     OW 6779   6.479   4.369   5.665 -0.1783 -0.3408 -0.5453
 2062SOL    HW1 6780   6.546   4.404   5.607  0.0758 -1.2604 -0.8175
 2062SOL    HW2 6781   6.399   4.369   5.613 -0.5951  1.5326  0.0431
 2063SOL     OW 6782   3.104   1.887   5.573 -0.4774 -0.1268 -0.6489
 2063SOL    HW1 6783   3.021   1.846   5.598 -0.6464  0.9209  0.5989
 2063SOL    HW2 6784   3.168   1.849   5.633 -0.5641  1.1185  0.2449
 2064SOL     OW 6785   6.029   6.102   2.109 -0.2341  0.4053  0.8025
 2064SOL    HW1 6786   6.089   6.053   2.165  0.3117 -0.7708 -0.7488
 2064SOL    HW2 6787   6.081   6.175   2.076 -0.4005  0.7965  1.3944
 2065SOL     OW 6788   0.276   5.861   2.369  0.4844 -0.3734  0.2670
 2065SOL    HW1 6789   0.350   5.900   2.415  0.9386 -0.3251 -0.5076
 2065SOL    HW2 6790   0.230   5.935   2.330  1.0381 -0.5540 -0.7452
 2066SOL     OW 6791   1.880   0.307   2.768  0.5850  0.7838  0.1239
 2066SOL    HW1 6792   1.907   0.217   2.787  0.4534  0.7737  0.2584
 2066SOL    HW2 6793   1.902   0.356   2.847 -2.2817  0.2675  1.3021
 2067SOL     OW 6794   0.371   0.650   6.178 -0.1280 -0.3836  0.1396
 2067SOL    HW1 6795   0.406   0.632   6.091  0.6652 -1.6194  0.7013
 2067SOL    HW2 6796   0.283   0.613   6.176 -0.3691  0.2015 -0.3506
 2068SOL     OW 6797   4.633   4.675   6.445  0.2302 -0.4749  0.1199
 2068SOL    HW1 6798   4.668   4.704   6.529  0.6785 -2.0775  0.5015
 2068SOL    HW2 6799   4.696   4.707   6.380 -0.7735  1.8830  0.2378
 2069SOL     OW 6800   2.349   3.242   6.570 -0.2244 -0.1447  0.3824
 2069SOL    HW1 6801   2.275   3.261   6.627  1.5822  1.5826  2.2052
 2069SOL    HW2 6802   2.382   3.328   6.543 -0.6576 -0.9116 -2.8190
 2070SOL     OW 6803   0.924   3.025   2.409 -0.2001  0.2067  0.6653
 2070SOL    HW1 6804   0.985   3.029   2.336  1.1149 -1.5227  1.6221
 2070SOL    HW2 6805   0.948   3.098   2.465  0.5664 -0.0651  0.6977
 2071SOL     OW 6806   0.595   0.925   5.901  0.3301  0.1687  0.2890
 2071SOL    HW1 6807   0.614   1.016   5.921 -1.3822  0.7253 -0.5951
 2071SOL    HW2 6808   0.523   0.902   5.961 -1.2828  0.3070 -1.5464
 2072SOL     OW 6809   0.741   4.921   1.282 -0.1137  0.1261 -0.5520
 2072SOL    HW1 6810   0.744   4.853   1.215  0.3660  1.7935 -2.2665
 2072SOL    HW2 6811   0.694   4.993   1.240  0.1757  1.1885  0.9270
 2073SOL     OW 6812   0.381   3.118   4.024 -0.6480  0.2447  0.7665
 2073SOL    HW1 6813   0.473   3.097   4.004 -0.9437  0.6346 -1.1031
 2073SOL    HW2 6814   0.335   3.035   4.014 -0.5035  0.0385  1.7532
 2074SOL     OW 6815   3.706   0.547   5.765 -0.3133 -0.2066 -0.3308
 2074SOL    HW1 6816   3.619   0.533   5.728 -0.4216  0.2482 -0.2528
 2074SOL    HW2 6817   3.713   0.484   5.837 -1.2083  0.8654  0.7195
 2075SOL     OW 6818   4.228   5.188   3.388  0.1675  0.0758 -0.0082
 2075SOL    HW1 6819   4.307   5.161   3.342 -0.9066 -0.7201 -1.4349
 2075SOL    HW2 6820   4.248   5.173   3.481  1.3380 -1.0479 -0.4267
 2076SOL     OW 6821   1.651   2.884   6.518  0.1165  0.2247  0.3302
 2076SOL    HW1 6822   1.667   2.834   6.598  1.4084 -1.7072 -1.0900
 2076SOL    HW2 6823   1.736   2.888   6.474 -0.5856  1.1577 -1.0030
 2077SOL     OW 6824   2.525   6.242   4.799 -0.4991  0.0998  0.9275
 2077SOL    HW1 6825   2.593   6.185   4.762 -0.1535  0.9074  0.2902
 2077SOL    HW2 6826   2.443   6.199   4.776 -0.1981 -2.0955  3.6768
 2078SOL     OW 6827   3.320   5.748   6.423 -0.2497 -0.5201  0.1746
 2078SOL    HW1 6828   3.228   5.745   6.450 -0.2081 -0.4728  0.3232
 2078SOL    HW2 6829   3.317   5.763   6.329 -0.3859  0.5594  0.3399
 2079SOL     OW 6830   6.230   1.733   6.278 -0.2992 -0.0469  0.3475
 2079SOL    HW1 6831   6.169   1.698   6.343  0.8498 -1.7987  0.5061
 2079SOL    HW2 6832   6.310   1.682   6.290  1.2919  2.3392  0.2641
 2080SOL     OW 6833   3.331   1.531   5.876  0.0077  0.7665 -0.4145
 2080SOL    HW1 6834   3.258   1.470   5.864  0.4936 -0.3800  2.2695
 2080SOL    HW2 6835   3.298   1.596   5.938  1.9247 -0.9933  2.5753
 2081SOL     OW 6836   4.184   1.697   2.870  0.3334  0.2144  0.0412
 2081SOL    HW1 6837   4.267   1.665   2.906  0.9752  2.4324  0.6305
 2081SOL    HW2 6838   4.134   1.726   2.946 -0.7852 -0.6298 -0.3574
 2082SOL     OW 6839   1.062   1.501   3.153 -0.1479 -0.1913 -0.2237
 2082SOL    HW1 6840   1.111   1.580   3.178  1.5561 -1.4088  0.3790
 2082SOL    HW2 6841   1.019   1.524   3.071 -0.6990  1.7834  0.5820
 2083SOL     OW 6842   1.212   5.795   6.257  0.0561 -0.3829  0.5501
 2083SOL    HW1 6843   1.269   5.785   6.333  2.0815 -1.3891 -1.0269
 2083SOL    HW2 6844   1.129   5.757   6.284  0.2521  0.6707  2.7623
 2084SOL     OW 6845   4.903   1.849   4.665  0.0209 -1.3556 -0.2135
 2084SOL    HW1 6846   4.887   1.878   4.755 -0.0166 -1.6850 -0.1135
 2084SOL    HW2 6847   4.896   1.929   4.613  2.0213 -0.7741  0.3183
 2085SOL     OW 6848   3.742   4.938   0.869  0.2992 -0.0615 -0.0395
 2085SOL    HW1 6849   3.805   4.867   0.855  2.5928  1.7778  0.5319
 2085SOL    HW2 6850   3.711   4.961   0.781  2.7281  0.9763 -0.6631
 2086SOL     OW 6851   5.430   6.816   0.479 -1.2828 -0.2689  0.0370
 2086SOL    HW1 6852   5.466   6.730   0.500 -3.7856 -0.9390  1.8282
 2086SOL    HW2 6853   5.504   6.876   0.490  0.4570 -2.1553 -1.1308
 2087SOL     OW 6854   1.194   3.513   4.650 -0.1547  0.0603 -0.1985
 2087SOL    HW1 6855   1.165   3.428   4.685 -1.8508  0.4999 -0.5035
 2087SOL    HW2 6856   1.161   3.577   4.713  1.3295  0.4806  0.1565
 2088SOL     OW 6857   0.273   4.236   1.073 -0.1028  0.1389  0.4185
 2088SOL    HW1 6858   0.301   4.326   1.055  0.5819  0.0715  1.0943
 2088SOL    HW2 6859   0.319   4.213   1.154  2.6038 -2.0729 -1.6193
 2089SOL     OW 6860   2.887   7.091   3.280  0.4647  0.1017  0.0256
 2089SOL    HW1 6861   2.869   7.130   3.194  1.0082  0.8413  0.2397
 2089SOL    HW2 6862   2.890   7.165   3.340 -2.7521 -0.6523  1.2188
 2090SOL     OW 6863   6.307   3.652   4.882 -0.2655  0.3535 -0.3441
 2090SOL    HW1 6864   6.363   3.625   4.956  1.9534  0.9878 -1.7435
 2090SOL    HW2 6865   6.230   3.596   4.889  0.4144 -0.3669  1.8096
 2091SOL     OW 6866   0.036   3.100   5.146 -0.4155 -0.6275  0.3615
 2091SOL    HW1 6867   0.008   3.009   5.151 -0.2284 -0.9825 -3.4818
 2091SOL    HW2 6868  -0.041   3.148   5.115  0.4012 -0.0653 -0.8752
 2092SOL     OW 6869   4.778   6.894   6.417  0.7541 -0.1563  0.2108
 2092SOL    HW1 6870   4.766   6.888   6.322  0.4538  0.3729  0.2092
 2092SOL    HW2 6871   4.804   6.985   6.432  2.0125 -0.5671  0.5103
 2093SOL     OW 6872   2.752   3.028   5.573 -0.3517  0.4316  0.2670
 2093SOL    HW1 6873   2.684   2.972   5.536  0.1028 -0.0611  0.1716
 2093SOL    HW2 6874   2.831   3.003   5.526  0.1678  0.0423  1.3418
 2094SOL     OW 6875   3.309   3.684   6.505  0.1766 -0.1987 -0.8404
 2094SOL    HW1 6876   3.388   3.635   6.526 -0.0601 -0.6342 -0.9578
 2094SOL    HW2 6877   3.275   3.711   6.590  1.6792  1.9564 -0.9001
 2095SOL     OW 6878   6.545   5.814   0.652 -0.2828  0.0397 -0.3585
 2095SOL    HW1 6879   6.480   5.759   0.696  0.5994 -0.2200  0.6421
 2095SOL    HW2 6880   6.593   5.856   0.723  0.7558  0.1009 -1.0809
 2096SOL     OW 6881   1.639   5.693   5.861  0.4443  0.1017  0.1549
 2096SOL    HW1 6882   1.575   5.731   5.922  0.2375 -0.3617  0.2226
 2096SOL    HW2 6883   1.709   5.661   5.918  0.5594  0.2604  0.1039
 2097SOL     OW 6884   2.807   3.530   4.962 -0.2991  0.0632 -0.0979
 2097SOL    HW1 6885   2.858   3.518   4.882 -2.3010  0.3783 -1.4529
 2097SOL    HW2 6886   2.717   3.506   4.937 -1.0250  0.5794  1.9378
 2098SOL     OW 6887   3.431   4.554   2.833 -0.4085 -0.2440  0.0673
 2098SOL    HW1 6888   3.337   4.557   2.849 -0.2549 -0.0945  0.9568
 2098SOL    HW2 6889   3.442   4.484   2.768 -1.0951 -0.4742  0.1962
 2099SOL     OW 6890   3.718   1.135   4.153  0.6625 -0.1429  0.2165
 2099SOL    HW1 6891   3.671   1.132   4.237  0.1851 -1.4518 -0.0811
 2099SOL    HW2 6892   3.665   1.192   4.098  2.5850  3.2758  1.7222
 2100SOL     OW 6893   5.054   4.021   1.622 -0.0028  0.6916  0.5455
 2100SOL    HW1 6894   5.128   4.008   1.681  0.9989 -0.3294 -0.8823
 2100SOL    HW2 6895   5.025   3.932   1.600  0.1999  1.0291 -1.1723
 2101SOL     OW 6896   3.730   4.850   5.532 -0.0184 -0.2705 -0.2792
 2101SOL    HW1 6897   3.676   4.794   5.475  1.0266 -2.2661  0.6524
 2101SOL    HW2 6898   3.818   4.814   5.524  0.5108  0.7133  1.0303
 2102SOL     OW 6899   5.773   7.154   6.560 -0.1723 -0.2132  0.8016
 2102SOL    HW1 6900   5.743   7.071   6.596  1.3143  0.0020  2.6558
 2102SOL    HW2 6901   5.851   7.131   6.509  0.0644 -0.0096  1.0667
 2103SOL     OW 6902   3.729   7.242   5.834  0.0602 -1.2376  0.4133
 2103SOL    HW1 6903   3.783   7.192   5.772 -2.4840 -3.2813 -0.2234
 2103SOL    HW2 6904   3.779   7.239   5.916  0.6889 -3.5691 -0.0213
 2104SOL     OW 6905   4.828   3.272   3.247  0.1778  0.5970 -0.2215
 2104SOL    HW1 6906   4.741   3.269   3.208  0.2615  0.0337 -0.3762
 2104SOL    HW2 6907   4.866   3.186   3.227  1.1133  1.1777 -0.9431
 2105SOL     OW 6908   5.430   2.100   4.489  0.4470 -0.3476 -0.2431
 2105SOL    HW1 6909   5.361   2.045   4.452  0.8202 -0.5076 -0.7105
 2105SOL    HW2 6910   5.401   2.119   4.578 -1.2784  1.4430 -1.1640
 2106SOL     OW 6911   2.470   6.339   6.925 -0.3817 -0.6098 -0.0132
 2106SOL    HW1 6912   2.442   6.335   6.834 -0.7866  0.1843  0.0716
 2106SOL    HW2 6913   2.530   6.265   6.935  1.5475  0.6972 -1.5453
 2107SOL     OW 6914   2.646   5.239   5.318 -0.1542 -0.4593 -0.3317
 2107SOL    HW1 6915   2.693   5.307   5.366  1.1455 -2.1658  0.8433
 2107SOL    HW2 6916   2.606   5.286   5.244  0.8287  1.5490  0.3701
 2108SOL     OW 6917   5.224   5.294   0.943  0.4297  0.4845 -0.4621
 2108SOL    HW1 6918   5.262   5.219   0.988  0.0554  0.9359  0.6225
 2108SOL    HW2 6919   5.203   5.262   0.856  0.1816 -0.6907  0.0293
 2109SOL     OW 6920   1.203   3.280   6.074  0.4680 -0.0385 -0.2631
 2109SOL    HW1 6921   1.118   3.238   6.061 -0.6916  2.0422  0.4062
 2109SOL    HW2 6922   1.259   3.210   6.109 -0.6859 -1.6624 -1.5861
 2110SOL     OW 6923   2.848   4.782   5.227 -0.2593  0.2830 -0.7606
 2110SOL    HW1 6924   2.774   4.825   5.184 -1.4464  0.0444  0.9846
 2110SOL    HW2 6925   2.882   4.849   5.288  0.5732  0.1765 -1.0974
 2111SOL     OW 6926   3.978   4.659   5.865  0.1083  0.1351 -0.0452
 2111SOL    HW1 6927   4.057   4.711   5.880 -0.3801  0.6968  0.6708
 2111SOL    HW2 6928   3.943   4.644   5.953 -0.5478 -0.1512 -0.3562
 2112SOL     OW 6929   0.390   7.133   5.613 -0.1511  0.2160  0.1287
 2112SOL    HW1 6930   0.417   7.202   5.553 -0.6416  1.5023  1.3543
 2112SOL    HW2 6931   0.425   7.160   5.698 -0.2284 -1.1170  0.5972
 2113SOL     OW 6932   3.075   6.244   0.509  0.2285 -0.2190 -0.8077
 2113SOL    HW1 6933   2.984   6.239   0.479  0.5122 -0.0328 -1.6975
 2113SOL    HW2 6934   3.072   6.210   0.599 -1.1239  2.0497  0.0486
 2114SOL     OW 6935   2.540   1.184   1.603 -0.3209  0.0287  0.2468
 2114SOL    HW1 6936   2.455   1.224   1.581 -0.0931 -0.1237 -0.9450
 2114SOL    HW2 6937   2.531   1.093   1.578  0.3153  0.0894 -0.2092
 2115SOL     OW 6938   3.098   4.651   6.301 -0.1496  0.3986  0.4218
 2115SOL    HW1 6939   3.179   4.700   6.286 -1.2084  2.4096  1.2073
 2115SOL    HW2 6940   3.037   4.685   6.236 -1.2948  1.1074  1.8325
 2116SOL     OW 6941   3.378   3.816   1.080 -0.0127 -0.1539 -0.2407
 2116SOL    HW1 6942   3.320   3.755   1.034 -2.1238  0.2522  1.8141
 2116SOL    HW2 6943   3.363   3.900   1.038  0.0377 -0.2968 -0.5468
 2117SOL     OW 6944   0.716   1.109   3.822 -0.1584 -0.3634  0.5646
 2117SOL    HW1 6945   0.760   1.025   3.814  1.2616  0.3864  0.2763
 2117SOL    HW2 6946   0.711   1.143   3.733  2.9787  1.6542  1.0556
 2118SOL     OW 6947   3.367   0.401   0.419 -0.4490  0.3506 -0.3968
 2118SOL    HW1 6948   3.363   0.353   0.336 -1.0809 -2.6033  1.2604
 2118SOL    HW2 6949   3.451   0.377   0.457 -0.5353  1.0107  0.2196
 2119SOL     OW 6950   6.506   5.997   4.800  0.0149  0.0043  0.6783
 2119SOL    HW1 6951   6.554   5.925   4.760 -0.8551  0.2664 -0.8858
 2119SOL    HW2 6952   6.466   5.959   4.878 -0.2430 -1.1369 -0.0033
 2120SOL     OW 6953   1.224   4.006   3.213  0.4514 -0.3092 -0.2286
 2120SOL    HW1 6954   1.156   3.992   3.278 -1.5350 -0.0929 -2.1701
 2120SOL    HW2 6955   1.276   4.079   3.247 -1.9104  1.2837  0.0994
 2121SOL     OW 6956   1.439   0.492   0.647  0.1340  0.5405 -0.5639
 2121SOL    HW1 6957   1.360   0.545   0.636 -1.0581 -1.0002  0.3294
 2121SOL    HW2 6958   1.497   0.546   0.701 -1.7574  0.2828  1.8502
 2122SOL     OW 6959   0.596   6.522   6.738 -0.3793 -0.0674  0.2333
 2122SOL    HW1 6960   0.645   6.441   6.721  0.6418  0.5431  0.2385
 2122SOL    HW2 6961   0.568   6.551   6.651  0.7410  0.4944  0.0540
 2123SOL     OW 6962   1.727   2.333   2.651 -0.2508  0.1496  0.1034
 2123SOL    HW1 6963   1.715   2.428   2.655  1.9606  0.4718 -0.1646
 2123SOL    HW2 6964   1.644   2.299   2.618 -1.1536  1.9681  0.4702
 2124SOL     OW 6965   5.047   0.060   6.261  0.1663  0.0354  0.2075
 2124SOL    HW1 6966   5.129   0.108   6.250  0.2673  0.1168  1.2853
 2124SOL    HW2 6967   4.980   0.129   6.261  0.1146 -0.0070 -0.3615
 2125SOL     OW 6968   0.242   2.625   1.329 -0.5734  0.0971  0.2154
 2125SOL    HW1 6969   0.156   2.646   1.291 -0.6688  1.5585  1.1864
 2125SOL    HW2 6970   0.279   2.711   1.353  1.0912 -0.5243 -0.0405
 2126SOL     OW 6971   3.608   4.586   2.018 -0.1023  0.0824 -0.5700
 2126SOL    HW1 6972   3.632   4.577   1.926 -0.2256  1.2243 -0.7313
 2126SOL    HW2 6973   3.598   4.681   2.030 -3.4828 -0.2495 -0.2558
 2127SOL     OW 6974   4.347   1.212   1.477 -0.4471  0.7366  0.0005
 2127SOL    HW1 6975   4.430   1.255   1.456 -0.4308  1.1290  0.8415
 2127SOL    HW2 6976   4.352   1.128   1.431 -0.9805  2.0723 -2.6168
 2128SOL     OW 6977   4.142   5.911   3.978  0.1779  0.3979  0.3337
 2128SOL    HW1 6978   4.086   5.877   4.048 -0.0528 -1.3586 -0.6886
 2128SOL    HW2 6979   4.081   5.949   3.915  0.2049 -0.4724 -0.2212
 2129SOL     OW 6980   1.957   1.755   0.754 -0.0082 -0.1329  0.3508
 2129SOL    HW1 6981   1.916   1.837   0.782  0.4124 -0.0260  0.6531
 2129SOL    HW2 6982   1.885   1.692   0.752 -0.0560 -0.1412  1.6672
 2130SOL     OW 6983   2.397   2.527   4.022  0.4646  0.5901 -0.0268
 2130SOL    HW1 6984   2.449   2.510   3.943  0.9738 -0.2306  0.4843
 2130SOL    HW2 6985   2.343   2.449   4.032  0.9689  0.3564  0.8910
 2131SOL     OW 6986   1.612   0.022   4.545 -0.6782  0.2755  0.0914
 2131SOL    HW1 6987   1.684  -0.025   4.502  0.0140  2.2664 -1.0406
 2131SOL    HW2 6988   1.539   0.015   4.485 -0.1404  1.8320 -0.7776
 2132SOL     OW 6989   4.995   3.902   3.228  0.8623  0.9359  0.8790
 2132SOL    HW1 6990   4.904   3.882   3.251  0.1213  3.9059  0.7234
 2132SOL    HW2 6991   5.042   3.894   3.311  0.5005 -0.6926  0.9466
 2133SOL     OW 6992   0.612   6.963   2.185 -0.0813  0.3715 -0.5009
 2133SOL    HW1 6993   0.687   6.904   2.174 -0.5229 -0.6498  1.6375
 2133SOL    HW2 6994   0.536   6.907   2.174 -0.5200  1.1160 -1.2433
 2134SOL     OW 6995   2.487   1.041   0.273 -0.1427  0.1749 -0.4363
 2134SOL    HW1 6996   2.557   1.002   0.324 -2.7687 -3.3375  0.7028
 2134SOL    HW2 6997   2.442   1.099   0.334  1.5392  2.2063 -1.0878
 2135SOL     OW 6998   3.598   3.532   5.312 -0.7622  0.3354  0.2902
 2135SOL    HW1 6999   3.645   3.536   5.396 -1.3385 -2.5060  0.8139
 2135SOL    HW2 7000   3.506   3.538   5.336 -0.8244  2.7541 -0.4600
 2136SOL     OW 7001   0.263   7.065   1.908 -0.2974 -0.4603 -0.8812
 2136SOL    HW1 7002   0.297   7.154   1.895 -0.3966  0.0479  2.0742
 2136SOL    HW2 7003   0.169   7.073   1.887 -1.3163  1.2969  3.6909
 2137SOL     OW 7004   5.767   2.318   4.805  0.4570 -0.3333  0.1353
 2137SOL    HW1 7005   5.828   2.296   4.735 -0.9660  0.0419 -1.2533
 2137SOL    HW2 7006   5.712   2.387   4.767 -0.8532 -0.7069  1.3510
 2138SOL     OW 7007   0.891   6.325   6.943 -0.3284  0.7704  0.1188
 2138SOL    HW1 7008   0.855   6.326   7.032  2.2233 -1.9615  1.2666
 2138SOL    HW2 7009   0.822   6.284   6.890 -1.6889  2.0189  0.8941
 2139SOL     OW 7010   4.643   5.368   0.522  0.0647  0.5413 -0.2825
 2139SOL    HW1 7011   4.557   5.349   0.483 -1.2676  0.7935  2.4316
 2139SOL    HW2 7012   4.685   5.282   0.528 -0.1618  0.3551 -1.1952
 2140SOL     OW 7013   5.405   3.102   5.031 -0.3340  0.0223 -0.8072
 2140SOL    HW1 7014   5.432   3.176   4.977 -0.5676  0.3850 -0.4209
 2140SOL    HW2 7015   5.449   3.115   5.115  0.0280 -0.5432 -0.9006
 2141SOL     OW 7016   6.344   5.807   5.534  0.2582 -0.3668 -0.1868
 2141SOL    HW1 7017   6.252   5.799   5.511 -0.6982  1.1245  2.8013
 2141SOL    HW2 7018   6.361   5.731   5.590  0.2588  0.4503  0.9415
 2142SOL     OW 7019   1.001   0.407   0.619  0.2096  0.0319 -0.1369
 2142SOL    HW1 7020   1.009   0.440   0.709 -0.0228  0.4627 -0.2726
 2142SOL    HW2 7021   0.945   0.330   0.627 -0.2995  0.4150  0.0071
 2143SOL     OW 7022   2.750   6.892   3.123 -0.0760 -0.1794  0.0631
 2143SOL    HW1 7023   2.676   6.953   3.124 -0.4697 -0.6440 -0.8671
 2143SOL    HW2 7024   2.751   6.856   3.212 -3.6027 -3.3326 -1.0422
 2144SOL     OW 7025   1.670   3.046   3.102  0.0260 -0.6277  0.4510
 2144SOL    HW1 7026   1.628   3.110   3.160  1.3650 -1.8466  2.8532
 2144SOL    HW2 7027   1.606   3.031   3.032 -0.8364  2.3195  0.5628
 2145SOL     OW 7028   0.968   0.174   4.385 -0.8014 -0.2127  0.3086
 2145SOL    HW1 7029   0.962   0.263   4.349  1.8951 -0.8380 -1.8671
 2145SOL    HW2 7030   0.901   0.124   4.338  0.2825 -0.1853 -1.3075
 2146SOL     OW 7031   6.060   0.069   2.077  0.1336 -0.3629  0.0181
 2146SOL    HW1 7032   6.034   0.161   2.089  0.2237 -0.3364  0.0083
 2146SOL    HW2 7033   6.155   0.070   2.079  0.1419 -0.4194 -0.2410
 2147SOL     OW 7034   5.556   0.093   1.035 -0.0867  0.1983 -0.0113
 2147SOL    HW1 7035   5.547   0.132   0.948  0.3760  2.3849  0.8825
 2147SOL    HW2 7036   5.650   0.092   1.051 -0.1257 -0.8629  0.1883
 2148SOL     OW 7037   3.098   1.729   3.958 -0.2078  0.1307 -0.1181
 2148SOL    HW1 7038   3.097   1.686   4.044  2.8745  1.6168  0.7619
 2148SOL    HW2 7039   3.007   1.749   3.940 -1.1951 -2.6786  1.5385
 2149SOL     OW 7040   1.126   3.591   5.640  1.1215 -0.2390  0.0276
 2149SOL    HW1 7041   1.106   3.542   5.720  1.5605 -2.7815 -1.3778
 2149SOL    HW2 7042   1.161   3.525   5.580  0.4312  1.5572 -2.4062
 2150SOL     OW 7043   5.278   1.949   6.426  0.0354 -0.2646 -0.0203
 2150SOL    HW1 7044   5.296   2.008   6.499  2.4930  0.3305 -1.0433
 2150SOL    HW2 7045   5.357   1.896   6.417 -0.6497 -1.0846 -1.5383
 2151SOL     OW 7046   3.395   4.656   3.151  0.3015 -0.0180 -0.0311
 2151SOL    HW1 7047   3.384   4.702   3.068  0.0439 -0.9065 -0.5019
 2151SOL    HW2 7048   3.408   4.564   3.125  0.5740 -0.2422  0.8934
 2152SOL     OW 7049   6.047   1.379   2.346  0.5921  0.0052  0.0851
 2152SOL    HW1 7050   6.041   1.416   2.434  1.7940  0.2175  0.0812
 2152SOL    HW2 7051   6.094   1.445   2.295  2.2198 -1.2535 -0.0770
 2153SOL     OW 7052   6.401   6.037   2.019 -0.1118 -0.4143  0.1029
 2153SOL    HW1 7053   6.341   6.004   2.086  0.1058 -0.8339  0.0940
 2153SOL    HW2 7054   6.436   6.118   2.055 -1.3043  0.2704 -0.2301
 2154SOL     OW 7055   6.742   0.548   4.728 -0.3016 -0.1040  0.5196
 2154SOL    HW1 7056   6.807   0.610   4.697  0.3368 -0.7437  0.5740
 2154SOL    HW2 7057   6.658   0.589   4.707  0.1173  0.3643 -0.2601
 2155SOL     OW 7058   3.242   6.040   5.371  0.1749  0.2570  0.4263
 2155SOL    HW1 7059   3.212   6.071   5.457  0.1968  0.2300  0.4436
 2155SOL    HW2 7060   3.336   6.026   5.382  0.1533  0.1212  0.4366
 2156SOL     OW 7061   0.423   0.829   3.093 -0.6771 -0.1345 -0.7961
 2156SOL    HW1 7062   0.499   0.822   3.150 -1.4161  0.9772  0.3559
 2156SOL    HW2 7063   0.428   0.753   3.036  1.1377 -0.2192 -0.5355
 2157SOL     OW 7064   3.205   5.053   4.206 -0.1231  0.6140  0.5411
 2157SOL    HW1 7065   3.194   5.092   4.120  0.9954 -0.1294  0.0466
 2157SOL    HW2 7066   3.291   5.085   4.236 -0.0473  0.0598  0.9285
 2158SOL     OW 7067   1.905   4.888   4.418  0.3078  0.1624 -0.5992
 2158SOL    HW1 7068   1.850   4.903   4.495  0.9676 -4.7126  0.9760
 2158SOL    HW2 7069   1.844   4.867   4.348 -0.1298  1.0041 -0.4721
 2159SOL     OW 7070   1.987   3.548   4.640 -0.2515  0.1613  0.1965
 2159SOL    HW1 7071   1.948   3.582   4.720 -1.4677  1.0734 -0.7744
 2159SOL    HW2 7072   1.984   3.622   4.578  2.9170  0.2588  0.0625
 2160SOL     OW 7073   3.483   4.322   5.887 -0.2017 -0.1499  0.6545
 2160SOL    HW1 7074   3.414   4.321   5.820 -0.3862 -0.3600  0.8481
 2160SOL    HW2 7075   3.558   4.363   5.844 -1.0961  1.9667  1.0529
 2161SOL     OW 7076   0.441   3.815   2.151 -0.3141  0.0477 -0.2793
 2161SOL    HW1 7077   0.533   3.799   2.134 -0.2325 -0.8962  1.0148
 2161SOL    HW2 7078   0.420   3.760   2.226 -1.8919  0.3688 -0.4633
 2162SOL     OW 7079   3.743   0.259   1.057 -0.0910 -0.0390 -0.0332
 2162SOL    HW1 7080   3.648   0.261   1.041  0.1444  1.3402 -1.2947
 2162SOL    HW2 7081   3.768   0.169   1.037 -0.6891  0.2789 -2.3793
 2163SOL     OW 7082   1.973   3.085   7.161 -0.0126  0.0598  0.3867
 2163SOL    HW1 7083   1.932   3.000   7.173  2.8532 -1.5834 -1.0851
 2163SOL    HW2 7084   1.954   3.109   7.070 -0.2117  0.6818  0.5844
 2164SOL     OW 7085   6.424   1.133   4.202  0.3237  0.2415 -0.0070
 2164SOL    HW1 7086   6.478   1.065   4.162 -0.8044 -0.8927  0.3673
 2164SOL    HW2 7087   6.468   1.215   4.180  2.3958 -0.6750  0.6129
 2165SOL     OW 7088   7.018   7.063   7.242  0.1850 -0.4361  0.0989
 2165SOL    HW1 7089   7.006   7.156   7.259  0.3912 -0.3266 -0.3462
 2165SOL    HW2 7090   6.961   7.044   7.167 -0.5184 -0.8585  0.7290
 2166SOL     OW 7091   0.927   0.809   4.356  0.3446 -0.2769 -0.3525
 2166SOL    HW1 7092   0.928   0.729   4.407 -1.9950  0.9438  1.7514
 2166SOL    HW2 7093   0.845   0.803   4.305 -1.0315  1.7281  1.5337
 2167SOL     OW 7094   1.552   7.256   0.801 -0.0184  0.0973 -0.1681
 2167SOL    HW1 7095   1.511   7.326   0.749 -0.7185  1.0286  1.5854
 2167SOL    HW2 7096   1.618   7.301   0.854  0.6454 -0.8255 -0.2005
 2168SOL     OW 7097   3.180   0.039   0.662  0.2679 -0.4423  0.5988
 2168SOL    HW1 7098   3.129   0.003   0.734 -2.9231  0.9090 -0.8605
 2168SOL    HW2 7099   3.186  -0.032   0.598  0.9980 -0.8772  1.1440
 2169SOL     OW 7100   4.938   0.871   5.575 -0.3288 -0.1591  0.1431
 2169SOL    HW1 7101   4.864   0.813   5.590 -0.0861 -0.7835 -1.0722
 2169SOL    HW2 7102   4.908   0.932   5.508  0.9851 -1.7975 -1.9917
 2170SOL     OW 7103   6.365   5.069   2.953 -0.0483  0.7160  0.3345
 2170SOL    HW1 7104   6.297   5.136   2.955 -0.1362  0.6720 -0.6225
 2170SOL    HW2 7105   6.381   5.055   2.859 -0.7617 -1.3219  0.4693
 2171SOL     OW 7106   4.544   3.193   2.006 -0.4290 -0.4311 -0.4073
 2171SOL    HW1 7107   4.525   3.263   1.944  1.3445 -2.3060 -3.1584
 2171SOL    HW2 7108   4.638   3.199   2.022 -0.4233 -1.5817  0.0869
 2172SOL     OW 7109   0.578   3.457   4.124  0.3502 -0.4428 -0.4209
 2172SOL    HW1 7110   0.618   3.497   4.202 -1.1655 -0.5801  0.4494
 2172SOL    HW2 7111   0.550   3.371   4.153  0.1768 -0.6697 -1.2589
 2173SOL     OW 7112   5.471   4.536   3.858  0.6298 -0.0722  0.4501
 2173SOL    HW1 7113   5.441   4.480   3.787 -0.0942  1.7884 -0.7288
 2173SOL    HW2 7114   5.494   4.475   3.928 -0.5943 -1.8094 -0.6311
 2174SOL     OW 7115   1.312   2.205   6.832 -0.7177  0.0564 -0.3547
 2174SOL    HW1 7116   1.328   2.299   6.836 -1.6931  0.2213 -0.1561
 2174SOL    HW2 7117   1.218   2.198   6.812 -0.5579 -0.8707 -0.7969
 2175SOL     OW 7118   5.679   5.102   4.320  0.0224 -0.0792 -0.0266
 2175SOL    HW1 7119   5.663   5.192   4.295 -1.1951 -0.1787  0.3600
 2175SOL    HW2 7120   5.614   5.051   4.273 -0.5134 -0.5502  1.1841
 2176SOL     OW 7121   1.008   3.671   7.045  0.1991 -0.3759 -0.2908
 2176SOL    HW1 7122   1.043   3.598   7.096  0.7334  0.1852  0.1557
 2176SOL    HW2 7123   1.033   3.749   7.095 -1.1403  0.0616 -0.3047
 2177SOL     OW 7124   6.166   5.436   0.647  0.1884  0.0054 -0.4687
 2177SOL    HW1 7125   6.144   5.510   0.591 -1.0179 -0.6072 -0.8238
 2177SOL    HW2 7126   6.170   5.361   0.588 -0.0188 -0.4595  0.1022
 2178SOL     OW 7127   5.873   1.167   5.298  0.1961 -0.5408 -0.2806
 2178SOL    HW1 7128   5.966   1.172   5.272 -0.1106 -1.2756 -1.5944
 2178SOL    HW2 7129   5.865   1.229   5.370  1.5406  0.1514 -0.6966
 2179SOL     OW 7130   6.158   7.165   7.252  0.0406 -0.4943 -0.2650
 2179SOL    HW1 7131   6.228   7.228   7.236  0.2480 -1.3182 -2.8418
 2179SOL    HW2 7132   6.088   7.192   7.192 -1.0159 -0.9618  0.7348
 2180SOL     OW 7133   2.969   2.735   1.171  0.0129  0.4125  0.1385
 2180SOL    HW1 7134   2.920   2.653   1.162 -1.4069  1.2336  0.2772
 2180SOL    HW2 7135   3.054   2.717   1.130  0.0093 -1.3728  0.8727
 2181SOL     OW 7136   4.000   1.531   1.793  0.0110 -0.6099 -0.6109
 2181SOL    HW1 7137   4.053   1.561   1.719  0.7611  1.3309  0.6632
 2181SOL    HW2 7138   4.015   1.437   1.796  2.6592 -0.2602 -0.8917
 2182SOL     OW 7139   4.234   2.412   1.952  0.5356 -0.0412  0.6007
 2182SOL    HW1 7140   4.285   2.392   1.873  0.3195 -0.2408  0.5106
 2182SOL    HW2 7141   4.144   2.421   1.921  0.2673 -1.2769  0.9953
 2183SOL     OW 7142   2.965   3.171   4.954  0.1900 -0.5464  0.0330
 2183SOL    HW1 7143   2.968   3.086   4.999  0.0700 -0.1916  0.7113
 2183SOL    HW2 7144   2.915   3.228   5.012 -1.4573 -0.5431 -1.3216
 2184SOL     OW 7145   6.862   4.856   1.876  0.8842 -0.0946  0.5209
 2184SOL    HW1 7146   6.926   4.798   1.918  0.3463 -1.2321 -0.2107
 2184SOL    HW2 7147   6.912   4.903   1.809  1.0861 -0.5215  0.3723
 2185SOL     OW 7148   5.201   1.335   4.690 -0.0873 -0.5354  0.5620
 2185SOL    HW1 7149   5.207   1.352   4.784 -2.2038 -2.3416  1.0892
 2185SOL    HW2 7150   5.168   1.417   4.652  0.0588 -0.0394  1.5014
 2186SOL     OW 7151   0.088   7.222   2.187  0.5782 -0.0584 -0.0310
 2186SOL    HW1 7152   0.175   7.185   2.173  1.0757  0.3380  1.8452
 2186SOL    HW2 7153   0.062   7.188   2.273 -1.0112  0.0288 -0.4671
 2187SOL     OW 7154   3.266   1.429   0.737 -0.0056 -0.6329 -0.3233
 2187SOL    HW1 7155   3.270   1.338   0.710 -3.2547 -1.0442  0.3437
 2187SOL    HW2 7156   3.302   1.430   0.826 -1.0973 -1.5040  0.1427
 2188SOL     OW 7157   5.379   4.922   3.149  0.0187 -0.7549 -0.0811
 2188SOL    HW1 7158   5.427   4.839   3.156  0.0217 -0.6973  0.6272
 2188SOL    HW2 7159   5.368   4.935   3.055 -2.2550 -2.8512 -0.1753
 2189SOL     OW 7160   0.021   1.148   5.036  0.2403  0.0297 -0.2462
 2189SOL    HW1 7161  -0.039   1.077   5.010 -0.8658  0.9823 -0.3365
 2189SOL    HW2 7162  -0.004   1.169   5.126  1.0391 -0.1716  0.0257
 2190SOL     OW 7163   5.138   5.016   1.416 -0.4241  0.4500  0.5934
 2190SOL    HW1 7164   5.097   4.948   1.470 -1.1378  1.9018  1.9127
 2190SOL    HW2 7165   5.071   5.039   1.351  0.7959 -2.0316 -1.6613
 2191SOL     OW 7166   1.559   1.237   5.713 -0.1074  0.4217 -0.5368
 2191SOL    HW1 7167   1.520   1.192   5.638  0.0902 -0.7122  0.0206
 2191SOL    HW2 7168   1.630   1.288   5.676  0.4405 -0.6850 -1.0440
 2192SOL     OW 7169   5.730   4.936   7.253 -0.6624  0.1978  0.8971
 2192SOL    HW1 7170   5.752   4.910   7.342  0.1667 -0.0312  0.6313
 2192SOL    HW2 7171   5.734   4.855   7.202 -0.4410  0.4448  0.5194
 2193SOL     OW 7172   3.874   7.153   7.042 -0.3324 -0.6432  0.0213
 2193SOL    HW1 7173   3.871   7.100   6.963  2.3903  2.0230 -1.9980
 2193SOL    HW2 7174   3.813   7.224   7.025 -0.2875 -0.4655  0.6080
 2194SOL     OW 7175   3.526   4.793   4.309  0.0053  0.4848 -0.0006
 2194SOL    HW1 7176   3.511   4.802   4.215 -2.2375  3.3664  0.5627
 2194SOL    HW2 7177   3.618   4.813   4.322  0.0218  1.3969 -1.4531
 2195SOL     OW 7178   3.263   1.496   1.313 -0.1196  0.3633  0.0434
 2195SOL    HW1 7179   3.174   1.490   1.279 -0.0308 -1.0659  0.0293
 2195SOL    HW2 7180   3.252   1.509   1.407 -0.3552 -1.3873  0.2741
 2196SOL     OW 7181   0.752   5.679   4.114 -0.8008 -0.4567  0.5860
 2196SOL    HW1 7182   0.771   5.754   4.057 -2.0100 -0.7686 -0.2540
 2196SOL    HW2 7183   0.835   5.661   4.158  0.0699  0.0009 -0.8250
 2197SOL     OW 7184   1.299   1.449   0.552  0.3453 -0.0640  0.5133
 2197SOL    HW1 7185   1.343   1.428   0.635 -1.1091  0.5965  1.4753
 2197SOL    HW2 7186   1.209   1.420   0.565  0.2431 -0.4522 -1.0480
 2198SOL     OW 7187   1.354   0.080   5.211 -0.1326  0.3584 -0.4833
 2198SOL    HW1 7188   1.323   0.156   5.163  1.7363 -0.0633 -2.4676
 2198SOL    HW2 7189   1.308   0.006   5.170 -1.0007  0.2895  0.5978
 2199SOL     OW 7190   0.312   3.891   5.064  0.4313 -0.3227 -0.3352
 2199SOL    HW1 7191   0.264   3.816   5.098  1.0100 -0.6209 -0.1682
 2199SOL    HW2 7192   0.370   3.854   4.997  0.7475 -0.0357 -0.2200
 2200SOL     OW 7193   6.712   7.099   5.769  0.3045  0.0459  0.0263
 2200SOL    HW1 7194   6.747   7.090   5.858  0.6767  0.4914 -0.0726
 2200SOL    HW2 7195   6.655   7.023   5.758  0.1416  0.0675  0.7005
 2201SOL     OW 7196   1.414   4.669   3.228 -0.7695 -0.0221 -0.1747
 2201SOL    HW1 7197   1.398   4.677   3.134  0.3629 -0.0876 -0.3718
 2201SOL    HW2 7198   1.498   4.713   3.243 -1.9261  1.8154  1.1323
 2202SOL     OW 7199   6.304   7.042   0.331  0.2468  0.0097  0.4114
 2202SOL    HW1 7200   6.355   6.978   0.380 -0.9195 -1.4744 -0.3079
 2202SOL    HW2 7201   6.250   6.991   0.271 -1.1104  1.6160  0.2019
 2203SOL     OW 7202   0.307   2.811   1.730 -0.4738 -0.2492 -0.1289
 2203SOL    HW1 7203   0.290   2.856   1.647 -0.3477 -0.0109 -0.0254
 2203SOL    HW2 7204   0.287   2.876   1.797 -0.2982 -0.3489  0.0215
 2204SOL     OW 7205   0.863   6.986   4.298 -0.3393 -0.1724  0.0716
 2204SOL    HW1 7206   0.958   6.973   4.291 -0.3778 -0.5106  0.1439
 2204SOL    HW2 7207   0.849   7.011   4.390 -0.1270  1.6364 -0.3776
 2205SOL     OW 7208   6.982   6.364   6.867 -0.3106  0.0039  0.0527
 2205SOL    HW1 7209   7.018   6.285   6.828 -1.5001 -0.0579 -0.9660
 2205SOL    HW2 7210   6.900   6.379   6.819 -0.2438  1.6850  0.4320
 2206SOL     OW 7211   5.757   0.582   1.484  0.3675  0.3105  0.0442
 2206SOL    HW1 7212   5.695   0.622   1.423  0.9006 -0.6464 -1.1447
 2206SOL    HW2 7213   5.719   0.496   1.502 -0.4289  1.0544  2.0565
 2207SOL     OW 7214   6.313   4.542   6.987  0.1272  0.0189  0.4584
 2207SOL    HW1 7215   6.227   4.502   7.003  0.2280 -0.6000 -0.4595
 2207SOL    HW2 7216   6.359   4.478   6.933  1.7466 -0.3346  2.2316
 2208SOL     OW 7217   3.519   7.136   0.778  0.4214 -0.3494 -0.0313
 2208SOL    HW1 7218   3.469   7.055   0.774  1.0655 -0.7333 -0.4975
 2208SOL    HW2 7219   3.529   7.154   0.872 -0.2062 -0.5023  0.0657
 2209SOL     OW 7220   3.984   5.847   7.186  0.0336 -0.2953  0.3826
 2209SOL    HW1 7221   4.040   5.770   7.200  0.7629  0.0949 -0.3566
 2209SOL    HW2 7222   3.976   5.853   7.091  0.2113  0.7066  0.4281
 2210SOL     OW 7223   1.268   5.624   0.465  0.0938 -0.5365 -0.0214
 2210SOL    HW1 7224   1.189   5.615   0.518  0.5054  1.8505  1.0428
 2210SOL    HW2 7225   1.333   5.568   0.508 -0.5414 -1.2067  0.0607
 2211SOL     OW 7226   5.938   0.681   4.857  0.2192  0.9645  0.2465
 2211SOL    HW1 7227   6.024   0.648   4.885 -0.9645 -0.4873  2.3347
 2211SOL    HW2 7228   5.923   0.757   4.913 -0.2395  0.6893  0.4961
 2212SOL     OW 7229   1.598   3.213   6.823  0.2936  0.2428 -0.1994
 2212SOL    HW1 7230   1.508   3.183   6.807  0.0856  0.9498 -0.3982
 2212SOL    HW2 7231   1.637   3.219   6.736 -0.0959  1.8275 -0.2878
 2213SOL     OW 7232   1.792   2.378   6.177  0.1360  0.1088 -0.9790
 2213SOL    HW1 7233   1.709   2.416   6.206 -0.3404 -1.0133 -0.8338
 2213SOL    HW2 7234   1.834   2.349   6.258  0.8557  1.0221 -1.0146
 2214SOL     OW 7235   1.515   1.207   4.855  0.1153 -0.0706  0.2408
 2214SOL    HW1 7236   1.570   1.161   4.918  0.7494 -0.0497 -0.2974
 2214SOL    HW2 7237   1.560   1.198   4.772  0.7375  2.2949  0.2841
 2215SOL     OW 7238   1.622   6.994   3.457  0.2098  0.7027 -0.2913
 2215SOL    HW1 7239   1.596   6.902   3.451  0.5269  0.5733  0.3570
 2215SOL    HW2 7240   1.646   7.017   3.367  0.8618 -0.0641 -0.3230
 2216SOL     OW 7241   4.471   6.618   5.936 -0.9021 -0.3188  0.1726
 2216SOL    HW1 7242   4.542   6.572   5.893  0.9284 -0.2674  3.0386
 2216SOL    HW2 7243   4.422   6.658   5.864  1.2184 -1.3507 -1.9260
 2217SOL     OW 7244   1.095   6.776   1.392  0.3412  0.0319  0.2334
 2217SOL    HW1 7245   1.093   6.868   1.367 -0.3119  0.4045  1.5921
 2217SOL    HW2 7246   1.171   6.740   1.346  1.5260  1.6145  0.8793
 2218SOL     OW 7247   6.841   5.792   2.168 -0.4505  0.3589 -0.4909
 2218SOL    HW1 7248   6.849   5.855   2.096 -0.5050 -0.5873 -1.3311
 2218SOL    HW2 7249   6.918   5.736   2.161  0.2037  1.0318  0.9684
 2219SOL     OW 7250   5.873   2.165   5.386 -0.4262  0.1408 -0.3932
 2219SOL    HW1 7251   5.829   2.092   5.430  1.3052 -0.5389  0.2760
 2219SOL    HW2 7252   5.802   2.217   5.349 -1.8036 -0.6729  1.0351
 2220SOL     OW 7253   4.032   2.512   1.807  0.3372 -0.0278 -0.4112
 2220SOL    HW1 7254   4.070   2.551   1.728 -0.1641 -0.1436 -0.7094
 2220SOL    HW2 7255   3.976   2.441   1.774 -0.7457  0.6371 -0.0182
 2221SOL     OW 7256   1.429   4.186   0.737  0.2573 -0.2364 -0.3352
 2221SOL    HW1 7257   1.438   4.122   0.666 -0.0099 -0.0889 -0.5001
 2221SOL    HW2 7258   1.450   4.270   0.696  1.8577 -0.3604  0.1684
 2222SOL     OW 7259   5.644   3.923   5.480  0.2381  0.4093 -0.2440
 2222SOL    HW1 7260   5.692   3.946   5.559 -1.6017  0.5922  0.8411
 2222SOL    HW2 7261   5.694   3.964   5.409  1.5037  0.8453  0.8832
 2223SOL     OW 7262   4.948   0.984   0.139 -0.1080  0.1576  0.6230
 2223SOL    HW1 7263   4.946   1.017   0.228 -1.5512  0.3786  0.5162
 2223SOL    HW2 7264   4.972   1.060   0.086 -1.7301  0.6387  0.5616
 2224SOL     OW 7265   1.434   5.243   6.741 -0.2513  0.1883 -0.1237
 2224SOL    HW1 7266   1.351   5.290   6.731 -0.6912 -0.8575 -1.5182
 2224SOL    HW2 7267   1.468   5.273   6.826 -0.9989  2.2538 -0.5152
 2225SOL     OW 7268   5.690   1.609   7.220  0.3291 -0.0067  0.2515
 2225SOL    HW1 7269   5.701   1.626   7.313 -0.4324 -3.0398  0.9373
 2225SOL    HW2 7270   5.596   1.625   7.204  0.8238  2.4820 -0.4875
 2226SOL     OW 7271   1.165   6.783   4.383  0.2848  0.6862  0.1488
 2226SOL    HW1 7272   1.089   6.771   4.440  0.9412  0.6926  1.0324
 2226SOL    HW2 7273   1.239   6.787   4.443  1.1556 -0.8125 -0.8012
 2227SOL     OW 7274   3.125   3.152   4.471  0.6453  0.3037 -0.1623
 2227SOL    HW1 7275   3.139   3.182   4.381  2.5346  2.4362  0.8201
 2227SOL    HW2 7276   3.204   3.176   4.518 -0.2435 -0.9438  2.0704
 2228SOL     OW 7277   0.088   2.112   0.105  0.6072  0.0904  0.2938
 2228SOL    HW1 7278   0.056   2.070   0.025  1.0547  2.4735 -1.1790
 2228SOL    HW2 7279   0.039   2.070   0.175 -1.4935 -0.4538 -1.4491
 2229SOL     OW 7280   2.448   4.769   3.065  0.4305  0.3451 -0.1997
 2229SOL    HW1 7281   2.390   4.795   2.993  1.1001  3.9592  0.4741
 2229SOL    HW2 7282   2.518   4.719   3.023 -1.4510 -1.3205 -1.4359
 2230SOL     OW 7283   4.095   0.511   2.236  0.3258  0.3000 -0.6433
 2230SOL    HW1 7284   4.172   0.520   2.291 -0.3190  0.4833  0.2472
 2230SOL    HW2 7285   4.105   0.426   2.194  1.4113  0.6839 -1.1679
 2231SOL     OW 7286   6.317   4.903   0.414  0.1803 -0.0749 -0.2559
 2231SOL    HW1 7287   6.322   4.826   0.357 -1.4479 -1.0564  0.9185
 2231SOL    HW2 7288   6.372   4.968   0.369 -0.2453 -1.1533 -2.4374
 2232SOL     OW 7289   4.618   6.399   1.297 -0.5597  0.2106  0.4138
 2232SOL    HW1 7290   4.599   6.314   1.256 -1.6707  1.0105 -0.8029
 2232SOL    HW2 7291   4.542   6.453   1.274  1.6273  2.5343 -1.6997
 2233SOL     OW 7292   0.001   6.923   6.441  0.6584 -0.3093 -0.0385
 2233SOL    HW1 7293  -0.071   6.953   6.496  1.0115  0.8602 -0.1918
 2233SOL    HW2 7294   0.064   6.884   6.502  1.8810  2.6185  0.6496
 2234SOL     OW 7295   0.962   4.962   4.701 -0.0601 -0.2655  0.0042
 2234SOL    HW1 7296   0.878   5.002   4.680 -0.1151 -0.9172 -1.0431
 2234SOL    HW2 7297   0.974   4.895   4.634  1.4522  0.0435 -0.0472
 2235SOL     OW 7298   4.528   2.524   1.356  0.5392  0.0878 -0.7276
 2235SOL    HW1 7299   4.444   2.527   1.311  0.5720 -0.4552 -0.8272
 2235SOL    HW2 7300   4.535   2.434   1.388  0.6730  0.3770  0.0613
 2236SOL     OW 7301   6.308   3.724   3.661  0.6756 -0.2224  0.1040
 2236SOL    HW1 7302   6.305   3.810   3.701  1.5583 -0.3412  0.4504
 2236SOL    HW2 7303   6.292   3.663   3.733  0.3491 -0.3550 -0.0826
 2237SOL     OW 7304   2.160   4.334   4.546 -0.1174  0.1969 -0.1075
 2237SOL    HW1 7305   2.098   4.371   4.484 -0.8115 -1.2693 -0.3147
 2237SOL    HW2 7306   2.243   4.330   4.499 -0.1951  0.8538 -0.3006
 2238SOL     OW 7307   1.677   6.128   4.496 -0.4390  0.1763  0.3387
 2238SOL    HW1 7308   1.704   6.040   4.524 -0.0998  1.2447  3.5516
 2238SOL    HW2 7309   1.750   6.184   4.522 -1.9395  1.8401  1.0195
 2239SOL     OW 7310   6.026   3.525   2.113  0.4905 -0.0252 -0.1072
 2239SOL    HW1 7311   6.082   3.458   2.153  0.9419  0.4943  0.1420
 2239SOL    HW2 7312   6.085   3.573   2.055  0.1457  0.0943 -0.3564
 2240SOL     OW 7313   5.740   4.120   2.406  0.1656 -0.4174 -0.2588
 2240SOL    HW1 7314   5.788   4.044   2.441  2.2636  0.2445 -1.6010
 2240SOL    HW2 7315   5.730   4.178   2.481  3.4368  0.3941 -0.3734
 2241SOL     OW 7316   0.578   6.272   3.291  0.4423 -0.1012 -0.5123
 2241SOL    HW1 7317   0.507   6.300   3.349 -0.8215 -0.3284 -1.9301
 2241SOL    HW2 7318   0.560   6.180   3.273 -0.1835  0.4311 -2.6955
 2242SOL     OW 7319   4.793   1.676   7.218  0.1858  0.3311 -0.1750
 2242SOL    HW1 7320   4.790   1.716   7.305  0.6815  0.3439 -0.1614
 2242SOL    HW2 7321   4.880   1.698   7.184  0.9240 -1.7596  0.3180
 2243SOL     OW 7322   3.901   6.273   3.656 -0.3683  0.3557 -0.5709
 2243SOL    HW1 7323   3.965   6.324   3.605  0.3212 -0.4596 -0.5319
 2243SOL    HW2 7324   3.819   6.283   3.608 -0.5080  2.4618  0.0718
 2244SOL     OW 7325   0.379   1.552   0.571  0.5071  0.0514  0.3185
 2244SOL    HW1 7326   0.405   1.644   0.578 -0.6936  0.4618 -0.5399
 2244SOL    HW2 7327   0.292   1.549   0.609  0.3776 -0.6597 -0.0448
 2245SOL     OW 7328   4.399   7.047   5.813 -0.3489  0.1776 -0.4760
 2245SOL    HW1 7329   4.488   7.029   5.843 -0.0750 -1.4276 -2.1658
 2245SOL    HW2 7330   4.343   7.011   5.883  0.2960  2.2224  1.1452
 2246SOL     OW 7331   0.936   1.042   0.517 -0.2448 -0.1413  0.7023
 2246SOL    HW1 7332   1.015   1.059   0.466  0.0223 -0.3699  1.0334
 2246SOL    HW2 7333   0.868   1.095   0.475  0.0957  0.0972  0.4483
 2247SOL     OW 7334   5.622   3.462   6.177 -0.4779 -0.1032 -0.3227
 2247SOL    HW1 7335   5.577   3.538   6.213 -0.3557 -1.2281  2.3444
 2247SOL    HW2 7336   5.715   3.481   6.186 -0.4466 -0.5382  0.3583
 2248SOL     OW 7337   0.337   2.340   1.330  0.0461 -0.1307 -0.0437
 2248SOL    HW1 7338   0.375   2.332   1.417 -0.2159 -0.1607  0.0699
 2248SOL    HW2 7339   0.297   2.427   1.329 -2.3806 -1.1758  0.8541
 2249SOL     OW 7340   3.352   7.064   5.301 -0.4271  0.1993  0.3080
 2249SOL    HW1 7341   3.398   7.097   5.378 -0.1381  0.3827  0.0587
 2249SOL    HW2 7342   3.354   6.969   5.310  0.5509  0.1869 -0.0187
 2250SOL     OW 7343   2.918   2.902   5.070 -0.6707 -0.0648  0.3105
 2250SOL    HW1 7344   2.983   2.832   5.061 -1.6194 -0.9517  0.2283
 2250SOL    HW2 7345   2.859   2.889   4.996 -0.9294  0.7503  0.3743
 2251SOL     OW 7346   5.423   0.966   5.942  0.2631 -0.2321  0.5173
 2251SOL    HW1 7347   5.502   1.002   5.983  0.4074  1.0462 -0.8558
 2251SOL    HW2 7348   5.453   0.933   5.858 -0.6728  0.3451 -0.0513
 2252SOL     OW 7349   6.866   7.005   7.022  0.2267  0.6063  0.1127
 2252SOL    HW1 7350   6.781   6.971   7.050 -0.0795  1.3711  0.1330
 2252SOL    HW2 7351   6.845   7.088   6.978  1.0088  1.1049  0.6624
 2253SOL     OW 7352   0.586   5.893   3.892 -0.7344  0.4156 -0.1603
 2253SOL    HW1 7353   0.518   5.839   3.932 -1.2241  1.8561  0.9634
 2253SOL    HW2 7354   0.666   5.867   3.937 -0.9702  0.6156  0.3787
 2254SOL     OW 7355   4.701   6.339   1.877  0.7520 -0.0266  0.3719
 2254SOL    HW1 7356   4.728   6.296   1.959 -2.2823 -2.6181  0.1089
 2254SOL    HW2 7357   4.623   6.389   1.901  2.4530  2.9234 -0.0279
 2255SOL     OW 7358   3.970   0.188   5.455 -0.1270  0.1390  0.2659
 2255SOL    HW1 7359   4.040   0.252   5.438 -0.6383  0.0714 -2.3915
 2255SOL    HW2 7360   3.896   0.241   5.485  0.3690  0.4492  0.9639
 2256SOL     OW 7361   0.826   5.722   0.071  0.9360  0.1177 -0.1508
 2256SOL    HW1 7362   0.891   5.651   0.070  1.2576  0.4106  0.1531
 2256SOL    HW2 7363   0.785   5.717  -0.016  0.8442 -0.5457 -0.0725
 2257SOL     OW 7364   3.993   2.959   1.430  0.1450  0.1259  0.5040
 2257SOL    HW1 7365   3.921   3.022   1.424 -1.4945 -1.6651  0.7884
 2257SOL    HW2 7366   4.022   2.966   1.521 -0.7877 -0.3287  0.8422
 2258SOL     OW 7367   3.769   2.645   4.964  0.3643  0.3509  0.0677
 2258SOL    HW1 7368   3.676   2.653   4.943  0.4841 -1.5124 -1.3306
 2258SOL    HW2 7369   3.791   2.727   5.007 -1.3659  1.8480 -1.7900
 2259SOL     OW 7370   5.114   5.576   4.788 -0.3653  0.2394 -0.4292
 2259SOL    HW1 7371   5.052   5.587   4.716 -0.2835 -0.9256 -0.6752
 2259SOL    HW2 7372   5.060   5.567   4.866 -0.4676  0.5948 -0.4541
 2260SOL     OW 7373   1.640   5.224   4.131  0.4710 -0.1387 -0.0259
 2260SOL    HW1 7374   1.549   5.237   4.106  0.7420 -0.5014 -1.2436
 2260SOL    HW2 7375   1.689   5.284   4.076  1.1280 -1.3418 -0.7563
 2261SOL     OW 7376   5.128   1.736   2.926  0.4676 -0.3175 -0.0316
 2261SOL    HW1 7377   5.124   1.768   3.016  0.5841 -3.4547  1.1637
 2261SOL    HW2 7378   5.042   1.699   2.909  0.1542  1.0517 -1.5606
 2262SOL     OW 7379   6.712   6.160   6.196 -0.3717  0.1140 -0.5300
 2262SOL    HW1 7380   6.755   6.215   6.131  4.5118 -1.4131  1.1464
 2262SOL    HW2 7381   6.654   6.104   6.145 -0.4261  2.2977 -2.9634
 2263SOL     OW 7382   0.181   6.233   1.332  0.0538 -0.5321  0.6055
 2263SOL    HW1 7383   0.242   6.304   1.352 -0.0715 -0.2366 -0.0510
 2263SOL    HW2 7384   0.164   6.191   1.417  0.6536 -0.2046  0.8921
 2264SOL     OW 7385   0.816   3.862   1.014  0.2214  0.0333 -0.4150
 2264SOL    HW1 7386   0.750   3.920   0.975  0.0123 -0.3581 -0.6462
 2264SOL    HW2 7387   0.806   3.780   0.966  0.1681 -0.3573  0.2716
 2265SOL     OW 7388   3.683   1.902   1.054 -0.1247 -0.1222  0.4772
 2265SOL    HW1 7389   3.622   1.975   1.060 -1.7369 -1.4467  0.6048
 2265SOL    HW2 7390   3.629   1.827   1.029  1.3936 -1.3987  0.8875
 2266SOL     OW 7391   6.912   5.234   1.000  0.3082 -0.0512 -0.5531
 2266SOL    HW1 7392   6.903   5.313   0.948 -0.1056 -0.0074 -0.4176
 2266SOL    HW2 7393   6.899   5.162   0.938 -2.2671  0.0113 -0.1554
 2267SOL     OW 7394   1.941   1.780   2.111 -0.2710  0.1958 -0.0016
 2267SOL    HW1 7395   1.876   1.730   2.160 -0.1714  0.1418  0.0748
 2267SOL    HW2 7396   1.947   1.736   2.026  1.1040 -0.9789  0.6873
 2268SOL     OW 7397   3.354   4.664   3.690  0.0561  0.0000 -0.1290
 2268SOL    HW1 7398   3.347   4.662   3.785 -0.7633  2.3503 -0.1052
 2268SOL    HW2 7399   3.439   4.705   3.673  1.2691 -2.5408 -0.4457
 2269SOL     OW 7400   1.153   0.329   5.992  0.0515 -0.3203  0.0832
 2269SOL    HW1 7401   1.172   0.242   5.957 -2.7527  0.3658 -3.3571
 2269SOL    HW2 7402   1.076   0.315   6.049  1.2564 -0.5025  1.7028
 2270SOL     OW 7403   3.019   4.212   4.199 -0.1144 -0.1238 -0.2000
 2270SOL    HW1 7404   3.096   4.258   4.167  0.3626 -2.0116 -1.9296
 2270SOL    HW2 7405   3.036   4.197   4.292  1.0007  0.6555 -0.2777
 2271SOL     OW 7406   3.732   0.729   4.322  0.2389  0.0430 -0.4154
 2271SOL    HW1 7407   3.775   0.786   4.259  0.1514 -0.7882 -1.2417
 2271SOL    HW2 7408   3.752   0.640   4.292 -1.7890 -0.3646 -0.6645
 2272SOL     OW 7409   5.010   2.622   4.255  0.1439 -0.3377  0.1478
 2272SOL    HW1 7410   4.975   2.544   4.299  3.4080 -1.5983  0.6778
 2272SOL    HW2 7411   4.999   2.604   4.162  0.0303 -1.0136  0.2889
 2273SOL     OW 7412   4.905   1.288   3.592  0.2812  0.7162 -0.1169
 2273SOL    HW1 7413   4.862   1.254   3.514  2.0031  0.5823 -1.0312
 2273SOL    HW2 7414   4.873   1.378   3.599 -1.5312  0.0690  0.2743
 2274SOL     OW 7415   3.795   1.561   0.413  0.7795 -0.6968 -0.3740
 2274SOL    HW1 7416   3.888   1.560   0.432  0.7947 -0.1797 -0.4321
 2274SOL    HW2 7417   3.757   1.622   0.476  0.5133 -0.7300 -0.4997
 2275SOL     OW 7418   5.458   6.371   3.820  0.0256  0.0831  0.0926
 2275SOL    HW1 7419   5.512   6.340   3.893 -0.8264 -1.1835  0.1978
 2275SOL    HW2 7420   5.407   6.444   3.858  0.1362 -0.0764  0.5535
 2276SOL     OW 7421   3.264   0.207   2.626 -0.3063 -0.1238  0.0150
 2276SOL    HW1 7422   3.263   0.299   2.653 -0.0810 -0.4436  1.1469
 2276SOL    HW2 7423   3.249   0.209   2.532  1.2523  1.1814 -0.2290
 2277SOL     OW 7424   5.251   3.199   5.591 -0.3875  0.5948 -0.1443
 2277SOL    HW1 7425   5.228   3.172   5.680 -0.9772 -1.2339 -0.8475
 2277SOL    HW2 7426   5.313   3.133   5.561 -2.3712 -0.4013 -2.1468
 2278SOL     OW 7427   1.626   2.068   2.359 -0.1504  0.0020  0.1481
 2278SOL    HW1 7428   1.588   1.983   2.379  0.5652 -0.6497 -1.2013
 2278SOL    HW2 7429   1.689   2.051   2.290 -0.1192  1.6521 -0.2670
 2279SOL     OW 7430   5.564   5.768   0.467 -0.0410 -0.1325 -0.5046
 2279SOL    HW1 7431   5.611   5.686   0.481 -1.7277 -0.9689  0.4396
 2279SOL    HW2 7432   5.529   5.790   0.554 -1.7627  0.2135 -1.2732
 2280SOL     OW 7433   4.317   6.437   1.494 -0.5737 -0.2604 -0.3288
 2280SOL    HW1 7434   4.375   6.508   1.465 -0.8423 -0.5340 -1.5662
 2280SOL    HW2 7435   4.347   6.416   1.582  1.4558 -0.6172 -1.0587
 2281SOL     OW 7436   0.978   0.042   5.882 -0.7424  0.5718 -0.1966
 2281SOL    HW1 7437   0.908   0.099   5.913 -0.1243 -0.1501  2.6353
 2281SOL    HW2 7438   0.939  -0.045   5.880 -0.1965  0.3148  0.4377
 2282SOL     OW 7439   2.869   6.656   5.620 -0.1822 -0.1279  0.0460
 2282SOL    HW1 7440   2.858   6.750   5.627  1.7430  0.2238 -1.3649
 2282SOL    HW2 7441   2.843   6.635   5.530  0.8356 -0.7306 -0.1147
 2283SOL     OW 7442   7.049   6.169   6.458  0.2404 -0.1766 -0.7119
 2283SOL    HW1 7443   7.002   6.103   6.408 -0.0055  0.3265 -1.1543
 2283SOL    HW2 7444   7.019   6.253   6.422 -1.6846  0.2732  1.8419
 2284SOL     OW 7445   6.125   0.395   6.305 -0.0537  0.1233 -0.6231
 2284SOL    HW1 7446   6.042   0.385   6.352 -0.5544  0.3656 -1.4478
 2284SOL    HW2 7447   6.181   0.445   6.365 -0.7637  0.6353 -0.3856
 2285SOL     OW 7448   2.475   3.018   6.290  0.1652 -0.1470  0.3757
 2285SOL    HW1 7449   2.394   3.068   6.303 -0.5819 -1.3674  0.4554
 2285SOL    HW2 7450   2.469   2.984   6.201  1.6665  1.6480 -0.4634
 2286SOL     OW 7451   0.462   1.835   2.570 -0.2926 -0.1926  0.1033
 2286SOL    HW1 7452   0.546   1.822   2.613  0.6282  0.4652 -1.4801
 2286SOL    HW2 7453   0.435   1.748   2.541  0.6526 -0.1721 -0.8683
 2287SOL     OW 7454   5.895   2.045   6.323 -0.0796 -0.2684 -0.1452
 2287SOL    HW1 7455   5.958   2.001   6.379  0.2145 -0.4073 -0.5742
 2287SOL    HW2 7456   5.827   2.076   6.382 -1.2298 -2.8573 -0.0475
 2288SOL     OW 7457   5.062   5.265   3.398  0.4502  0.8497 -0.4810
 2288SOL    HW1 7458   5.032   5.180   3.366  1.7419 -1.1107  3.1575
 2288SOL    HW2 7459   4.982   5.316   3.411 -0.3098  0.4036 -3.1062
 2289SOL     OW 7460   2.000   5.768   4.268 -0.1727  0.6404 -0.1986
 2289SOL    HW1 7461   2.066   5.753   4.200 -0.0663 -1.0787  0.2675
 2289SOL    HW2 7462   2.026   5.712   4.341 -0.5715  2.0782  1.0954
 2290SOL     OW 7463   1.840   3.798   3.766  0.1676  0.4348 -0.8198
 2290SOL    HW1 7464   1.875   3.885   3.786  1.1106  0.0132 -0.5760
 2290SOL    HW2 7465   1.871   3.743   3.838  1.1793 -0.4933 -1.9349
 2291SOL     OW 7466   5.546   1.356   5.385  0.0647 -0.1853  0.1629
 2291SOL    HW1 7467   5.490   1.279   5.382 -0.0404 -0.0822 -0.6040
 2291SOL    HW2 7468   5.599   1.351   5.306 -0.9069  1.2506 -0.6095
 2292SOL     OW 7469   4.310   6.065   3.239 -0.2771 -0.3974  0.2579
 2292SOL    HW1 7470   4.227   6.081   3.283  0.1931  0.6693  0.7849
 2292SOL    HW2 7471   4.322   6.141   3.181 -0.6252 -1.5112 -1.3195
 2293SOL     OW 7472   4.739   4.969   5.552  0.0796  0.0788 -0.1642
 2293SOL    HW1 7473   4.721   4.878   5.528 -2.5204  0.5066  0.0440
 2293SOL    HW2 7474   4.711   4.975   5.643  1.9872  0.6415  0.4015
 2294SOL     OW 7475   6.054   0.086   1.634 -0.4239  0.3006 -0.1955
 2294SOL    HW1 7476   6.026   0.178   1.636  0.6766  0.7590 -3.0467
 2294SOL    HW2 7477   6.138   0.088   1.588  0.0774 -2.0376  0.5851
 2295SOL     OW 7478   4.595   0.632   2.164 -0.4400 -0.0150 -0.0605
 2295SOL    HW1 7479   4.641   0.551   2.187 -0.7556 -0.1925 -0.0403
 2295SOL    HW2 7480   4.519   0.633   2.222 -0.9061 -0.1506 -0.6562
 2296SOL     OW 7481   2.989   6.245   5.459  0.0878  0.2995 -0.2466
 2296SOL    HW1 7482   2.986   6.327   5.409  0.5810  0.4813  0.0188
 2296SOL    HW2 7483   2.897   6.224   5.476 -0.0289  1.0834  0.1355
 2297SOL     OW 7484   1.001   4.777   1.475 -0.0376 -1.0440  0.5884
 2297SOL    HW1 7485   1.011   4.872   1.484 -1.0299 -0.9171  0.4337
 2297SOL    HW2 7486   0.995   4.744   1.565 -2.1315 -0.6673  0.6286
 2298SOL     OW 7487   6.415   3.504   5.466 -0.1525  0.2257 -0.0912
 2298SOL    HW1 7488   6.375   3.422   5.494  1.4682 -0.6275 -0.2246
 2298SOL    HW2 7489   6.505   3.499   5.499  0.0900  1.7414 -0.4922
 2299SOL     OW 7490   2.397   6.858   4.104 -0.3380 -0.2183 -0.2647
 2299SOL    HW1 7491   2.341   6.788   4.070 -1.1732  0.1591  0.3032
 2299SOL    HW2 7492   2.350   6.939   4.082 -0.2186  0.0878  0.5759
 2300SOL     OW 7493   5.763   6.960   6.315  0.1789 -0.2837  0.0787
 2300SOL    HW1 7494   5.669   6.973   6.324  0.3238  0.1392  1.0869
 2300SOL    HW2 7495   5.787   6.910   6.393  0.8330 -0.1316 -0.0252
 2301SOL     OW 7496   6.237   3.952   3.779 -0.0087 -0.1730 -0.6839
 2301SOL    HW1 7497   6.249   4.035   3.732 -0.6850  1.1212  1.3181
 2301SOL    HW2 7498   6.163   3.969   3.838  1.0822 -1.5680  1.1433
 2302SOL     OW 7499   2.492   0.153   2.096 -0.0167  0.2418 -0.2107
 2302SOL    HW1 7500   2.423   0.087   2.093  0.4763 -0.2300 -1.4199
 2302SOL    HW2 7501   2.446   0.237   2.095 -0.5674 -0.0650 -1.3883
 2303SOL     OW 7502   5.624   0.279   2.723 -0.1755 -0.2201 -0.0432
 2303SOL    HW1 7503   5.584   0.366   2.730  2.4737  1.0580 -0.0659
 2303SOL    HW2 7504   5.657   0.260   2.810  1.9406  0.1837 -0.7251
 2304SOL     OW 7505   1.837   6.654   1.702 -0.6598 -0.5018 -0.3946
 2304SOL    HW1 7506   1.866   6.615   1.620 -1.7351  0.5488 -1.2924
 2304SOL    HW2 7507   1.884   6.737   1.707 -0.2834 -0.7466  0.2722
 2305SOL     OW 7508   2.871   0.230   3.613 -0.1059 -0.4476 -0.0742
 2305SOL    HW1 7509   2.816   0.171   3.561  1.2143 -0.5362 -1.3986
 2305SOL    HW2 7510   2.938   0.260   3.552  1.0011  0.0791  1.3803
 2306SOL     OW 7511   6.909   2.019   6.054  0.3083 -0.0249 -0.1364
 2306SOL    HW1 7512   6.983   2.046   6.108  0.7258 -0.0096 -0.7136
 2306SOL    HW2 7513   6.863   1.954   6.107  1.0010 -0.3805  0.0343
 2307SOL     OW 7514   6.251   5.355   1.836 -0.1336  0.8222  0.4347
 2307SOL    HW1 7515   6.275   5.435   1.883 -1.3687  1.3739  0.1372
 2307SOL    HW2 7516   6.333   5.325   1.797  0.0124  2.8645 -0.8543
 2308SOL     OW 7517   0.232   3.458   0.844 -0.3763  0.1995 -0.2905
 2308SOL    HW1 7518   0.314   3.504   0.829 -0.2671 -0.0483 -0.4373
 2308SOL    HW2 7519   0.179   3.520   0.895 -0.0849  0.3409 -0.1597
 2309SOL     OW 7520   6.693   2.081   4.498  0.1357  0.3681 -0.5284
 2309SOL    HW1 7521   6.656   2.076   4.410  0.8752 -0.0478 -0.8200
 2309SOL    HW2 7522   6.759   2.150   4.493  2.6443 -1.9786 -1.2414
 2310SOL     OW 7523   6.145   4.943   3.936  0.5257 -0.5399  0.3496
 2310SOL    HW1 7524   6.135   4.987   4.020 -2.4850 -0.1115 -0.1965
 2310SOL    HW2 7525   6.187   5.008   3.880 -0.8926  0.5146  0.4806
 2311SOL     OW 7526   0.784   3.018   4.632 -0.1061 -0.3777  0.0810
 2311SOL    HW1 7527   0.753   2.928   4.625  1.7108 -1.0274  0.0798
 2311SOL    HW2 7528   0.707   3.072   4.614 -1.2913 -1.9236  0.4449
 2312SOL     OW 7529   4.585   6.634   6.438 -0.2258 -0.2843  0.3107
 2312SOL    HW1 7530   4.574   6.638   6.343  0.6509 -2.3126  0.1004
 2312SOL    HW2 7531   4.656   6.696   6.456  0.3177 -0.6538 -0.4937
 2313SOL     OW 7532   4.935   1.781   3.439  0.6190 -0.3870 -0.1061
 2313SOL    HW1 7533   4.870   1.761   3.371  0.1280  2.0744 -0.4281
 2313SOL    HW2 7534   4.999   1.838   3.395  1.6984 -0.8413  0.8377
 2314SOL     OW 7535   5.775   4.350   4.357  0.2727 -0.4198  0.5027
 2314SOL    HW1 7536   5.752   4.338   4.449  2.6098 -1.5001  0.9990
 2314SOL    HW2 7537   5.789   4.444   4.348  0.5641 -0.3737  1.4061
 2315SOL     OW 7538   6.470   0.985   5.715  0.1945 -0.2038 -0.3400
 2315SOL    HW1 7539   6.519   0.936   5.782 -0.6670  0.6941  0.9814
 2315SOL    HW2 7540   6.532   1.051   5.683  1.0131 -1.4272 -1.3524
 2316SOL     OW 7541   2.232   4.393   3.323  0.2290 -0.1176  0.2027
 2316SOL    HW1 7542   2.312   4.341   3.327  0.1282 -0.4070 -1.3807
 2316SOL    HW2 7543   2.262   4.484   3.323  0.6430 -0.2401 -1.9548
 2317SOL     OW 7544   7.070   7.045   1.445 -0.3433 -0.4733 -0.1288
 2317SOL    HW1 7545   6.993   7.074   1.397 -0.1409  0.7539  0.2746
 2317SOL    HW2 7546   7.048   6.957   1.475 -1.4273 -0.2837 -0.3554
 2318SOL     OW 7547   4.612   3.693   3.730  0.1942 -0.0616 -0.3600
 2318SOL    HW1 7548   4.626   3.750   3.655  2.1581 -0.3471 -0.2432
 2318SOL    HW2 7549   4.621   3.604   3.694 -1.1503 -0.2631 -0.2197
 2319SOL     OW 7550   0.278   2.838   5.609  0.0913 -0.5671 -0.1808
 2319SOL    HW1 7551   0.308   2.801   5.526  0.3833 -0.6075 -0.0598
 2319SOL    HW2 7552   0.209   2.779   5.638  0.7952 -1.2260  0.1838
 2320SOL     OW 7553   4.844   5.808   5.673 -0.1795 -0.1572  0.1432
 2320SOL    HW1 7554   4.879   5.718   5.676  0.4688  0.1073  0.6246
 2320SOL    HW2 7555   4.903   5.854   5.613 -0.5799 -0.0733 -0.1908
 2321SOL     OW 7556   1.974   7.114   3.961  0.2321  0.2388 -0.4333
 2321SOL    HW1 7557   1.950   7.207   3.960  0.5266  0.3129 -0.4708
 2321SOL    HW2 7558   1.906   7.073   4.015  1.4809  0.8406  1.6573
 2322SOL     OW 7559   4.155   2.604   3.907 -0.5506 -0.0339  0.0392
 2322SOL    HW1 7560   4.119   2.535   3.963 -0.1719 -0.6335 -0.4447
 2322SOL    HW2 7561   4.105   2.596   3.825 -1.7219  1.4169  0.5880
 2323SOL     OW 7562   6.632   5.739   4.199 -0.0179  0.2957  0.4735
 2323SOL    HW1 7563   6.709   5.759   4.253  1.0962  0.4280 -1.1284
 2323SOL    HW2 7564   6.589   5.824   4.186 -0.4907  0.2059  1.4598
 2324SOL     OW 7565   2.219   2.990   3.623  0.1793  0.1147  0.4792
 2324SOL    HW1 7566   2.315   2.990   3.616  0.1437  0.6638 -0.0089
 2324SOL    HW2 7567   2.202   2.961   3.713  0.7949 -0.2412  0.4870
 2325SOL     OW 7568   5.610   6.522   4.332  0.1897 -0.1339 -0.5697
 2325SOL    HW1 7569   5.535   6.579   4.313  1.0489  1.2644  0.1409
 2325SOL    HW2 7570   5.662   6.571   4.396  0.0366 -2.5010  1.4376
 2326SOL     OW 7571   6.162   6.244   1.310  0.1408 -0.2458 -0.1022
 2326SOL    HW1 7572   6.202   6.321   1.350 -1.3560  0.9224 -0.8091
 2326SOL    HW2 7573   6.084   6.277   1.265 -0.8400 -2.2494  0.0459
 2327SOL     OW 7574   7.046   4.519   5.966 -0.2330 -0.2650 -0.8136
 2327SOL    HW1 7575   7.061   4.613   5.965  2.0957 -0.5983 -1.3406
 2327SOL    HW2 7576   7.107   4.484   5.901 -1.1813 -2.1209 -0.7516
 2328SOL     OW 7577   1.973   1.836   0.345 -0.3502  0.1695  0.0307
 2328SOL    HW1 7578   1.921   1.800   0.417 -0.3958 -1.1368 -0.6440
 2328SOL    HW2 7579   1.945   1.927   0.339  0.5693  0.6557  2.4888
 2329SOL     OW 7580   4.717   5.466   1.415 -0.2471  0.0943  0.3095
 2329SOL    HW1 7581   4.682   5.555   1.407 -1.0164 -0.0822  1.6072
 2329SOL    HW2 7582   4.734   5.454   1.508  1.8738 -0.3808 -0.1311
 2330SOL     OW 7583   0.773   7.014   1.602  0.0206  0.2003  0.1763
 2330SOL    HW1 7584   0.780   7.082   1.669  1.4511  0.2181  0.0374
 2330SOL    HW2 7585   0.742   7.060   1.524 -2.8536 -0.0388  1.1119
 2331SOL     OW 7586   0.615   5.965   3.087 -0.0174 -0.2553  0.1060
 2331SOL    HW1 7587   0.584   5.973   3.177  0.7795 -1.3934  0.4962
 2331SOL    HW2 7588   0.708   5.943   3.095 -0.1029 -1.0955 -0.9783
 2332SOL     OW 7589   3.025   3.416   0.285 -0.7679 -0.7003  0.6985
 2332SOL    HW1 7590   2.950   3.470   0.260  0.5376  0.8527  0.0036
 2332SOL    HW2 7591   3.057   3.380   0.202 -0.5126 -1.0281  0.9389
 2333SOL     OW 7592   3.942   1.310   6.817  0.1629 -0.0605  0.2282
 2333SOL    HW1 7593   3.849   1.310   6.838  0.1296  1.9008  0.1817
 2333SOL    HW2 7594   3.953   1.382   6.755  1.7674 -0.0240  0.5241
 2334SOL     OW 7595   1.876   5.870   3.896 -0.0538 -0.4808 -0.0821
 2334SOL    HW1 7596   1.937   5.796   3.888 -0.7233 -1.1846  1.1391
 2334SOL    HW2 7597   1.791   5.828   3.911 -0.3437  0.5420  1.2090
 2335SOL     OW 7598   5.008   6.414   3.806 -0.0638  0.4743 -0.4246
 2335SOL    HW1 7599   4.938   6.350   3.811  1.3988 -1.1766 -0.8246
 2335SOL    HW2 7600   5.085   6.364   3.780  0.3665  2.9246 -4.3551
 2336SOL     OW 7601   3.356   1.466   5.083 -0.3506 -0.3151  0.9332
 2336SOL    HW1 7602   3.367   1.504   5.170  0.6796 -0.2622  0.7764
 2336SOL    HW2 7603   3.390   1.377   5.091  0.6122 -0.0048  0.3397
 2337SOL     OW 7604   4.625   7.216   5.197  0.4173 -0.1371 -0.0048
 2337SOL    HW1 7605   4.661   7.147   5.253 -0.2679  0.2965  0.9734
 2337SOL    HW2 7606   4.702   7.268   5.171  1.0766 -1.8322 -1.5697
 2338SOL     OW 7607   7.043   5.159   3.339 -0.2191 -0.3660  0.1917
 2338SOL    HW1 7608   7.081   5.103   3.407 -1.0378 -1.8278 -0.5192
 2338SOL    HW2 7609   7.086   5.131   3.258 -1.6308 -0.9467 -0.3784
 2339SOL     OW 7610   1.863   3.184   2.111 -0.0191  0.4270  0.1785
 2339SOL    HW1 7611   1.882   3.091   2.104 -1.2952  0.1595  0.0543
 2339SOL    HW2 7612   1.892   3.208   2.199  1.8957  0.3077 -0.4141
 2340SOL     OW 7613   2.505   4.554   2.526  0.1343  0.3974 -0.1288
 2340SOL    HW1 7614   2.500   4.494   2.452  0.4366 -1.9245  1.6735
 2340SOL    HW2 7615   2.488   4.641   2.488 -0.2619 -0.7974 -2.7913
 2341SOL     OW 7616   1.743   4.981   6.773 -0.5985 -0.4752  0.4675
 2341SOL    HW1 7617   1.778   5.065   6.745 -1.0806  0.0199  1.3322
 2341SOL    HW2 7618   1.728   4.990   6.867  0.5506 -1.9518  0.8171
 2342SOL     OW 7619   1.822   5.523   2.545 -0.0881 -0.2810 -0.0990
 2342SOL    HW1 7620   1.819   5.512   2.640 -1.3772  2.5332  0.2400
 2342SOL    HW2 7621   1.915   5.520   2.524  0.0979 -3.6184  0.8396
 2343SOL     OW 7622   3.749   3.917   6.449 -0.1822  0.4934 -0.4376
 2343SOL    HW1 7623   3.673   3.880   6.405 -0.0633 -2.0156  1.3345
 2343SOL    HW2 7624   3.714   3.986   6.505 -1.1323 -0.3620  0.0370
 2344SOL     OW 7625   1.298   4.006   5.577  0.8927 -0.3276 -0.3130
 2344SOL    HW1 7626   1.296   3.925   5.527 -1.4538 -0.8728  0.6165
 2344SOL    HW2 7627   1.288   4.075   5.511  4.6729 -0.5946 -1.3264
 2345SOL     OW 7628   6.248   1.586   3.798  0.3926  0.2671  0.1318
 2345SOL    HW1 7629   6.264   1.669   3.752  2.0047  0.0447  0.2600
 2345SOL    HW2 7630   6.199   1.533   3.736  1.6036  0.3701 -0.9302
 2346SOL     OW 7631   0.730   5.860   1.162  0.1196 -0.2610  0.4811
 2346SOL    HW1 7632   0.637   5.862   1.186 -0.0517 -4.3593  0.6097
 2346SOL    HW2 7633   0.730   5.820   1.074  1.6674  1.0532 -0.1179
 2347SOL     OW 7634   1.748   1.473   5.233 -0.2310  0.0045 -0.1347
 2347SOL    HW1 7635   1.751   1.493   5.139 -0.2510  0.2970 -0.0709
 2347SOL    HW2 7636   1.838   1.447   5.255 -0.3051 -0.4231 -0.3126
 2348SOL     OW 7637   3.966   2.065   6.587  0.4837 -0.5383 -0.5585
 2348SOL    HW1 7638   3.919   2.088   6.508 -0.4667  0.6038  0.3341
 2348SOL    HW2 7639   3.899   2.036   6.649  0.7297  2.3376  1.1693
 2349SOL     OW 7640   0.390   2.878   6.958 -0.6269 -0.1733 -0.2756
 2349SOL    HW1 7641   0.353   2.966   6.952  0.1477  0.0825 -1.5613
 2349SOL    HW2 7642   0.471   2.890   7.008  0.4557  0.1820 -2.0762
 2350SOL     OW 7643   4.050   4.770   0.538  0.3927  0.4358  0.0663
 2350SOL    HW1 7644   3.971   4.718   0.546  0.0027  0.8404 -1.0493
 2350SOL    HW2 7645   4.115   4.711   0.501  0.9091 -0.1725  1.8968
 2351SOL     OW 7646   1.496   6.041   5.361 -0.6902 -0.1065 -0.2844
 2351SOL    HW1 7647   1.525   5.982   5.292 -0.5418  2.0977 -2.1773
 2351SOL    HW2 7648   1.538   6.125   5.340 -3.9231  1.7013  0.1107
 2352SOL     OW 7649   2.617   6.406   4.492 -0.5392 -0.0857 -0.4716
 2352SOL    HW1 7650   2.623   6.378   4.584  0.5373  0.0559 -0.5007
 2352SOL    HW2 7651   2.527   6.386   4.468 -1.2449  1.1117  1.0264
 2353SOL     OW 7652   0.319   0.013   0.922  0.3737  0.3253  0.1449
 2353SOL    HW1 7653   0.304  -0.024   1.009  1.8372 -0.9978 -0.1539
 2353SOL    HW2 7654   0.404   0.055   0.929  0.8266 -0.4199 -0.8515
 2354SOL     OW 7655   5.315   0.216   6.210 -0.2056  0.3286  0.1982
 2354SOL    HW1 7656   5.261   0.266   6.271 -1.0309  0.5759 -0.7173
 2354SOL    HW2 7657   5.312   0.265   6.128  0.1226 -0.4804 -0.3136
 2355SOL     OW 7658   3.484   3.559   3.354  0.1876  0.4999  0.3300
 2355SOL    HW1 7659   3.504   3.555   3.260  1.0068  1.0238  0.4721
 2355SOL    HW2 7660   3.548   3.499   3.394 -1.7022 -1.5566  0.3317
 2356SOL     OW 7661   3.688   6.833   2.490  0.1679 -0.3423  0.2910
 2356SOL    HW1 7662   3.634   6.905   2.523  0.3543 -0.3535  0.6265
 2356SOL    HW2 7663   3.777   6.859   2.511  0.2222 -0.7545  0.5714
 2357SOL     OW 7664   3.732   6.303   2.175 -0.3843 -0.1534 -0.0022
 2357SOL    HW1 7665   3.658   6.266   2.223  0.8563  0.1863  2.2263
 2357SOL    HW2 7666   3.803   6.240   2.189  0.8266  1.4333  1.1248
 2358SOL     OW 7667   1.161   4.126   5.197  0.0832  0.4466  0.2449
 2358SOL    HW1 7668   1.227   4.058   5.183  1.6379  2.2417 -1.5096
 2358SOL    HW2 7669   1.158   4.138   5.292  1.1580 -0.7497  0.4431
 2359SOL     OW 7670   1.692   5.604   4.414  0.0082 -0.2121 -0.3330
 2359SOL    HW1 7671   1.749   5.573   4.344  2.4367 -0.6432  1.7551
 2359SOL    HW2 7672   1.682   5.529   4.472 -0.7010  0.5714  0.5880
 2360SOL     OW 7673   2.297   1.167   6.317  0.1253  0.0509 -0.0747
 2360SOL    HW1 7674   2.288   1.262   6.313 -0.5078 -0.0402 -0.9548
 2360SOL    HW2 7675   2.318   1.141   6.227 -1.7731 -0.8368 -0.2927
 2361SOL     OW 7676   0.147   0.674   0.306  0.2200 -0.9055  0.3155
 2361SOL    HW1 7677   0.136   0.672   0.211 -1.6954 -1.6257  0.5156
 2361SOL    HW2 7678   0.063   0.642   0.340  1.2330 -1.5935  2.2301
 2362SOL     OW 7679   1.955   6.584   2.243 -0.3304 -0.1540  0.1489
 2362SOL    HW1 7680   1.944   6.578   2.148  0.9808 -1.1848  0.0511
 2362SOL    HW2 7681   1.892   6.651   2.270 -0.8634  0.0014 -1.4141
 2363SOL     OW 7682   0.694   0.831   1.986 -0.9180 -0.3831 -0.0674
 2363SOL    HW1 7683   0.749   0.882   2.046 -0.8676 -2.1011  1.4037
 2363SOL    HW2 7684   0.621   0.889   1.964 -1.3913 -0.0083  2.3643
 2364SOL     OW 7685   1.178   3.418   3.148  0.1051 -0.2913  0.2724
 2364SOL    HW1 7686   1.197   3.347   3.087 -0.8482 -0.0052 -0.3513
 2364SOL    HW2 7687   1.263   3.460   3.162  0.1083  0.4783 -1.8922
 2365SOL     OW 7688   1.525   3.980   1.731  0.1655  0.2759  0.0621
 2365SOL    HW1 7689   1.576   3.906   1.764  0.1614  0.4885  0.5482
 2365SOL    HW2 7690   1.519   3.964   1.636 -1.6436 -1.4799  0.4328
 2366SOL     OW 7691   4.619   4.787   1.901 -0.4266  0.1865 -0.2584
 2366SOL    HW1 7692   4.611   4.880   1.923 -0.1435 -0.0980  1.0616
 2366SOL    HW2 7693   4.529   4.754   1.901 -0.2747 -0.4444  3.3438
 2367SOL     OW 7694   3.826   1.124   1.808 -0.2521 -0.5936  0.2051
 2367SOL    HW1 7695   3.742   1.115   1.854 -0.1060  0.7661  0.7804
 2367SOL    HW2 7696   3.804   1.172   1.728 -0.0263 -0.1982  0.3761
 2368SOL     OW 7697   6.630   6.780   2.790  0.0003  0.1696  0.4155
 2368SOL    HW1 7698   6.576   6.835   2.847  0.0001 -0.8107  1.3793
 2368SOL    HW2 7699   6.675   6.721   2.850  1.1702  0.1390 -0.4900
 2369SOL     OW 7700   5.789   2.175   0.777 -0.4250  0.2283  0.6379
 2369SOL    HW1 7701   5.796   2.086   0.809  0.5753 -0.0612 -0.3533
 2369SOL    HW2 7702   5.698   2.200   0.793  0.1289  0.2831  4.1151
 2370SOL     OW 7703   6.881   5.324   6.237  0.1038  0.2473 -0.0921
 2370SOL    HW1 7704   6.894   5.418   6.225 -1.1182  0.5965  1.2558
 2370SOL    HW2 7705   6.863   5.292   6.148  1.5749  1.0883 -0.7284
 2371SOL     OW 7706   4.826   5.052   3.451  0.4076  0.2959 -0.0039
 2371SOL    HW1 7707   4.768   5.025   3.380  0.4871 -0.6279  0.2723
 2371SOL    HW2 7708   4.914   5.050   3.413  0.4645 -0.3356  0.1490
 2372SOL     OW 7709   4.569   7.096   0.442 -0.0870 -0.4656 -0.1678
 2372SOL    HW1 7710   4.534   7.090   0.353  0.4130 -0.6555 -0.3503
 2372SOL    HW2 7711   4.607   7.010   0.459 -0.2116 -0.4404  0.2423
 2373SOL     OW 7712   5.072   0.250   0.636 -0.2224 -0.2016  0.4770
 2373SOL    HW1 7713   5.127   0.198   0.694 -0.5548  1.2016  2.0922
 2373SOL    HW2 7714   4.987   0.205   0.637 -0.4018  0.1566  1.5662
 2374SOL     OW 7715   6.130   4.038   1.313  0.5059  0.1509  0.3456
 2374SOL    HW1 7716   6.102   4.065   1.401 -0.7527  0.2864 -0.0801
 2374SOL    HW2 7717   6.120   3.943   1.312  1.1516  0.0766  0.5548
 2375SOL     OW 7718   2.537   4.610   4.969  0.9958 -0.4690 -0.0940
 2375SOL    HW1 7719   2.442   4.599   4.977  0.7484  1.6680  0.2932
 2375SOL    HW2 7720   2.554   4.608   4.875  0.1539  1.9878 -0.3311
 2376SOL     OW 7721   4.431   2.340   0.138  0.4851 -0.0699 -0.3397
 2376SOL    HW1 7722   4.419   2.433   0.121  0.9797 -0.0857 -0.8239
 2376SOL    HW2 7723   4.342   2.304   0.141  0.2975  0.4037 -0.2228
 2377SOL     OW 7724   2.634   0.992   6.003  0.2035  0.6793 -0.5201
 2377SOL    HW1 7725   2.723   1.020   6.025 -0.2623  1.5184  0.2846
 2377SOL    HW2 7726   2.639   0.973   5.909  1.2139  0.7729 -0.4989
 2378SOL     OW 7727   7.064   0.552   4.735  0.6378 -0.0726 -0.3680
 2378SOL    HW1 7728   7.157   0.557   4.758  1.3245  1.0733 -3.2121
 2378SOL    HW2 7729   7.058   0.595   4.650 -2.2249 -1.6489 -1.0204
 2379SOL     OW 7730   3.979   3.149   6.169 -0.4644 -0.2369 -0.3893
 2379SOL    HW1 7731   4.003   3.205   6.096  0.6316 -0.5113 -0.2547
 2379SOL    HW2 7732   4.048   3.082   6.171 -1.0132 -0.7848  0.2917
 2380SOL     OW 7733   1.451   2.791   0.730  0.4163 -0.9326  0.5433
 2380SOL    HW1 7734   1.360   2.769   0.749 -0.0515 -0.7537 -1.3834
 2380SOL    HW2 7735   1.458   2.784   0.634  1.7699  1.5315  0.4256
 2381SOL     OW 7736   0.617   1.327   4.510 -0.3578  0.2382 -0.5829
 2381SOL    HW1 7737   0.641   1.281   4.590  1.0981  3.7285  1.1308
 2381SOL    HW2 7738   0.521   1.325   4.508 -0.3177 -2.7532 -0.5833
 2382SOL     OW 7739   1.137   0.134   0.473 -0.4895  0.3990 -0.2706
 2382SOL    HW1 7740   1.139   0.121   0.568  0.9559  0.4777 -0.2737
 2382SOL    HW2 7741   1.207   0.078   0.440 -0.1925  1.2951 -1.1783
 2383SOL     OW 7742   5.156   2.661   0.216  0.4445  0.5511 -0.6670
 2383SOL    HW1 7743   5.072   2.653   0.260  0.7834 -0.6279 -0.2396
 2383SOL    HW2 7744   5.145   2.736   0.157 -1.5728 -0.8338 -2.1216
 2384SOL     OW 7745   2.621   2.759   5.009 -0.0386 -0.5692 -0.0374
 2384SOL    HW1 7746   2.544   2.705   5.024  0.1332 -0.9998 -0.7005
 2384SOL    HW2 7747   2.588   2.849   5.007 -0.5555 -0.7682 -0.5303
 2385SOL     OW 7748   3.979   3.946   2.353  0.0936 -0.0148 -0.7802
 2385SOL    HW1 7749   3.987   4.019   2.415 -0.5450 -1.3368  0.8719
 2385SOL    HW2 7750   3.922   3.883   2.397  1.5307 -2.0038 -1.7287
 2386SOL     OW 7751   4.449   0.052   6.103  0.4481 -0.4931  0.0651
 2386SOL    HW1 7752   4.406   0.042   6.017  1.3957 -1.6718 -0.2878
 2386SOL    HW2 7753   4.423  -0.026   6.151 -0.9996  0.7122  1.2804
 2387SOL     OW 7754   6.327   3.950   1.858 -0.2980 -0.0892  0.5317
 2387SOL    HW1 7755   6.396   3.932   1.795 -1.2284 -0.0333 -0.5346
 2387SOL    HW2 7756   6.280   4.025   1.821 -2.0925 -1.3048  0.2316
 2388SOL     OW 7757   4.932   5.330   0.919  0.4804 -0.3751 -0.9329
 2388SOL    HW1 7758   4.891   5.245   0.901 -0.6355 -0.3481  1.3479
 2388SOL    HW2 7759   5.015   5.307   0.962 -0.1590 -0.3127  0.3514
 2389SOL     OW 7760   5.861   4.024   5.321  0.8266 -0.1794 -0.1480
 2389SOL    HW1 7761   5.908   3.947   5.289  0.6410 -1.2008  1.9442
 2389SOL    HW2 7762   5.902   4.044   5.405  0.5317  1.7155 -0.4272
 2390SOL     OW 7763   6.386   6.941   6.130 -0.0418 -0.5801 -0.0287
 2390SOL    HW1 7764   6.415   6.988   6.052  1.0574 -0.6623  0.3234
 2390SOL    HW2 7765   6.341   7.007   6.183  4.0917  0.8512  1.8559
 2391SOL     OW 7766   0.407   1.245   3.828 -0.1422 -0.0977 -0.2777
 2391SOL    HW1 7767   0.319   1.271   3.858 -1.4323 -3.3269 -0.9945
 2391SOL    HW2 7768   0.456   1.230   3.908 -0.8028  0.1059  0.1704
 2392SOL     OW 7769   3.226   1.658   2.091  0.1772 -0.7429 -0.0439
 2392SOL    HW1 7770   3.287   1.670   2.164  1.1649  0.9333 -1.1391
 2392SOL    HW2 7771   3.281   1.629   2.018 -0.3319  0.6884 -1.0078
 2393SOL     OW 7772   1.300   7.023   2.221 -0.0681  0.0103  0.1574
 2393SOL    HW1 7773   1.264   7.094   2.274  0.5458 -0.0199  0.6172
 2393SOL    HW2 7774   1.310   7.061   2.133 -0.7923  0.1535  0.1347
 2394SOL     OW 7775   0.653   2.251   1.526 -0.6615 -0.5785 -0.1614
 2394SOL    HW1 7776   0.727   2.246   1.586 -0.3632 -0.2373 -0.5033
 2394SOL    HW2 7777   0.691   2.277   1.443 -0.9820 -1.7470 -0.6799
 2395SOL     OW 7778   5.567   1.298   0.570 -0.4360 -0.2388 -0.2921
 2395SOL    HW1 7779   5.611   1.383   0.575 -0.4354 -0.3084  1.1107
 2395SOL    HW2 7780   5.611   1.253   0.498  0.5788  0.3767 -0.0780
 2396SOL     OW 7781   6.605   0.076   0.794  0.8259 -0.2344  0.2568
 2396SOL    HW1 7782   6.618   0.170   0.794  0.5781 -0.1975 -0.0971
 2396SOL    HW2 7783   6.692   0.039   0.810  1.2820  0.0054 -1.6134
 2397SOL     OW 7784   5.138   0.696   5.730  0.4896  0.4361 -0.4080
 2397SOL    HW1 7785   5.220   0.739   5.706  2.2185 -0.7177  3.0676
 2397SOL    HW2 7786   5.088   0.762   5.777  0.3724  0.5237 -0.6576
 2398SOL     OW 7787   6.383   5.932   0.903 -0.2425 -0.0119 -0.0453
 2398SOL    HW1 7788   6.463   5.978   0.877 -0.5938  0.6748  0.0638
 2398SOL    HW2 7789   6.403   5.839   0.892  1.3667  0.0379  2.2234
 2399SOL     OW 7790   6.810   6.382   5.223  0.0013  0.1171 -0.2014
 2399SOL    HW1 7791   6.808   6.434   5.303 -1.8440  0.6734 -0.5817
 2399SOL    HW2 7792   6.737   6.321   5.232 -0.2990  0.2682 -1.5063
 2400SOL     OW 7793   1.595   2.484   3.735  1.1839  0.2407  0.1650
 2400SOL    HW1 7794   1.505   2.507   3.758  0.9992 -0.5631  0.2508
 2400SOL    HW2 7795   1.617   2.411   3.794  1.3913 -0.5301 -0.8634
 2401SOL     OW 7796   4.254   2.686   4.304 -0.0286  0.1130 -0.2072
 2401SOL    HW1 7797   4.327   2.701   4.244  1.2147 -1.4863  0.8672
 2401SOL    HW2 7798   4.248   2.590   4.311 -1.6353  0.2439  0.4439
 2402SOL     OW 7799   5.204   6.237   3.762  0.2731 -0.6254  0.3413
 2402SOL    HW1 7800   5.186   6.154   3.806  0.9237 -1.7249 -1.3862
 2402SOL    HW2 7801   5.290   6.264   3.794  0.6924 -1.3594 -0.1487
 2403SOL     OW 7802   0.981   5.347   0.834 -0.3305  0.1843 -0.2342
 2403SOL    HW1 7803   0.888   5.349   0.859 -0.5162  0.6169 -0.9363
 2403SOL    HW2 7804   1.022   5.293   0.900 -0.9900  0.4683  0.4166
 2404SOL     OW 7805   3.387   6.544   1.272 -0.1562 -0.0117 -0.5283
 2404SOL    HW1 7806   3.341   6.609   1.219  0.2667 -0.6388 -1.6694
 2404SOL    HW2 7807   3.466   6.589   1.302 -1.0500  0.7706  0.6839
 2405SOL     OW 7808   1.637   0.034   4.143 -0.4518 -0.4922  0.3140
 2405SOL    HW1 7809   1.626   0.029   4.048 -0.4312 -1.5335  0.3576
 2405SOL    HW2 7810   1.558   0.077   4.175  0.5825  2.0412 -0.3818
 2406SOL     OW 7811   2.166   3.069   3.962  0.1367 -0.7923 -0.4327
 2406SOL    HW1 7812   2.211   2.995   4.003 -0.9166 -0.6658  0.9785
 2406SOL    HW2 7813   2.093   3.028   3.914 -0.0592 -0.7322 -0.1880
 2407SOL     OW 7814   5.529   5.587   1.034  0.0842 -0.3766  0.0423
 2407SOL    HW1 7815   5.467   5.654   1.007  0.6990 -0.9598 -3.0248
 2407SOL    HW2 7816   5.475   5.512   1.059 -0.5276  0.1158  0.1850
 2408SOL     OW 7817   6.968   4.599   1.089 -0.3181  0.6310 -0.4013
 2408SOL    HW1 7818   7.033   4.664   1.113 -0.6503  0.9661 -0.3951
 2408SOL    HW2 7819   6.886   4.649   1.081 -0.6259  0.1716 -0.1408
 2409SOL     OW 7820   6.001   3.972   0.713  0.3365 -0.4914  0.4074
 2409SOL    HW1 7821   5.991   3.879   0.729  0.5934 -0.8758 -1.4725
 2409SOL    HW2 7822   6.089   3.993   0.745 -0.4506 -0.4705  2.5797
 2410SOL     OW 7823   0.698   3.820   5.528 -0.7828 -0.0743  0.7965
 2410SOL    HW1 7824   0.653   3.893   5.570 -0.6737  0.0397  0.7169
 2410SOL    HW2 7825   0.628   3.767   5.491 -0.8319  0.3884  0.2050
 2411SOL     OW 7826   0.490   2.355   2.353  0.7280  0.0718 -0.1455
 2411SOL    HW1 7827   0.440   2.430   2.319  3.5685  1.6039 -1.0927
 2411SOL    HW2 7828   0.534   2.389   2.431 -1.3626 -1.8837  1.9594
 2412SOL     OW 7829   2.581   0.574   5.175  0.0003 -0.3229  0.0041
 2412SOL    HW1 7830   2.499   0.539   5.211 -0.4405 -1.3549 -1.8905
 2412SOL    HW2 7831   2.648   0.546   5.237 -1.0865  0.6812  1.6720
 2413SOL     OW 7832   0.897   4.902   2.636 -0.3128 -0.1753 -0.4515
 2413SOL    HW1 7833   0.862   4.906   2.547 -1.4320 -1.4117 -0.0810
 2413SOL    HW2 7834   0.825   4.932   2.691  0.2192  0.1213  0.0942
 2414SOL     OW 7835   1.065   4.206   6.834  0.0518  0.0008  0.1343
 2414SOL    HW1 7836   1.018   4.147   6.776  0.2471  0.2479 -0.2798
 2414SOL    HW2 7837   1.036   4.293   6.808 -0.8876  0.0556  1.3078
 2415SOL     OW 7838   0.282   3.663   4.028 -0.5818 -0.2886 -0.6371
 2415SOL    HW1 7839   0.372   3.692   4.009 -0.5186  0.4895  0.7888
 2415SOL    HW2 7840   0.291   3.569   4.043 -0.0102 -0.2336 -0.5962
 2416SOL     OW 7841   2.034   0.096   3.161 -0.1458 -0.6496 -0.1988
 2416SOL    HW1 7842   2.007   0.040   3.233 -1.2606 -0.7369 -0.6702
 2416SOL    HW2 7843   2.043   0.183   3.200  1.6662 -1.1538  0.5472
 2417SOL     OW 7844   3.369   6.795   2.736  0.2698 -0.0996  0.4962
 2417SOL    HW1 7845   3.369   6.785   2.831  0.1908  0.9083  0.6024
 2417SOL    HW2 7846   3.422   6.873   2.720 -2.4967  1.7380 -0.0586
 2418SOL     OW 7847   0.077   4.420   1.503 -0.1005 -0.1020  0.4119
 2418SOL    HW1 7848   0.089   4.512   1.478  0.8560  0.0529  1.4198
 2418SOL    HW2 7849   0.132   4.371   1.442 -1.0015 -0.0562 -0.4514
 2419SOL     OW 7850   3.486   5.771   4.395  0.2511 -0.3709  0.2099
 2419SOL    HW1 7851   3.480   5.678   4.417 -0.4757 -0.1787  0.8266
 2419SOL    HW2 7852   3.539   5.773   4.315  0.6227 -1.2800  0.4260
 2420SOL     OW 7853   2.042   1.299   6.053 -0.3913  0.0479  0.1731
 2420SOL    HW1 7854   2.003   1.275   5.970 -1.3886  1.7761  0.1177
 2420SOL    HW2 7855   2.114   1.237   6.065 -2.1898 -2.1980 -0.4410
 2421SOL     OW 7856   3.494   5.928   7.063 -0.0678 -0.3458 -0.1579
 2421SOL    HW1 7857   3.499   5.897   7.153  0.8792  1.3479  0.4080
 2421SOL    HW2 7858   3.576   5.899   7.023 -0.9604 -2.0318 -0.8087
 2422SOL     OW 7859   2.170   1.950   3.723  0.2106 -0.0863  0.3053
 2422SOL    HW1 7860   2.241   1.981   3.668  1.4017 -1.1918  1.2108
 2422SOL    HW2 7861   2.115   2.027   3.736  0.8511  0.5976 -0.9840
 2423SOL     OW 7862   0.129   1.517   0.065  0.1531 -0.2730 -0.1669
 2423SOL    HW1 7863   0.062   1.582   0.087  0.0439  0.0083 -1.3015
 2423SOL    HW2 7864   0.110   1.443   0.122 -1.4603 -0.3885 -0.8204
 2424SOL     OW 7865   1.478   2.303   3.499 -0.0486  0.2851 -0.0163
 2424SOL    HW1 7866   1.533   2.226   3.513 -0.7846 -0.6094 -1.8689
 2424SOL    HW2 7867   1.506   2.336   3.413  0.8022  2.5602  1.0914
 2425SOL     OW 7868   1.825   6.398   2.416 -0.1132  0.5882 -0.2944
 2425SOL    HW1 7869   1.850   6.470   2.359  0.6613  1.3061  0.9325
 2425SOL    HW2 7870   1.890   6.399   2.486  0.1108 -1.5167 -0.4498
 2426SOL     OW 7871   2.390   0.381   0.676 -0.2819 -0.0166 -0.1521
 2426SOL    HW1 7872   2.469   0.429   0.652 -0.8118  0.5331 -0.8259
 2426SOL    HW2 7873   2.394   0.300   0.625  0.2009 -0.3183  0.3591
 2427SOL     OW 7874   2.113   3.048   0.225 -0.2003  0.6664 -0.1469
 2427SOL    HW1 7875   2.087   3.140   0.233  1.3408  0.9680  1.6523
 2427SOL    HW2 7876   2.058   3.002   0.290  0.0342  0.5238 -0.0494
 2428SOL     OW 7877   2.825   6.774   4.384  0.1115  0.0011 -0.4149
 2428SOL    HW1 7878   2.732   6.757   4.372  0.2244 -0.5378 -0.5504
 2428SOL    HW2 7879   2.829   6.850   4.441 -0.3984 -1.1096  1.1279
 2429SOL     OW 7880   5.382   3.358   4.840  0.2166 -0.4584 -1.0382
 2429SOL    HW1 7881   5.288   3.356   4.860  0.5642 -0.6540  0.5681
 2429SOL    HW2 7882   5.395   3.443   4.798 -0.1398  0.8482  1.4152
 2430SOL     OW 7883   3.396   4.936   5.937  0.0457  0.4379 -0.2101
 2430SOL    HW1 7884   3.422   5.027   5.920 -0.3935  0.8592  1.2930
 2430SOL    HW2 7885   3.466   4.900   5.991  0.4321 -0.2577 -1.1673
 2431SOL     OW 7886   4.742   3.991   4.084  0.4706 -0.5532 -0.5848
 2431SOL    HW1 7887   4.748   3.913   4.028  2.6103 -1.8047  1.3341
 2431SOL    HW2 7888   4.759   3.958   4.172 -0.6741  1.7684  0.5230
 2432SOL     OW 7889   6.218   6.458   1.432  0.3779  0.3250  0.6790
 2432SOL    HW1 7890   6.277   6.531   1.449  1.2185 -0.4305  1.0228
 2432SOL    HW2 7891   6.188   6.430   1.519 -0.8289  0.9899  0.4783
 2433SOL     OW 7892   3.771   5.339   5.143 -0.3913  0.2274 -0.2193
 2433SOL    HW1 7893   3.744   5.403   5.077  1.7002  0.0585 -1.2596
 2433SOL    HW2 7894   3.822   5.390   5.206 -1.1549  0.1032  0.5215
 2434SOL     OW 7895   4.626   4.774   5.013 -0.3545  0.3127  0.2603
 2434SOL    HW1 7896   4.698   4.731   4.968 -1.1767  0.8398 -1.6145
 2434SOL    HW2 7897   4.668   4.827   5.080  0.9641  0.1870 -0.4436
 2435SOL     OW 7898   3.776   5.255   6.962 -0.2222 -0.0170 -0.1242
 2435SOL    HW1 7899   3.685   5.275   6.984 -1.7860 -2.0567 -4.1130
 2435SOL    HW2 7900   3.793   5.305   6.882  2.0468 -0.0204  0.3154
 2436SOL     OW 7901   2.567   5.014   4.854  0.4905  0.3355  0.4089
 2436SOL    HW1 7902   2.473   5.016   4.872  0.7186 -0.1384  1.7264
 2436SOL    HW2 7903   2.598   5.101   4.878  0.6278  0.0141  1.4450
 2437SOL     OW 7904   5.458   6.031   3.851 -0.4294  0.2806  0.0344
 2437SOL    HW1 7905   5.549   6.005   3.867 -0.7204  0.0684  1.4679
 2437SOL    HW2 7906   5.406   5.957   3.884 -1.1129  0.2126 -1.1588
 2438SOL     OW 7907   1.083   6.473   6.259 -0.8153 -0.4156  0.2459
 2438SOL    HW1 7908   1.093   6.409   6.189 -0.2604  0.3480 -0.3745
 2438SOL    HW2 7909   1.038   6.425   6.329 -0.2022 -1.5452 -0.1211
 2439SOL     OW 7910   6.788   1.468   1.348  0.3939 -0.1249  0.4578
 2439SOL    HW1 7911   6.750   1.515   1.423 -0.7046  0.2482 -0.3093
 2439SOL    HW2 7912   6.713   1.422   1.309  1.0421 -0.6717 -0.1426
 2440SOL     OW 7913   3.282   0.985   4.776 -0.0115  0.0019 -0.0781
 2440SOL    HW1 7914   3.276   1.006   4.683  0.6279 -1.4920 -0.4644
 2440SOL    HW2 7915   3.286   0.889   4.779  0.3480  0.0510  1.4660
 2441SOL     OW 7916   5.715   1.528   0.225  0.1710  0.1154 -0.3766
 2441SOL    HW1 7917   5.653   1.601   0.224  0.7534  0.6101 -0.8786
 2441SOL    HW2 7918   5.665   1.454   0.259 -0.9003  0.3182 -1.5151
 2442SOL     OW 7919   2.614   0.980   1.922  0.4867 -0.0682 -0.1022
 2442SOL    HW1 7920   2.649   1.027   1.998  0.6831  0.1060 -0.3013
 2442SOL    HW2 7921   2.521   0.969   1.942  0.7531 -0.9702  0.6483
 2443SOL     OW 7922   1.962   6.206   4.269 -0.0444  0.1722  0.5164
 2443SOL    HW1 7923   1.919   6.131   4.227 -0.2358  0.4793  0.1627
 2443SOL    HW2 7924   2.019   6.167   4.335 -0.2292 -0.2817  0.4085
 2444SOL     OW 7925   2.238   0.735   1.906  0.1049  0.2727 -0.0233
 2444SOL    HW1 7926   2.233   0.740   1.810  0.6685  1.5100  0.0111
 2444SOL    HW2 7927   2.212   0.645   1.926  2.4541 -0.8063 -1.5117
 2445SOL     OW 7928   2.453   1.175   3.072  0.1207 -0.0153 -0.2249
 2445SOL    HW1 7929   2.468   1.244   3.007 -1.4517  0.5955  0.0300
 2445SOL    HW2 7930   2.510   1.103   3.044  0.5971  0.7963 -1.4057
 2446SOL     OW 7931   0.441   0.572   1.291 -0.0487  0.1667  0.0106
 2446SOL    HW1 7932   0.387   0.583   1.213  0.4616  0.8232 -0.2649
 2446SOL    HW2 7933   0.494   0.652   1.294  0.3619 -0.1274  0.6925
 2447SOL     OW 7934   3.650   4.213   4.706  0.2682  0.7062 -0.0158
 2447SOL    HW1 7935   3.691   4.132   4.738  0.4917  0.4332 -0.9871
 2447SOL    HW2 7936   3.688   4.281   4.761 -1.1787 -0.0176  1.9493
 2448SOL     OW 7937   0.371   7.099   5.167  0.1901  0.2355 -0.4074
 2448SOL    HW1 7938   0.302   7.067   5.226  0.6412 -0.3839 -0.2112
 2448SOL    HW2 7939   0.337   7.182   5.134  0.0618  0.7374  0.9652
 2449SOL     OW 7940   4.459   2.087   3.393 -0.2799 -0.0885  0.2473
 2449SOL    HW1 7941   4.527   2.047   3.448 -0.7015  0.8819  1.4898
 2449SOL    HW2 7942   4.392   2.114   3.455  0.1253  2.7919 -0.5292
 2450SOL     OW 7943   1.278   3.500   1.798  0.0968  0.4811  0.7662
 2450SOL    HW1 7944   1.358   3.472   1.842  1.0106  2.1822  0.2426
 2450SOL    HW2 7945   1.227   3.543   1.866  0.9383  1.9780  0.4620
 2451SOL     OW 7946   4.229   3.959   1.977 -0.3207  0.0001 -0.4065
 2451SOL    HW1 7947   4.190   3.873   1.991  0.3469 -0.6317 -2.2515
 2451SOL    HW2 7948   4.154   4.019   1.976 -1.0297 -0.8661 -1.3335
 2452SOL     OW 7949   3.512   2.139   0.761  0.3929  0.5355  0.2788
 2452SOL    HW1 7950   3.571   2.112   0.831 -0.8026 -1.5001  0.5340
 2452SOL    HW2 7951   3.568   2.144   0.683  1.1022 -0.2894  0.7322
 2453SOL     OW 7952   0.230   2.405   3.057  0.0256 -0.2183  0.4647
 2453SOL    HW1 7953   0.251   2.492   3.090  0.5695  0.0077 -0.4562
 2453SOL    HW2 7954   0.245   2.410   2.963 -2.5515 -0.5345 -0.0210
 2454SOL     OW 7955   1.372   0.439   6.404 -0.6645  0.3823 -0.5923
 2454SOL    HW1 7956   1.356   0.365   6.462 -1.4382  0.3049 -0.8861
 2454SOL    HW2 7957   1.313   0.508   6.436 -1.6148  0.1093 -1.6836
 2455SOL     OW 7958   4.519   1.922   3.824 -0.8824  0.4788 -0.1286
 2455SOL    HW1 7959   4.470   1.846   3.792  0.3134 -0.3423 -0.0533
 2455SOL    HW2 7960   4.598   1.923   3.770 -1.4620  2.4189 -0.9680
 2456SOL     OW 7961   0.444   0.617   5.110 -0.3150  0.3010  0.2583
 2456SOL    HW1 7962   0.505   0.659   5.050 -1.0469  0.9958 -0.0008
 2456SOL    HW2 7963   0.496   0.548   5.152  0.2592 -0.0357 -0.9899
 2457SOL     OW 7964   1.807   6.277   3.262  0.2804  0.4277  0.0259
 2457SOL    HW1 7965   1.781   6.238   3.179  0.0980 -0.2958  0.4173
 2457SOL    HW2 7966   1.764   6.363   3.263  1.6904  1.1664 -1.3872
 2458SOL     OW 7967   5.276   1.067   2.803 -0.1858 -0.2115  0.4719
 2458SOL    HW1 7968   5.267   1.095   2.712 -0.4895 -0.7850  0.3245
 2458SOL    HW2 7969   5.252   1.144   2.854 -0.6422 -0.0817  0.0703
 2459SOL     OW 7970   3.165   0.171   2.368  0.0267 -0.3199 -0.4722
 2459SOL    HW1 7971   3.092   0.233   2.373 -0.3227 -0.7710  0.2036
 2459SOL    HW2 7972   3.220   0.204   2.297 -0.8493  0.0123 -1.0069
 2460SOL     OW 7973   0.992   2.628   3.566 -0.4291 -0.7031  0.0645
 2460SOL    HW1 7974   0.922   2.600   3.508  0.9643 -0.6403 -1.6935
 2460SOL    HW2 7975   1.071   2.625   3.512  0.3544  3.0102  0.8968
 2461SOL     OW 7976   2.357   2.822   3.844 -0.2255 -0.3382  0.2923
 2461SOL    HW1 7977   2.440   2.867   3.835 -0.6418  0.9022  2.3127
 2461SOL    HW2 7978   2.372   2.735   3.808  1.8093  0.0219  0.2491
 2462SOL     OW 7979   1.061   5.226   2.498  0.1411  0.1263 -0.5570
 2462SOL    HW1 7980   1.037   5.236   2.406  0.0309 -2.8552 -0.9002
 2462SOL    HW2 7981   0.980   5.243   2.546  0.0968  1.2557 -1.0125
 2463SOL     OW 7982   6.209   6.296   0.561  0.7939 -0.3135  0.3889
 2463SOL    HW1 7983   6.183   6.216   0.606  0.8763 -0.1914  0.6487
 2463SOL    HW2 7984   6.147   6.362   0.593  0.7999 -0.2458  0.2616
 2464SOL     OW 7985   2.500   3.316   3.129 -0.3425  0.7846  0.7903
 2464SOL    HW1 7986   2.524   3.360   3.047 -1.9148  3.5086  1.7334
 2464SOL    HW2 7987   2.577   3.264   3.151 -0.5967 -1.6849 -3.4569
 2465SOL     OW 7988   3.003   0.336   1.658  0.7862  0.8692  0.3132
 2465SOL    HW1 7989   2.928   0.394   1.671  0.9362  0.6013  2.6823
 2465SOL    HW2 7990   3.065   0.363   1.726  1.0708 -1.7022  1.1024
 2466SOL     OW 7991   2.087   4.225   2.169 -0.2659 -0.4314  0.2627
 2466SOL    HW1 7992   2.068   4.143   2.215  1.8835 -0.2849  1.4798
 2466SOL    HW2 7993   2.162   4.262   2.215  1.0950  0.4387 -2.4858
 2467SOL     OW 7994   2.935   2.542   2.725 -0.5513  0.4232  0.5031
 2467SOL    HW1 7995   2.904   2.628   2.695  0.7815  0.3387 -1.2034
 2467SOL    HW2 7996   3.014   2.561   2.775  0.8406  0.0870 -1.4923
 2468SOL     OW 7997   4.204   0.266   4.706  0.5478  0.6416 -0.4933
 2468SOL    HW1 7998   4.230   0.246   4.616  1.8271  0.8586 -0.1816
 2468SOL    HW2 7999   4.145   0.340   4.698 -0.2721 -0.0810 -1.2479
 2469SOL     OW 8000   4.182   4.470   2.731 -0.2894  0.3874  0.2575
 2469SOL    HW1 8001   4.272   4.500   2.743  0.0694 -0.0663 -1.1196
 2469SOL    HW2 8002   4.128   4.540   2.768  0.6351  0.2744  1.8667
 2470SOL     OW 8003   0.319   4.714   0.637  0.4628 -0.0680  0.1570
 2470SOL    HW1 8004   0.301   4.735   0.546  3.1948  0.1955 -0.3487
 2470SOL    HW2 8005   0.413   4.726   0.647  0.6046 -2.4909  2.3772
 2471SOL     OW 8006   6.245   1.114   1.566  0.5394 -0.3460 -0.3080
 2471SOL    HW1 8007   6.176   1.179   1.579 -0.0123 -1.2019  1.1331
 2471SOL    HW2 8008   6.306   1.155   1.504 -0.0422  1.3535  0.2326
 2472SOL     OW 8009   4.939   5.926   1.839  0.0759 -0.0211 -0.5620
 2472SOL    HW1 8010   4.937   5.943   1.745 -1.9432  1.3030 -0.3283
 2472SOL    HW2 8011   4.904   5.837   1.848 -0.1316  0.0081 -1.0465
 2473SOL     OW 8012   3.950   1.303   3.290 -0.8466 -0.4977 -0.0454
 2473SOL    HW1 8013   3.930   1.212   3.270  1.0443 -0.9444 -0.0167
 2473SOL    HW2 8014   3.951   1.307   3.386  1.5431 -1.0410 -0.0299
 2474SOL     OW 8015   5.140   5.191   0.377 -0.2833 -0.1801  0.3511
 2474SOL    HW1 8016   5.195   5.259   0.417 -1.4043  0.6521  0.5085
 2474SOL    HW2 8017   5.094   5.151   0.451  0.6543 -1.3861  0.3017
 2475SOL     OW 8018   7.238   0.506   4.425 -0.3852 -0.1967  0.3092
 2475SOL    HW1 8019   7.285   0.541   4.350 -0.2298 -1.8646 -0.3930
 2475SOL    HW2 8020   7.170   0.451   4.387 -1.8026  0.7874  1.3471
 2476SOL     OW 8021   2.197   0.152   2.533  0.2044  0.6715  0.3693
 2476SOL    HW1 8022   2.235   0.066   2.512 -1.5016  0.4645 -2.0547
 2476SOL    HW2 8023   2.266   0.197   2.582  2.4175 -0.8400 -1.2434
 2477SOL     OW 8024   5.045   1.635   5.357 -0.1145  0.0269  0.7834
 2477SOL    HW1 8025   5.012   1.670   5.440  0.7641 -0.3177  1.2795
 2477SOL    HW2 8026   5.101   1.562   5.382 -1.1426 -1.1264 -0.1975
 2478SOL     OW 8027   4.906   5.240   3.646 -0.3644  0.3540  0.2238
 2478SOL    HW1 8028   4.886   5.164   3.592  0.9911  1.4540 -1.9077
 2478SOL    HW2 8029   4.976   5.210   3.705 -0.2955 -0.2387 -0.1581
 2479SOL     OW 8030   6.074   0.744   6.956  0.1862  0.0053 -0.1682
 2479SOL    HW1 8031   6.063   0.839   6.958  1.3523  0.1349  0.3974
 2479SOL    HW2 8032   6.142   0.726   7.021  0.3638 -1.1542 -0.6581
 2480SOL     OW 8033   6.859   2.321   6.989 -0.4558  0.1388  0.6374
 2480SOL    HW1 8034   6.932   2.379   6.966  1.0006 -1.0764  2.0806
 2480SOL    HW2 8035   6.859   2.318   7.085 -1.1773 -1.3934  0.6160
 2481SOL     OW 8036   5.756   6.115   1.872 -0.1515  0.0908  0.3506
 2481SOL    HW1 8037   5.717   6.065   1.943  0.6514 -1.4242 -0.2550
 2481SOL    HW2 8038   5.699   6.191   1.861 -0.5564  0.0779  2.2741
 2482SOL     OW 8039   4.239   2.768   2.277  0.5073 -0.7905  1.0157
 2482SOL    HW1 8040   4.156   2.730   2.305  0.6775 -0.9329  1.3375
 2482SOL    HW2 8041   4.261   2.720   2.197 -0.0739 -0.2529  0.5304
 2483SOL     OW 8042   4.162   2.207   0.482 -0.4070 -0.6699  0.3651
 2483SOL    HW1 8043   4.257   2.196   0.492 -0.2639  0.3448  0.2242
 2483SOL    HW2 8044   4.124   2.153   0.551  0.3050 -0.4307  0.9590
 2484SOL     OW 8045   5.651   2.835   2.850 -0.4928 -0.2492  0.1425
 2484SOL    HW1 8046   5.599   2.819   2.929  0.6956  4.0456  1.8981
 2484SOL    HW2 8047   5.741   2.815   2.876 -0.4280 -1.5360 -1.0078
 2485SOL     OW 8048   6.442   4.297   0.042  0.0605  0.0813  0.2938
 2485SOL    HW1 8049   6.444   4.246   0.123 -0.3988  0.3283  0.4666
 2485SOL    HW2 8050   6.533   4.299   0.012  0.0279 -1.1278  0.0964
 2486SOL     OW 8051   0.266   7.195   2.679  0.3562 -0.1960  0.3644
 2486SOL    HW1 8052   0.249   7.256   2.751  2.2031  1.6077 -0.6792
 2486SOL    HW2 8053   0.344   7.147   2.708  0.9542  0.3616 -0.3118
 2487SOL     OW 8054   2.505   4.789   6.315  0.2940 -0.1166 -0.3257
 2487SOL    HW1 8055   2.565   4.803   6.388  0.0201 -0.4655 -0.0364
 2487SOL    HW2 8056   2.486   4.877   6.282 -2.9616  0.3631  2.6826
 2488SOL     OW 8057   2.301   2.208   0.864 -0.0585 -0.1403  0.1553
 2488SOL    HW1 8058   2.285   2.145   0.794  1.9903 -0.8708  0.3312
 2488SOL    HW2 8059   2.225   2.200   0.922 -0.6738 -1.1274 -0.7810
 2489SOL     OW 8060   7.226   3.292   4.621  0.0807 -0.2735  0.6452
 2489SOL    HW1 8061   7.271   3.222   4.669 -0.6264 -0.8847  0.4278
 2489SOL    HW2 8062   7.169   3.333   4.687 -1.5693 -1.6974  0.1435
 2490SOL     OW 8063   5.073   6.076   7.085 -0.3034  0.5120  0.0449
 2490SOL    HW1 8064   5.099   5.987   7.107 -0.6039 -0.1136 -2.0015
 2490SOL    HW2 8065   5.085   6.126   7.166 -0.5732 -1.4692  1.3219
 2491SOL     OW 8066   4.146   2.543   3.635 -0.2246 -0.0934  0.2663
 2491SOL    HW1 8067   4.220   2.495   3.673  0.1521 -0.1528 -0.5464
 2491SOL    HW2 8068   4.164   2.546   3.541 -1.2665 -0.1301  0.0567
 2492SOL     OW 8069   0.664   3.085   3.948 -0.0055  0.5601 -0.2820
 2492SOL    HW1 8070   0.715   3.090   4.029 -0.1493 -1.0032 -0.0720
 2492SOL    HW2 8071   0.713   3.137   3.885  1.6667 -0.6070  0.0182
 2493SOL     OW 8072   5.991   4.176   3.022  0.1342  0.2632  0.4168
 2493SOL    HW1 8073   6.064   4.234   2.999 -0.0729  0.2993 -0.1620
 2493SOL    HW2 8074   6.030   4.110   3.079  0.5149  0.5808  0.5226
 2494SOL     OW 8075   5.558   6.538   0.053 -0.3139  0.1084  0.1374
 2494SOL    HW1 8076   5.554   6.489   0.136  1.2759 -0.5573 -0.1673
 2494SOL    HW2 8077   5.569   6.629   0.079 -1.2156  0.0753  0.6719
 2495SOL     OW 8078   7.202   2.021   0.785 -0.0174 -0.0482  0.2805
 2495SOL    HW1 8079   7.106   2.028   0.791  0.0611  2.1920 -0.5571
 2495SOL    HW2 8080   7.217   1.930   0.758 -2.0606  0.2186 -1.9743
 2496SOL     OW 8081   5.962   2.271   4.652  0.5022 -0.6547 -0.3086
 2496SOL    HW1 8082   5.978   2.358   4.615 -0.0217 -1.2991 -2.1436
 2496SOL    HW2 8083   6.003   2.211   4.589  0.2999 -1.7604  0.6037
 2497SOL     OW 8084   3.332   0.249   0.208 -0.5512  0.2470  0.1860
 2497SOL    HW1 8085   3.362   0.228   0.119  0.0871 -0.8856  0.6699
 2497SOL    HW2 8086   3.237   0.237   0.204 -0.2143 -2.6926  0.4342
 2498SOL     OW 8087   5.373   5.792   1.051 -0.0813 -0.0128  0.5548
 2498SOL    HW1 8088   5.410   5.822   1.134  0.4098  0.0529  0.3097
 2498SOL    HW2 8089   5.345   5.872   1.007 -2.2118 -0.1668  1.5291
 2499SOL     OW 8090   2.708   3.725   3.262  0.4065 -0.3224 -0.6054
 2499SOL    HW1 8091   2.637   3.682   3.310 -0.4191  0.9258 -0.6649
 2499SOL    HW2 8092   2.667   3.802   3.224  1.7264  0.2274 -0.9446
 2500SOL     OW 8093   5.675   0.303   6.104 -0.5583  0.3149  0.3544
 2500SOL    HW1 8094   5.636   0.273   6.186 -1.0352  2.8618  1.0918
 2500SOL    HW2 8095   5.606   0.288   6.039 -1.6323  1.8519  1.1063
 2501SOL     OW 8096   0.464   4.719   4.768 -0.0488 -0.3843 -0.0422
 2501SOL    HW1 8097   0.559   4.731   4.764  0.1063 -1.6048 -0.3076
 2501SOL    HW2 8098   0.433   4.790   4.823  1.1795 -0.7790  1.1746
 2502SOL     OW 8099   2.759   5.245   3.743 -0.6026 -0.2123 -0.1061
 2502SOL    HW1 8100   2.729   5.181   3.807 -0.4784 -2.0481 -1.8443
 2502SOL    HW2 8101   2.854   5.234   3.740 -0.2966  1.7471  1.3329
 2503SOL     OW 8102   3.583   5.484   0.195 -0.2852 -0.0990  0.0723
 2503SOL    HW1 8103   3.627   5.551   0.247  1.4637 -1.4767  0.3823
 2503SOL    HW2 8104   3.601   5.508   0.105  1.2194 -0.7240  0.2000
 2504SOL     OW 8105   7.078   3.832   7.033 -0.0090 -0.6813 -0.3672
 2504SOL    HW1 8106   7.020   3.783   6.974 -1.0177  1.4337 -1.1539
 2504SOL    HW2 8107   7.136   3.880   6.974 -2.7185  3.5122  0.2055
 2505SOL     OW 8108   6.614   4.126   1.890  0.2157  0.2490 -0.8107
 2505SOL    HW1 8109   6.693   4.171   1.919 -0.3077  1.4168 -1.1568
 2505SOL    HW2 8110   6.625   4.117   1.795 -1.2619  2.8683 -1.2715
 2506SOL     OW 8111   3.604   6.533   4.097 -0.7903 -0.1461 -0.0239
 2506SOL    HW1 8112   3.596   6.520   4.003  0.3243 -0.5860 -0.0568
 2506SOL    HW2 8113   3.686   6.490   4.121 -0.8468  0.3372  1.0762
 2507SOL     OW 8114   2.815   2.789   0.452  0.0285 -0.3687  0.0899
 2507SOL    HW1 8115   2.725   2.764   0.432  0.2904 -0.0746 -1.5765
 2507SOL    HW2 8116   2.818   2.882   0.431  0.5259 -0.2200  0.8406
 2508SOL     OW 8117   2.003   1.030   7.108  0.3863 -0.6019  0.0214
 2508SOL    HW1 8118   2.055   0.961   7.068 -0.8368 -1.6234  0.1549
 2508SOL    HW2 8119   1.916   0.992   7.118  0.8754 -0.8566  4.7014
 2509SOL     OW 8120   5.746   0.620   0.158 -0.5061  0.1988  0.4461
 2509SOL    HW1 8121   5.693   0.622   0.078 -1.4773  2.6452  1.1081
 2509SOL    HW2 8122   5.836   0.605   0.127 -1.1948 -1.3023 -0.8854
 2510SOL     OW 8123   5.970   1.736   2.339 -0.3788  0.2671 -0.0721
 2510SOL    HW1 8124   6.064   1.718   2.335 -0.3974 -0.2352  1.2992
 2510SOL    HW2 8125   5.957   1.774   2.426 -1.7011 -1.1755  0.3782
 2511SOL     OW 8126   3.471   1.822   5.905  0.3711  0.5756  0.0748
 2511SOL    HW1 8127   3.489   1.770   5.827 -1.2406  0.6168 -0.3460
 2511SOL    HW2 8128   3.479   1.913   5.877  1.6785  0.5750  0.4340
 2512SOL     OW 8129   5.685   5.512   5.078 -0.1540  0.3511  0.0811
 2512SOL    HW1 8130   5.692   5.429   5.030  0.0151  0.0709  0.5836
 2512SOL    HW2 8131   5.732   5.575   5.024  2.3512 -0.5176  1.1467
 2513SOL     OW 8132   2.028   5.216   1.955 -0.9220 -0.2955  0.4495
 2513SOL    HW1 8133   2.072   5.295   1.988  0.7180 -0.8528 -0.3052
 2513SOL    HW2 8134   2.041   5.220   1.860  1.2189 -2.6215  0.5951
 2514SOL     OW 8135   0.292   5.242   3.213  0.5533  0.2079 -0.4874
 2514SOL    HW1 8136   0.225   5.279   3.156  0.2559  0.3000 -0.0804
 2514SOL    HW2 8137   0.363   5.307   3.213 -0.3392  1.2072  0.9307
 2515SOL     OW 8138   1.026   1.765   6.628 -0.4555 -0.1176  0.0016
 2515SOL    HW1 8139   0.957   1.823   6.596 -0.3362 -0.0869 -0.1948
 2515SOL    HW2 8140   1.107   1.815   6.617 -0.3675 -0.2692 -0.0433
 2516SOL     OW 8141   6.286   3.471   6.569 -0.3963 -0.2631 -1.0960
 2516SOL    HW1 8142   6.310   3.379   6.558 -2.2163 -0.8965  0.1243
 2516SOL    HW2 8143   6.217   3.470   6.635  0.6915  2.1371  0.1145
 2517SOL     OW 8144   6.419   0.899   6.196 -0.0431 -0.1219  0.1609
 2517SOL    HW1 8145   6.402   0.839   6.123  0.6829  1.2118 -1.1319
 2517SOL    HW2 8146   6.498   0.945   6.170  0.5744 -0.0521  2.0935
 2518SOL     OW 8147   5.627   5.438   6.283 -0.5637  0.1175 -0.1813
 2518SOL    HW1 8148   5.661   5.489   6.356  1.4003 -3.3529  1.4002
 2518SOL    HW2 8149   5.674   5.472   6.206  0.4373  0.9181  0.7737
 2519SOL     OW 8150   0.469   1.850   7.123  0.8311  0.0704  0.2964
 2519SOL    HW1 8151   0.528   1.900   7.180  1.7528 -1.7673  0.9931
 2519SOL    HW2 8152   0.412   1.802   7.183  0.2001 -0.0173 -0.3660
 2520SOL     OW 8153   1.600   4.596   7.036  0.2054 -0.6250 -0.2838
 2520SOL    HW1 8154   1.581   4.504   7.054 -0.9935 -0.3548 -0.1548
 2520SOL    HW2 8155   1.548   4.616   6.958 -0.1719  0.1702  0.1729
 2521SOL     OW 8156   0.333   4.483   1.750  0.6042  0.0824 -0.1175
 2521SOL    HW1 8157   0.413   4.469   1.801  0.6782  2.9355  0.6287
 2521SOL    HW2 8158   0.364   4.508   1.663  0.5044 -0.1904 -0.2319
 2522SOL     OW 8159   4.371   4.125   6.854 -0.2428 -0.5247  0.2606
 2522SOL    HW1 8160   4.349   4.209   6.894 -1.7122 -0.4386 -0.6923
 2522SOL    HW2 8161   4.340   4.059   6.916  0.0765 -0.3703  0.5848
 2523SOL     OW 8162   0.851   3.451   4.923  0.0886  0.1519  0.2987
 2523SOL    HW1 8163   0.857   3.546   4.917  2.2648 -0.0626 -1.2991
 2523SOL    HW2 8164   0.757   3.434   4.933 -0.6127  2.3130 -2.2506
 2524SOL     OW 8165   4.794   7.084   1.169  0.1728  0.5857  0.0672
 2524SOL    HW1 8166   4.737   7.104   1.243  0.9085  0.1411  0.7649
 2524SOL    HW2 8167   4.737   7.090   1.092  0.1419  4.2564  0.3180
 2525SOL     OW 8168   5.954   1.695   0.858 -0.7109 -0.2366 -0.1286
 2525SOL    HW1 8169   5.955   1.699   0.954 -3.3058  1.7540 -0.1139
 2525SOL    HW2 8170   5.933   1.604   0.838 -1.0731 -0.4719  1.2435
 2526SOL     OW 8171   6.349   0.345   5.157 -0.2125 -0.0328 -0.4806
 2526SOL    HW1 8172   6.426   0.313   5.204  0.1591  0.2894 -0.8684
 2526SOL    HW2 8173   6.381   0.420   5.107 -0.8409  0.2813 -0.4205
 2527SOL     OW 8174   0.772   3.301   5.281  0.1295  0.1989  0.1182
 2527SOL    HW1 8175   0.730   3.260   5.356  1.9639 -0.0348  1.0427
 2527SOL    HW2 8176   0.700   3.321   5.221 -1.3961  0.7186  2.0795
 2528SOL     OW 8177   2.599   4.742   5.469 -1.1306 -0.4347 -0.1137
 2528SOL    HW1 8178   2.528   4.678   5.474 -1.4170 -0.1760 -0.9300
 2528SOL    HW2 8179   2.557   4.822   5.438 -0.6404 -0.0346  0.2482
 2529SOL     OW 8180   2.303   5.832   6.965  0.2575 -0.4669 -0.4178
 2529SOL    HW1 8181   2.239   5.900   6.941  0.3027 -0.4618 -0.5252
 2529SOL    HW2 8182   2.289   5.818   7.059  2.0687  1.6334  0.2193
 2530SOL     OW 8183   5.556   0.231   5.517  0.1805  0.5817 -0.7501
 2530SOL    HW1 8184   5.637   0.280   5.534 -0.2298  1.0216 -0.0310
 2530SOL    HW2 8185   5.580   0.170   5.448  0.5148  2.3406 -2.2548
 2531SOL     OW 8186   2.457   3.746   6.008 -0.4666  0.3081 -0.6239
 2531SOL    HW1 8187   2.458   3.837   6.037  1.5864  0.3635 -0.7625
 2531SOL    HW2 8188   2.440   3.695   6.087 -2.5755  0.8292 -0.7033
 2532SOL     OW 8189   2.386   5.731   6.291 -0.5857 -0.2490  0.1595
 2532SOL    HW1 8190   2.385   5.673   6.367 -1.8067  2.3772  2.1976
 2532SOL    HW2 8191   2.294   5.755   6.279 -0.5208 -1.2512 -2.6678
 2533SOL     OW 8192   2.361   0.589   5.348 -0.1439 -0.1241  0.1500
 2533SOL    HW1 8193   2.404   0.509   5.377  0.5946  0.3037  0.2343
 2533SOL    HW2 8194   2.269   0.564   5.339  0.2622 -1.2782 -0.9251
 2534SOL     OW 8195   6.685   5.298   1.618  0.0061  0.4078 -0.2247
 2534SOL    HW1 8196   6.762   5.327   1.569  1.2358  0.8045  1.8447
 2534SOL    HW2 8197   6.611   5.333   1.570  1.0219 -1.2942 -3.1244
 2535SOL     OW 8198   1.599   5.427   1.198 -0.0610 -0.2302  0.4183
 2535SOL    HW1 8199   1.691   5.452   1.206 -0.4811  1.6914 -0.5523
 2535SOL    HW2 8200   1.580   5.435   1.105 -0.7951 -2.1906  0.3749
 2536SOL     OW 8201   3.780   1.724   6.528 -0.5448 -0.4291  0.3473
 2536SOL    HW1 8202   3.833   1.762   6.458 -2.9746  0.5669 -1.0173
 2536SOL    HW2 8203   3.781   1.790   6.597  0.6287 -0.7621  0.6590
 2537SOL     OW 8204   3.161   1.144   1.731  0.5914 -0.1740  0.0593
 2537SOL    HW1 8205   3.191   1.214   1.790 -0.1709  0.4733 -0.3133
 2537SOL    HW2 8206   3.200   1.167   1.646  3.5478 -2.3133  0.7571
 2538SOL     OW 8207   0.759   2.530   5.693  0.2263 -0.0311  0.9564
 2538SOL    HW1 8208   0.763   2.506   5.600  1.3882  0.7526  0.7903
 2538SOL    HW2 8209   0.824   2.473   5.735  0.1006  0.0095  1.2037
 2539SOL     OW 8210   3.481   3.159   6.683  0.0004 -0.5022  0.4441
 2539SOL    HW1 8211   3.472   3.110   6.601 -0.6667 -2.2900  1.5491
 2539SOL    HW2 8212   3.393   3.159   6.721  0.2674  0.4555  1.0828
 2540SOL     OW 8213   1.026   0.192   2.442 -0.9505 -0.0125 -0.3645
 2540SOL    HW1 8214   1.107   0.236   2.467 -1.6920  0.5592  1.0654
 2540SOL    HW2 8215   1.052   0.134   2.370  0.1682  2.2257 -1.8202
 2541SOL     OW 8216   1.725   2.257   3.932 -0.2951 -0.2178  0.9337
 2541SOL    HW1 8217   1.757   2.335   3.978  1.9639 -1.0355  0.8357
 2541SOL    HW2 8218   1.697   2.198   4.002  0.6059 -0.3895  1.1631
 2542SOL     OW 8219   3.116   5.055   1.499  0.2249 -0.2824  0.2235
 2542SOL    HW1 8220   3.050   5.120   1.475 -1.1700 -1.1825  1.5139
 2542SOL    HW2 8221   3.200   5.100   1.489 -0.6338  1.1447 -0.6170
 2543SOL     OW 8222   2.866   1.610   3.107  0.4727 -0.5839  0.0334
 2543SOL    HW1 8223   2.957   1.623   3.132  0.7640 -1.5948 -0.4807
 2543SOL    HW2 8224   2.827   1.562   3.181 -0.0539  1.2246  0.9594
 2544SOL     OW 8225   5.662   6.214   0.523  0.4322  0.2070 -0.0828
 2544SOL    HW1 8226   5.574   6.216   0.561  0.0106  0.2909 -1.0422
 2544SOL    HW2 8227   5.696   6.127   0.547  0.1393  0.2183  0.3891
 2545SOL     OW 8228   0.260   2.634   0.825  0.1501  0.3705 -0.1291
 2545SOL    HW1 8229   0.258   2.729   0.839 -1.8775  0.1040  1.5652
 2545SOL    HW2 8230   0.289   2.598   0.909  0.7592 -0.5322 -0.7189
 2546SOL     OW 8231   1.793   7.217   1.644  0.1028 -0.3069 -0.1204
 2546SOL    HW1 8232   1.756   7.170   1.719  0.6722  0.4583  0.6501
 2546SOL    HW2 8233   1.740   7.189   1.569 -0.0425 -1.5911  0.4540
 2547SOL     OW 8234   0.738   2.205   6.868 -0.0443  0.2925 -0.2102
 2547SOL    HW1 8235   0.763   2.187   6.959  0.2059 -0.5406 -0.4377
 2547SOL    HW2 8236   0.657   2.255   6.876  0.3849  0.8884  0.4863
 2548SOL     OW 8237   7.120   6.795   1.571  0.3624 -0.0200  0.3356
 2548SOL    HW1 8238   7.198   6.803   1.626  0.0367 -0.7589  0.9229
 2548SOL    HW2 8239   7.054   6.756   1.629 -0.5653  0.9668 -0.0396
 2549SOL     OW 8240   4.718   3.194   0.564 -0.2143  0.0013 -0.0770
 2549SOL    HW1 8241   4.681   3.277   0.532 -1.1895 -0.4261 -0.0854
 2549SOL    HW2 8242   4.646   3.131   0.556  0.0445 -0.5000  1.3937
 2550SOL     OW 8243   0.588   2.109   3.788 -0.2545 -0.4626  0.3168
 2550SOL    HW1 8244   0.641   2.167   3.733 -1.3923  1.2529  0.9819
 2550SOL    HW2 8245   0.587   2.025   3.741  1.9609 -0.1586 -0.3279
 2551SOL     OW 8246   4.912   1.379   1.913  0.3201  0.0638 -0.0777
 2551SOL    HW1 8247   4.953   1.296   1.936  2.4101  1.1510  0.2322
 2551SOL    HW2 8248   4.923   1.386   1.818  0.7115  0.2605 -0.0212
 2552SOL     OW 8249   3.258   6.644   2.518  0.0188  0.0051  0.0894
 2552SOL    HW1 8250   3.345   6.606   2.527 -0.5360 -1.0359  1.1848
 2552SOL    HW2 8251   3.256   6.716   2.581  0.1656  0.1840 -0.1102
 2553SOL     OW 8252   0.933   5.060   4.128  0.4412  0.5710  0.0196
 2553SOL    HW1 8253   0.852   5.011   4.118  0.8905 -0.4704  1.2540
 2553SOL    HW2 8254   1.002   4.994   4.122  1.3827  1.7645 -3.5043
 2554SOL     OW 8255   7.255   7.096   3.736 -0.1570  0.5919 -0.1110
 2554SOL    HW1 8256   7.321   7.027   3.746 -0.1036  0.7491  0.6535
 2554SOL    HW2 8257   7.270   7.131   3.648  0.9967  0.8357  0.1631
 2555SOL     OW 8258   4.955   2.803   1.258  0.3514  0.0500 -0.1256
 2555SOL    HW1 8259   4.924   2.814   1.168  0.7575 -2.0354 -0.5460
 2555SOL    HW2 8260   4.906   2.868   1.308  1.3699  2.4315 -2.1139
 2556SOL     OW 8261   6.370   2.429   0.455  0.0879  0.0363 -0.3505
 2556SOL    HW1 8262   6.426   2.375   0.510  0.4152 -0.3463 -1.0627
 2556SOL    HW2 8263   6.290   2.440   0.506 -0.5592 -2.3297 -0.7974
 2557SOL     OW 8264   1.646   3.610   0.856 -0.0318  0.4385  0.1405
 2557SOL    HW1 8265   1.634   3.529   0.806  1.1255 -0.5620  1.4460
 2557SOL    HW2 8266   1.557   3.637   0.880 -0.5339  0.5396 -1.8281
 2558SOL     OW 8267   5.102   0.680   3.749 -0.1323  0.0661  0.2069
 2558SOL    HW1 8268   5.076   0.636   3.830  1.7831  1.5790  1.6981
 2558SOL    HW2 8269   5.026   0.731   3.723 -1.2406 -1.5041  0.2660
 2559SOL     OW 8270   1.012   3.232   0.394 -0.0323 -0.2504 -0.0600
 2559SOL    HW1 8271   1.066   3.243   0.472 -0.5186 -2.5954  0.6425
 2559SOL    HW2 8272   0.946   3.167   0.419 -0.4602 -0.7210 -2.2769
 2560SOL     OW 8273   3.233   4.890   1.172 -0.1509  0.5177 -0.4964
 2560SOL    HW1 8274   3.188   4.940   1.103  0.0782  0.3881 -0.7400
 2560SOL    HW2 8275   3.168   4.881   1.241  0.5776  3.3323  0.6192
 2561SOL     OW 8276   1.073   5.820   3.497  0.6356  0.5352 -0.2781
 2561SOL    HW1 8277   1.136   5.890   3.480 -1.1569  2.0330 -0.9292
 2561SOL    HW2 8278   1.038   5.839   3.583  1.6676 -0.8031  0.4713
 2562SOL     OW 8279   5.331   6.876   1.836 -0.1468  0.4489  0.5438
 2562SOL    HW1 8280   5.304   6.785   1.825  0.5164  0.4590 -1.2679
 2562SOL    HW2 8281   5.250   6.926   1.826  0.0490  0.2902 -2.1939
 2563SOL     OW 8282   6.581   3.902   0.407  0.4227 -0.4222 -0.0469
 2563SOL    HW1 8283   6.575   3.838   0.479 -0.2257  0.3344  0.5867
 2563SOL    HW2 8284   6.494   3.900   0.367  1.0929 -1.5817 -1.4659
 2564SOL     OW 8285   5.773   2.647   4.433 -0.6900 -0.0127  0.1094
 2564SOL    HW1 8286   5.778   2.552   4.421 -2.2187 -0.0092 -0.6461
 2564SOL    HW2 8287   5.847   2.668   4.490 -1.2996 -1.8701  1.5975
 2565SOL     OW 8288   3.837   2.324   6.191 -0.4412 -0.3712 -0.2722
 2565SOL    HW1 8289   3.832   2.298   6.099 -1.3306 -0.6298 -0.1529
 2565SOL    HW2 8290   3.831   2.419   6.190 -1.3327 -0.4229 -0.4283
 2566SOL     OW 8291   3.434   3.729   6.997  0.3675 -0.0220  0.0031
 2566SOL    HW1 8292   3.459   3.802   6.940 -2.4612 -0.0019 -1.2827
 2566SOL    HW2 8293   3.392   3.771   7.072  1.2095 -0.2099  0.5870
 2567SOL     OW 8294   5.032   0.946   2.506 -0.2554  0.3780  0.3874
 2567SOL    HW1 8295   5.052   0.972   2.416 -0.7841 -0.2245  0.0979
 2567SOL    HW2 8296   4.992   0.860   2.498  1.2037 -0.4158  1.3251
 2568SOL     OW 8297   0.616   6.237   4.571  0.1438  0.1460  0.2680
 2568SOL    HW1 8298   0.674   6.186   4.628 -1.5425  0.2014  2.1034
 2568SOL    HW2 8299   0.529   6.198   4.585 -0.2379 -0.2069 -2.7216
 2569SOL     OW 8300   7.245   1.121   1.027 -0.1644 -0.2792  0.0416
 2569SOL    HW1 8301   7.258   1.193   1.090  2.6028  0.4236 -1.2445
 2569SOL    HW2 8302   7.252   1.042   1.080 -1.3123  0.3576  1.1732
 2570SOL     OW 8303   1.495   3.408   5.500 -0.0163  0.2519  0.2763
 2570SOL    HW1 8304   1.434   3.455   5.444 -0.1170  1.8489  1.7002
 2570SOL    HW2 8305   1.562   3.376   5.440 -1.0556  0.4029 -0.9908
 2571SOL     OW 8306   1.445   5.640   0.140  0.5559  0.0269 -0.0420
 2571SOL    HW1 8307   1.389   5.651   0.217  1.1060  3.4104 -0.0800
 2571SOL    HW2 8308   1.534   5.646   0.174  0.9431 -3.0263 -0.3384
 2572SOL     OW 8309   3.772   6.816   5.561  0.1856 -0.2090 -0.3820
 2572SOL    HW1 8310   3.773   6.722   5.582 -1.1799 -0.5091 -1.5381
 2572SOL    HW2 8311   3.688   6.847   5.595 -0.5863 -0.0103 -2.4126
 2573SOL     OW 8312   2.794   4.417   1.225 -0.0091  0.3990  0.2994
 2573SOL    HW1 8313   2.703   4.431   1.199 -0.1841  0.8896  1.1516
 2573SOL    HW2 8314   2.814   4.328   1.195 -0.7365  0.3230  0.0259
 2574SOL     OW 8315   1.696   1.356   6.491 -0.0034 -0.3602 -0.1595
 2574SOL    HW1 8316   1.688   1.349   6.396 -0.5315  0.8445 -0.2075
 2574SOL    HW2 8317   1.770   1.415   6.505 -0.4251  0.0982  0.1637
 2575SOL     OW 8318   6.061   3.374   3.233 -0.1372  0.3558 -0.0495
 2575SOL    HW1 8319   6.067   3.363   3.138 -0.2211 -1.6996  0.1547
 2575SOL    HW2 8320   6.018   3.458   3.245  0.4610  0.9385 -1.8292
 2576SOL     OW 8321   3.267   2.288   6.430  0.1102  0.1653  0.5275
 2576SOL    HW1 8322   3.292   2.319   6.342 -2.6153  1.5272  0.1861
 2576SOL    HW2 8323   3.245   2.196   6.418 -3.3038  1.1134 -0.9061
 2577SOL     OW 8324   1.763   4.421   5.115  0.1259  0.1079  0.4654
 2577SOL    HW1 8325   1.762   4.513   5.088  0.5862 -0.4477 -1.5645
 2577SOL    HW2 8326   1.783   4.373   5.034 -2.0609 -1.9086  1.0571
 2578SOL     OW 8327   2.001   6.369   1.615 -0.1284  0.2522  0.5386
 2578SOL    HW1 8328   1.975   6.305   1.549  1.7843  0.3493 -0.3412
 2578SOL    HW2 8329   1.964   6.336   1.697 -0.6264 -1.0546 -0.2050
 2579SOL     OW 8330   0.651   1.739   3.851  0.4968  0.5879 -0.1683
 2579SOL    HW1 8331   0.629   1.778   3.766 -1.9615 -1.5267 -0.5580
 2579SOL    HW2 8332   0.660   1.645   3.834  0.9587  0.2501  1.7406
 2580SOL     OW 8333   1.111   2.832   2.043  0.4507  0.2931  0.0621
 2580SOL    HW1 8334   1.088   2.879   2.124  1.0096  2.1982 -0.8517
 2580SOL    HW2 8335   1.027   2.821   1.998  0.3492  0.6586  0.1603
 2581SOL     OW 8336   6.671   6.954   3.543  0.2709 -0.3136  0.4201
 2581SOL    HW1 8337   6.641   7.041   3.517  1.0766 -0.2526 -0.3497
 2581SOL    HW2 8338   6.766   6.956   3.527  0.4938 -0.9105  1.6049
 2582SOL     OW 8339   7.100   3.423   3.342  0.5894 -0.4705 -0.5886
 2582SOL    HW1 8340   7.174   3.413   3.283 -0.7581 -0.4490 -2.3208
 2582SOL    HW2 8341   7.042   3.350   3.320  0.6537 -1.2219  1.6015
 2583SOL     OW 8342   5.950   2.807   1.383  0.2323 -0.0667 -0.1664
 2583SOL    HW1 8343   5.900   2.808   1.301 -1.8050  1.4547  1.0652
 2583SOL    HW2 8344   5.920   2.728   1.428 -1.3418  1.0184  0.7187
 2584SOL     OW 8345   3.756   6.532   2.310 -0.5410 -0.2786  0.3789
 2584SOL    HW1 8346   3.767   6.461   2.247 -3.2716  0.2212 -0.7052
 2584SOL    HW2 8347   3.846   6.561   2.329  0.4046 -1.5315 -1.9773
 2585SOL     OW 8348   2.061   3.462   1.377  0.4909 -0.6187 -1.0746
 2585SOL    HW1 8349   2.140   3.464   1.323  0.3989  0.2557 -1.1942
 2585SOL    HW2 8350   1.989   3.467   1.314  0.3769  0.1334 -0.8883
 2586SOL     OW 8351   5.716   3.829   3.403 -0.1753  0.0265 -0.1827
 2586SOL    HW1 8352   5.735   3.762   3.468 -1.3599  0.7152  0.9010
 2586SOL    HW2 8353   5.802   3.862   3.376  0.3823 -1.4507 -0.2508
 2587SOL     OW 8354   4.687   1.507   5.695 -0.3470  0.1133 -0.1279
 2587SOL    HW1 8355   4.690   1.603   5.696 -1.0216  0.1298  0.0870
 2587SOL    HW2 8356   4.611   1.484   5.748  1.3359 -0.6286  1.9981
 2588SOL     OW 8357   6.123   4.003   4.571  0.1239 -0.2002 -0.5045
 2588SOL    HW1 8358   6.069   4.076   4.541 -0.1410  0.2428  1.0365
 2588SOL    HW2 8359   6.061   3.944   4.614  0.7286 -0.1228  0.4736
 2589SOL     OW 8360   2.694   0.564   2.313  0.2163 -0.1664  0.3377
 2589SOL    HW1 8361   2.684   0.655   2.340  0.4802 -0.3000  0.9050
 2589SOL    HW2 8362   2.729   0.520   2.391  1.1792 -0.5242 -0.2865
 2590SOL     OW 8363   2.800   1.393   1.913  0.4038  0.6475  0.2398
 2590SOL    HW1 8364   2.867   1.447   1.871  0.8411 -0.8510 -1.0317
 2590SOL    HW2 8365   2.839   1.306   1.917 -0.2671  0.4070  2.3270
 2591SOL     OW 8366   1.932   5.824   2.509 -0.2433  0.3277 -0.4964
 2591SOL    HW1 8367   1.968   5.746   2.466  0.7091  1.1111 -1.1378
 2591SOL    HW2 8368   1.935   5.892   2.441 -1.0919  0.9087  0.0520
 2592SOL     OW 8369   5.257   0.159   5.353 -0.0374  0.0301 -0.0150
 2592SOL    HW1 8370   5.308   0.155   5.272  2.3490  1.0660  1.3721
 2592SOL    HW2 8371   5.224   0.249   5.356 -0.9360 -0.2828 -0.2873
 2593SOL     OW 8372   4.330   2.614   2.615  0.3195  0.4970  0.0882
 2593SOL    HW1 8373   4.239   2.623   2.643  0.5983  1.7707  0.6215
 2593SOL    HW2 8374   4.326   2.557   2.538 -0.8133 -0.3109  0.7229
 2594SOL     OW 8375   2.106   4.026   5.516 -0.0519  0.7875 -0.6614
 2594SOL    HW1 8376   2.120   3.935   5.492 -3.2196  0.8318 -2.9041
 2594SOL    HW2 8377   2.101   4.025   5.612 -1.2486 -1.5828 -0.7282
 2595SOL     OW 8378   5.419   5.459   0.735  0.0261  0.4956 -0.0270
 2595SOL    HW1 8379   5.476   5.420   0.801 -2.7938 -1.0189  1.6132
 2595SOL    HW2 8380   5.410   5.550   0.763 -0.2471  0.1444  1.0786
 2596SOL     OW 8381   4.080   5.936   1.461 -0.0685  0.1092 -0.5417
 2596SOL    HW1 8382   4.077   6.028   1.437  0.2828  0.1947 -0.2655
 2596SOL    HW2 8383   3.996   5.901   1.432 -0.4605  0.6541 -0.0935
 2597SOL     OW 8384   0.820   5.688   1.875 -0.6247 -0.3119 -0.0909
 2597SOL    HW1 8385   0.820   5.593   1.862 -0.6366 -0.1586 -1.2364
 2597SOL    HW2 8386   0.893   5.703   1.936 -0.6414 -1.0530  0.1254
 2598SOL     OW 8387   4.711   2.924   5.015 -0.1520  0.0414 -0.7405
 2598SOL    HW1 8388   4.696   2.996   5.077  0.9924  0.6960 -1.2173
 2598SOL    HW2 8389   4.741   2.851   5.070  0.8297  0.6117 -0.5139
 2599SOL     OW 8390   6.473   0.371   0.556 -0.1965 -0.1597 -0.2490
 2599SOL    HW1 8391   6.498   0.415   0.474 -0.1577  1.3811  0.5643
 2599SOL    HW2 8392   6.379   0.388   0.564  0.1704  1.3957  1.0087
 2600SOL     OW 8393   4.257   5.446   4.980  0.1275 -0.3277  0.0257
 2600SOL    HW1 8394   4.257   5.442   5.076  0.3433 -0.8920  0.0051
 2600SOL    HW2 8395   4.349   5.434   4.956  0.0405 -0.4167 -0.2599
 2601SOL     OW 8396   4.632   4.099   6.181 -0.0534  0.1283  0.5229
 2601SOL    HW1 8397   4.672   4.185   6.198 -0.3873  0.3285  0.3059
 2601SOL    HW2 8398   4.695   4.036   6.215  1.6859  0.3332 -2.1621
 2602SOL     OW 8399   0.687   5.949   3.591  0.1659  0.0742  0.1054
 2602SOL    HW1 8400   0.642   5.958   3.675  1.1744  0.3145  0.6327
 2602SOL    HW2 8401   0.682   5.856   3.570  1.2680 -0.2398  1.2076
 2603SOL     OW 8402   6.484   6.510   3.152  0.1174 -0.1222  0.5082
 2603SOL    HW1 8403   6.410   6.506   3.092 -0.9492  0.1220  1.7750
 2603SOL    HW2 8404   6.507   6.418   3.167 -1.4189 -0.3035  1.8817
 2604SOL     OW 8405   0.917   6.447   2.729  0.1936 -0.1446  0.1532
 2604SOL    HW1 8406   0.850   6.382   2.707 -0.2130  0.5379 -0.6253
 2604SOL    HW2 8407   0.868   6.523   2.761  0.5764  0.5086 -0.8031
 2605SOL     OW 8408   2.646   0.825   2.404 -0.6632  0.8031  0.2120
 2605SOL    HW1 8409   2.608   0.870   2.480 -0.4533  1.3055  0.0219
 2605SOL    HW2 8410   2.640   0.889   2.333 -0.8338  0.3410 -0.1866
 2606SOL     OW 8411   4.819   2.768   0.022 -0.0472  0.0915 -0.4683
 2606SOL    HW1 8412   4.887   2.834   0.027  0.9110 -0.7913 -1.4559
 2606SOL    HW2 8413   4.765   2.795  -0.053 -0.6983  0.6972  0.2086
 2607SOL     OW 8414   5.438   7.115   2.057 -0.1510 -0.2041 -0.0403
 2607SOL    HW1 8415   5.469   7.166   2.132 -0.5995  1.4602 -0.9674
 2607SOL    HW2 8416   5.374   7.055   2.094  0.2883 -0.0161  1.0537
 2608SOL     OW 8417   1.781   4.323   5.374  0.9144 -0.0358 -0.6871
 2608SOL    HW1 8418   1.740   4.329   5.288 -0.6623  1.8420  0.1627
 2608SOL    HW2 8419   1.792   4.414   5.402  0.8272 -0.6225  1.3519
 2609SOL     OW 8420   3.464   1.757   6.180  0.2702 -0.3608 -0.1703
 2609SOL    HW1 8421   3.547   1.710   6.190  0.1407 -0.8087 -1.1323
 2609SOL    HW2 8422   3.463   1.785   6.088 -1.0892 -1.2166 -0.4284
 2610SOL     OW 8423   0.110   5.566   6.189 -0.9119  0.2414  0.4155
 2610SOL    HW1 8424   0.048   5.553   6.261  1.9393 -1.2112  2.7245
 2610SOL    HW2 8425   0.158   5.645   6.212  1.6572 -1.5519  1.4111
 2611SOL     OW 8426   5.754   3.190   0.906  0.6401 -0.2329 -0.1892
 2611SOL    HW1 8427   5.681   3.239   0.944  0.5487 -0.3125 -0.2625
 2611SOL    HW2 8428   5.762   3.225   0.817 -0.4125 -1.4277 -0.7563
 2612SOL     OW 8429   5.099   4.055   5.065  0.2237 -0.2312 -0.1430
 2612SOL    HW1 8430   5.117   3.971   5.023  0.1750 -0.2596 -0.1068
 2612SOL    HW2 8431   5.131   4.044   5.154 -1.0350 -0.6789  0.2552
 2613SOL     OW 8432   4.755   1.477   3.268  0.4699  0.1461 -0.1716
 2613SOL    HW1 8433   4.757   1.515   3.355 -1.1332  0.5110 -0.2787
 2613SOL    HW2 8434   4.762   1.383   3.282 -0.7879  0.1317  0.4308
 2614SOL     OW 8435   1.321   5.013   3.208  0.8954  0.1688 -0.2422
 2614SOL    HW1 8436   1.413   5.033   3.193  0.2373  2.4741 -1.5034
 2614SOL    HW2 8437   1.316   4.991   3.301  1.9628  5.0207  1.1056
 2615SOL     OW 8438   6.735   0.788   2.207 -0.0393  0.0644  0.1758
 2615SOL    HW1 8439   6.667   0.851   2.181  0.2128  0.3851  0.2958
 2615SOL    HW2 8440   6.806   0.802   2.145  0.6523  0.9810  1.1525
 2616SOL     OW 8441   7.109   3.192   6.642 -0.3332 -0.3584  0.1865
 2616SOL    HW1 8442   7.165   3.230   6.709 -1.2264  0.8201  0.2820
 2616SOL    HW2 8443   7.136   3.234   6.560  0.2949 -1.2922 -0.0960
 2617SOL     OW 8444   2.598   0.529   4.861  0.0598  0.0472  0.8141
 2617SOL    HW1 8445   2.667   0.591   4.834  0.7156 -0.1221  2.1022
 2617SOL    HW2 8446   2.581   0.550   4.953 -0.1541 -1.2993  1.0820
 2618SOL     OW 8447   3.659   4.861   2.420  0.1097  0.1919  0.2574
 2618SOL    HW1 8448   3.703   4.928   2.473 -0.1891 -1.8429  3.2370
 2618SOL    HW2 8449   3.725   4.793   2.406 -0.2032  0.1104 -0.8832
 2619SOL     OW 8450   6.101   2.435   1.357 -0.5698 -0.0846  0.6769
 2619SOL    HW1 8451   6.009   2.444   1.383 -0.4961 -0.9198  1.2449
 2619SOL    HW2 8452   6.118   2.512   1.303 -1.6950 -0.0880  0.3014
 2620SOL     OW 8453   6.710   2.790   2.505  0.1829  0.6697 -0.3979
 2620SOL    HW1 8454   6.620   2.811   2.480  0.4162  0.7303 -1.1787
 2620SOL    HW2 8455   6.764   2.852   2.456  0.7686 -0.6539 -1.4264
 2621SOL     OW 8456   5.535   2.383   5.091 -0.4220  0.1195 -0.4736
 2621SOL    HW1 8457   5.440   2.387   5.102 -0.2257  0.6829  1.3003
 2621SOL    HW2 8458   5.554   2.447   5.022 -1.2825  0.4466 -0.4161
 2622SOL     OW 8459   3.684   3.143   0.736  0.1780 -0.7159 -0.4487
 2622SOL    HW1 8460   3.624   3.080   0.696  0.1822 -1.1737  0.2655
 2622SOL    HW2 8461   3.711   3.199   0.664  0.6525 -1.9046 -1.2000
 2623SOL     OW 8462   3.775   0.263   6.191 -0.1506  0.2832  0.0097
 2623SOL    HW1 8463   3.705   0.198   6.201  0.3699 -0.1803  0.7937
 2623SOL    HW2 8464   3.825   0.256   6.273  2.0681 -0.9092 -1.3847
 2624SOL     OW 8465   0.855   5.071   0.913 -0.2771  0.0595 -0.1671
 2624SOL    HW1 8466   0.946   5.087   0.936 -0.2013 -0.3215 -0.2022
 2624SOL    HW2 8467   0.856   5.059   0.818 -0.0969 -1.7525  0.0501
 2625SOL     OW 8468   4.601   7.240   4.022 -0.5351  0.2250  0.4913
 2625SOL    HW1 8469   4.510   7.246   4.048 -0.7201  0.2707 -0.1618
 2625SOL    HW2 8470   4.601   7.260   3.928 -0.1582 -1.8974  0.0050
 2626SOL     OW 8471   2.000   3.368   5.022  0.4752 -0.0120  0.1532
 2626SOL    HW1 8472   2.048   3.446   4.993  1.3183 -0.8128 -0.6267
 2626SOL    HW2 8473   2.035   3.351   5.110  0.7013  0.1401  0.0941
 2627SOL     OW 8474   2.663   6.375   0.202  0.0779  0.4088  0.5358
 2627SOL    HW1 8475   2.661   6.348   0.110 -1.7773 -0.5187  0.8283
 2627SOL    HW2 8476   2.573   6.401   0.221  0.0400 -1.1407  2.5893
 2628SOL     OW 8477   4.267   1.260   0.639  0.1776  0.3753 -0.6355
 2628SOL    HW1 8478   4.332   1.330   0.632  0.3653  0.1310 -1.3277
 2628SOL    HW2 8479   4.286   1.220   0.724 -0.1015  1.3247 -0.1148
 2629SOL     OW 8480   4.180   6.708   6.614 -0.2012 -0.0923 -0.0489
 2629SOL    HW1 8481   4.249   6.658   6.657 -0.5657 -0.6830 -0.1520
 2629SOL    HW2 8482   4.188   6.687   6.521 -0.5609 -0.2214 -0.0534
 2630SOL     OW 8483   1.580   4.925   0.024  0.7642 -0.1954  0.3085
 2630SOL    HW1 8484   1.545   4.978   0.095  0.7605 -0.9143  0.8509
 2630SOL    HW2 8485   1.626   4.853   0.067  1.9699  0.1262 -0.4032
 2631SOL     OW 8486   4.085   4.115   3.237  0.2227  0.1546  0.4512
 2631SOL    HW1 8487   4.085   4.032   3.189 -0.0925 -1.0006  2.4019
 2631SOL    HW2 8488   4.157   4.165   3.199  0.0089 -0.7481 -1.1776
 2632SOL     OW 8489   1.915   5.597   4.724  0.2078  0.1918 -0.2400
 2632SOL    HW1 8490   1.964   5.620   4.803  0.3035 -1.1778  0.1144
 2632SOL    HW2 8491   1.831   5.565   4.755 -0.5510  1.6294 -0.8055
 2633SOL     OW 8492   2.116   5.240   4.582 -0.4296 -0.2312  0.5263
 2633SOL    HW1 8493   2.099   5.277   4.495  0.2766  0.1632  0.5493
 2633SOL    HW2 8494   2.093   5.148   4.574  0.1851 -0.3252 -0.2478
 2634SOL     OW 8495   0.879   7.251   1.217 -0.1047  0.4262  0.4492
 2634SOL    HW1 8496   0.939   7.254   1.291  0.7709 -0.5040 -0.2011
 2634SOL    HW2 8497   0.859   7.158   1.206  0.1187  0.5080 -0.7406
 2635SOL     OW 8498   3.100   3.666   3.783 -0.1731 -0.3096  0.0081
 2635SOL    HW1 8499   3.040   3.731   3.749  0.3358  0.1049 -0.1078
 2635SOL    HW2 8500   3.052   3.583   3.778 -0.5546 -0.0558 -0.5169
 2636SOL     OW 8501   6.660   4.654   1.401 -0.2140 -0.4019 -0.2336
 2636SOL    HW1 8502   6.685   4.663   1.493  0.3459 -3.1784 -0.0900
 2636SOL    HW2 8503   6.716   4.716   1.354  3.4874 -2.9314  0.6616
 2637SOL     OW 8504   2.768   1.187   4.536  0.8032 -0.2827 -0.1822
 2637SOL    HW1 8505   2.703   1.159   4.473  3.3158  0.2475 -3.1617
 2637SOL    HW2 8506   2.804   1.268   4.499  0.8895  1.2489  3.0317
 2638SOL     OW 8507   0.425   4.513   4.605  0.5101  0.2863  0.3306
 2638SOL    HW1 8508   0.432   4.582   4.671 -0.1623  0.8984 -0.2234
 2638SOL    HW2 8509   0.340   4.471   4.623 -0.2993  1.3220 -0.9461
 2639SOL     OW 8510   0.228   3.468   6.569 -0.6855  0.3500  0.2471
 2639SOL    HW1 8511   0.301   3.509   6.521 -1.4071  0.0768 -1.1116
 2639SOL    HW2 8512   0.268   3.397   6.617 -0.2134 -0.5600 -1.4401
 2640SOL     OW 8513   4.035   2.720   2.601 -0.2978 -0.1817  0.0489
 2640SOL    HW1 8514   3.956   2.677   2.631 -0.5950  1.5489  1.8452
 2640SOL    HW2 8515   4.016   2.814   2.608  1.3900  0.2618 -0.8999
 2641SOL     OW 8516   4.047   0.969   1.860  0.4887 -0.3325 -0.4488
 2641SOL    HW1 8517   3.966   0.988   1.812  0.6728  0.5794 -0.4158
 2641SOL    HW2 8518   4.025   0.986   1.951  0.9624  0.7783 -0.5373
 2642SOL     OW 8519   5.816   0.290   3.253  0.0563  0.2032  0.2298
 2642SOL    HW1 8520   5.738   0.346   3.248  1.2230  1.7475 -1.8754
 2642SOL    HW2 8521   5.808   0.244   3.336 -3.5066 -0.2813 -0.3096
 2643SOL     OW 8522   1.592   1.756   0.005 -0.0460 -0.3895 -0.0468
 2643SOL    HW1 8523   1.642   1.680  -0.024 -1.2878 -2.2721  2.5488
 2643SOL    HW2 8524   1.645   1.794   0.076 -0.3316  0.0524 -0.0672
 2644SOL     OW 8525   6.503   3.079   5.702 -0.7326 -0.1294 -0.2796
 2644SOL    HW1 8526   6.527   3.141   5.771 -0.7634 -0.1445 -0.2543
 2644SOL    HW2 8527   6.568   3.010   5.708 -2.1747 -1.3987  1.4171
 2645SOL     OW 8528   4.976   5.532   2.248  0.2881  0.1822 -0.6708
 2645SOL    HW1 8529   5.055   5.485   2.275  0.9011  1.3829 -0.3073
 2645SOL    HW2 8530   4.905   5.469   2.259  0.9773 -0.3926  0.6316
 2646SOL     OW 8531   0.629   7.075   0.314 -0.0693  0.2349  0.1191
 2646SOL    HW1 8532   0.679   7.074   0.232  3.0767  1.1335  1.9352
 2646SOL    HW2 8533   0.630   7.166   0.342 -0.0134 -0.2531  1.7602
 2647SOL     OW 8534   6.406   3.089   5.248  0.1986 -0.0738 -0.0287
 2647SOL    HW1 8535   6.485   3.142   5.233 -0.2464  1.0197  1.4210
 2647SOL    HW2 8536   6.363   3.131   5.322 -1.5883 -0.8743 -0.6056
 2648SOL     OW 8537   5.666   6.673   3.400  0.4722 -0.0518  0.2258
 2648SOL    HW1 8538   5.602   6.615   3.358 -0.3776  0.7951  0.3399
 2648SOL    HW2 8539   5.698   6.623   3.474  1.5708 -1.3485 -1.0967
 2649SOL     OW 8540   5.539   6.519   1.585  0.5285 -0.6337  0.2053
 2649SOL    HW1 8541   5.561   6.589   1.524 -0.0915 -0.7131 -0.1096
 2649SOL    HW2 8542   5.607   6.525   1.653  0.8105 -0.0999 -0.1170
 2650SOL     OW 8543   4.163   3.853   2.556  0.2806  0.0970 -0.1693
 2650SOL    HW1 8544   4.091   3.827   2.613  0.5865 -2.1232 -0.7486
 2650SOL    HW2 8545   4.134   3.829   2.468  0.4973  1.9642 -0.7668
 2651SOL     OW 8546   1.279   4.638   5.669 -0.8844 -0.4263 -0.0709
 2651SOL    HW1 8547   1.250   4.648   5.759 -0.4464  0.9836 -0.0739
 2651SOL    HW2 8548   1.210   4.679   5.617  0.5312  1.9666 -0.1439
 2652SOL     OW 8549   0.787   0.334   2.666  0.1287  0.1568 -0.1901
 2652SOL    HW1 8550   0.875   0.370   2.673  0.6880 -0.8498 -2.0114
 2652SOL    HW2 8551   0.799   0.244   2.637 -1.5479  0.3352 -1.5120
 2653SOL     OW 8552   3.507   1.220   2.600 -0.2073 -0.0451 -0.4346
 2653SOL    HW1 8553   3.559   1.231   2.680  1.1382 -0.8487 -1.1788
 2653SOL    HW2 8554   3.473   1.307   2.581  1.1372  0.5591 -0.1095
 2654SOL     OW 8555   1.376   3.095   5.313 -0.5424 -0.0841 -0.2158
 2654SOL    HW1 8556   1.342   3.172   5.359 -2.1760 -0.8159 -0.1440
 2654SOL    HW2 8557   1.352   3.110   5.221  0.3929  0.1475 -0.4270
 2655SOL     OW 8558   3.566   2.820   4.058  0.8318  0.0697 -0.6753
 2655SOL    HW1 8559   3.633   2.888   4.055 -0.5655  1.5028 -0.4059
 2655SOL    HW2 8560   3.597   2.758   4.124  2.6856 -0.1786 -1.7444
 2656SOL     OW 8561   6.636   4.051   2.992 -0.3372  0.2168 -0.0435
 2656SOL    HW1 8562   6.622   3.968   2.947  0.4203 -0.0002  0.1005
 2656SOL    HW2 8563   6.558   4.064   3.045 -1.1527  0.3836 -1.2802
 2657SOL     OW 8564   3.765   2.116   5.140  0.8464 -0.3761  0.0323
 2657SOL    HW1 8565   3.732   2.047   5.083 -1.0484  0.2170  0.3502
 2657SOL    HW2 8566   3.780   2.190   5.081  1.2917 -0.5364 -0.0591
 2658SOL     OW 8567   5.128   3.758   0.548  0.1317 -0.2620  0.3357
 2658SOL    HW1 8568   5.157   3.792   0.464 -1.1286  0.9368  0.3761
 2658SOL    HW2 8569   5.153   3.665   0.546 -0.4961 -0.3973 -1.6188
 2659SOL     OW 8570   6.842   2.899   1.648  0.0346 -0.1851 -0.0330
 2659SOL    HW1 8571   6.786   2.840   1.698  0.4206 -0.8810 -0.4163
 2659SOL    HW2 8572   6.931   2.878   1.676  0.2559 -0.5604 -0.9775
 2660SOL     OW 8573   2.172   3.500   3.113  0.2978 -0.0927  0.0662
 2660SOL    HW1 8574   2.096   3.514   3.169  0.4297  0.7045  0.0516
 2660SOL    HW2 8575   2.178   3.405   3.104 -2.4164 -0.1000 -2.3280
 2661SOL     OW 8576   2.622   2.078   2.498 -0.3075 -0.2226  0.6148
 2661SOL    HW1 8577   2.604   2.011   2.563 -1.4494  0.4076  0.9725
 2661SOL    HW2 8578   2.539   2.088   2.450 -0.6232  1.9270  1.5220
 2662SOL     OW 8579   6.475   0.690   3.480 -0.3975  0.1505  0.2400
 2662SOL    HW1 8580   6.400   0.686   3.539 -0.1539 -0.2439  0.5296
 2662SOL    HW2 8581   6.506   0.599   3.475  0.1815  0.3454  0.2885
 2663SOL     OW 8582   1.971   1.437   6.853 -0.0063  0.2828 -0.2546
 2663SOL    HW1 8583   1.934   1.517   6.890 -0.6453 -0.9859  1.9497
 2663SOL    HW2 8584   1.919   1.367   6.892  1.2361 -1.2596 -1.3270
 2664SOL     OW 8585   3.108   3.737   6.782 -0.1636  0.1468 -0.0603
 2664SOL    HW1 8586   3.115   3.790   6.861 -1.1091 -0.6089  0.5438
 2664SOL    HW2 8587   3.019   3.753   6.749 -1.0285 -2.2143  0.9997
 2665SOL     OW 8588   1.023   4.539   3.070  0.1341 -0.2307  0.8284
 2665SOL    HW1 8589   0.950   4.563   3.012  0.4230  0.0608  0.5767
 2665SOL    HW2 8590   1.077   4.618   3.072 -0.0277 -0.1463  1.7409
 2666SOL     OW 8591   3.064   2.885   4.420  0.5506  0.3161  0.0702
 2666SOL    HW1 8592   3.111   2.894   4.503  1.3370  1.3827 -0.4798
 2666SOL    HW2 8593   3.114   2.938   4.358 -0.4191  0.0796 -0.9298
 2667SOL     OW 8594   0.201   6.263   4.042 -0.3222  0.2164 -0.0645
 2667SOL    HW1 8595   0.288   6.243   4.078 -1.3953 -1.4882  1.6863
 2667SOL    HW2 8596   0.156   6.179   4.038 -1.7293  1.0057 -1.4342
 2668SOL     OW 8597   0.960   6.856   1.686 -0.2556  0.0362  0.6483
 2668SOL    HW1 8598   0.957   6.767   1.651 -1.4265 -0.2367  1.3949
 2668SOL    HW2 8599   0.894   6.904   1.637 -0.2874  0.2482  0.8951
 2669SOL     OW 8600   5.155   2.346   3.723  0.1219 -0.0505 -0.3318
 2669SOL    HW1 8601   5.081   2.377   3.672 -0.7228 -1.1300  0.2123
 2669SOL    HW2 8602   5.232   2.389   3.684 -0.8626  1.6909 -0.4017
 2670SOL     OW 8603   1.855   5.184   5.585 -0.7994 -0.0210 -0.5986
 2670SOL    HW1 8604   1.777   5.130   5.572 -1.1206  0.3504 -0.2378
 2670SOL    HW2 8605   1.845   5.219   5.673  0.3790 -0.9333 -0.0933
 2671SOL     OW 8606   2.397   1.419   3.196 -0.2451 -0.5260  0.2404
 2671SOL    HW1 8607   2.443   1.423   3.280 -1.1313 -1.4311  0.7828
 2671SOL    HW2 8608   2.399   1.326   3.173 -0.9658 -0.4285 -0.2030
 2672SOL     OW 8609   6.408   6.683   4.262 -0.5155 -0.0299  0.6507
 2672SOL    HW1 8610   6.398   6.624   4.336  3.2625 -1.2612  0.2740
 2672SOL    HW2 8611   6.415   6.626   4.186  0.9502  0.9873  0.0057
 2673SOL     OW 8612   3.284   6.429   2.181 -0.0714 -0.6206 -0.0483
 2673SOL    HW1 8613   3.295   6.371   2.256 -0.5166  1.5694  1.7994
 2673SOL    HW2 8614   3.358   6.490   2.188 -1.3744  1.0010 -0.0114
 2674SOL     OW 8615   2.728   1.378   0.163 -0.3708  0.0769  0.0093
 2674SOL    HW1 8616   2.700   1.311   0.099 -1.4000 -0.3804  0.9181
 2674SOL    HW2 8617   2.664   1.371   0.234  1.0030  0.2992  1.2940
 2675SOL     OW 8618   6.944   1.892   5.823  0.1400  1.0975  0.2863
 2675SOL    HW1 8619   6.895   1.914   5.902 -0.3460  2.2355 -0.3180
 2675SOL    HW2 8620   7.021   1.949   5.825  0.0421  1.2472 -0.1481
 2676SOL     OW 8621   1.633   0.506   5.507  0.1381  0.7243  0.2233
 2676SOL    HW1 8622   1.639   0.574   5.441  1.3489 -0.9090 -1.4054
 2676SOL    HW2 8623   1.566   0.446   5.474  1.2984 -0.5157  0.0488
 2677SOL     OW 8624   5.616   2.052   6.415  0.1971  0.0747  0.5538
 2677SOL    HW1 8625   5.648   1.964   6.432  3.1206  0.6431 -1.5232
 2677SOL    HW2 8626   5.532   2.039   6.370  0.0970 -1.6145  1.2033
 2678SOL     OW 8627   4.697   1.058   2.171 -0.4936 -0.3703 -0.1318
 2678SOL    HW1 8628   4.709   0.983   2.112 -1.5923 -0.1176 -0.6943
 2678SOL    HW2 8629   4.781   1.066   2.216  0.6261 -0.1538 -2.1636
 2679SOL     OW 8630   4.655   4.087   3.154  0.2746 -0.4190  0.2239
 2679SOL    HW1 8631   4.581   4.028   3.167  0.6077 -1.0025 -0.5048
 2679SOL    HW2 8632   4.730   4.030   3.139  0.8459  0.1736  0.7843
 2680SOL     OW 8633   0.620   4.413   4.876 -0.0697  0.0892 -0.0316
 2680SOL    HW1 8634   0.553   4.372   4.931  0.0219  0.3793  0.2956
 2680SOL    HW2 8635   0.630   4.501   4.911 -0.8209  0.6585 -1.2254
 2681SOL     OW 8636   4.677   5.250   4.464 -0.0148 -0.1427 -0.1994
 2681SOL    HW1 8637   4.655   5.274   4.554 -0.2481 -0.4740 -0.1698
 2681SOL    HW2 8638   4.600   5.274   4.413 -0.2436 -0.8197 -0.1730
 2682SOL     OW 8639   3.590   1.991   2.907 -0.0465  0.3647 -0.0805
 2682SOL    HW1 8640   3.625   2.056   2.968  0.1169  0.9648 -0.8106
 2682SOL    HW2 8641   3.582   1.911   2.959 -3.1812  1.7253  1.6914
 2683SOL     OW 8642   4.477   3.534   7.115  0.1386  0.4718  0.6278
 2683SOL    HW1 8643   4.398   3.570   7.077 -0.5784  1.1718  2.7046
 2683SOL    HW2 8644   4.447   3.477   7.185  1.4458  0.0601  0.8787
 2684SOL     OW 8645   0.057   2.426   1.047  0.2814 -0.1951  0.0945
 2684SOL    HW1 8646   0.070   2.335   1.075  0.1847 -0.4126 -0.5720
 2684SOL    HW2 8647  -0.037   2.434   1.034  0.3706 -0.2036 -0.5517
 2685SOL     OW 8648   4.644   1.461   1.679 -0.3900  0.1511 -0.1892
 2685SOL    HW1 8649   4.620   1.368   1.672 -3.0778  0.9359 -2.4252
 2685SOL    HW2 8650   4.714   1.472   1.615  0.4267 -0.4637  0.5836
 2686SOL     OW 8651   6.997   2.011   4.623 -0.3113 -0.1739 -0.2399
 2686SOL    HW1 8652   6.970   1.924   4.592  0.1090 -0.5430  0.4259
 2686SOL    HW2 8653   7.006   2.001   4.717 -0.3989  0.6367 -0.1476
 2687SOL     OW 8654   1.640   1.637   2.919 -0.3880 -0.5834  0.0073
 2687SOL    HW1 8655   1.640   1.711   2.858 -0.5722  0.1793  0.9224
 2687SOL    HW2 8656   1.732   1.623   2.941 -0.4011 -0.2177  0.3092
 2688SOL     OW 8657   6.272   1.775   2.318  0.3100 -0.6313 -0.5533
 2688SOL    HW1 8658   6.364   1.747   2.326 -0.1923 -1.9975  0.9234
 2688SOL    HW2 8659   6.277   1.866   2.291  2.1439 -0.3837  0.4841
 2689SOL     OW 8660   6.707   3.396   5.685 -0.1598  0.4195 -0.1785
 2689SOL    HW1 8661   6.720   3.440   5.601 -0.7781 -0.9551 -1.0243
 2689SOL    HW2 8662   6.770   3.325   5.685  1.1738  1.5788  1.3976
 2690SOL     OW 8663   0.534   4.506   6.408  0.0609 -0.4018 -0.4590
 2690SOL    HW1 8664   0.577   4.473   6.329  0.5167  1.6497 -1.0891
 2690SOL    HW2 8665   0.452   4.544   6.377  0.3472  0.6179  0.0104
 2691SOL     OW 8666   5.564   6.548   4.731 -0.4261 -0.1341  0.0219
 2691SOL    HW1 8667   5.530   6.506   4.810  3.6309 -1.4295  1.1944
 2691SOL    HW2 8668   5.602   6.630   4.762 -0.6596  0.3447 -0.9374
 2692SOL     OW 8669   4.399   6.718   0.136 -0.7982 -0.1317  0.1790
 2692SOL    HW1 8670   4.395   6.745   0.228 -2.9714  0.1635  0.0355
 2692SOL    HW2 8671   4.344   6.639   0.132  0.2872 -0.8617 -0.6344
 2693SOL     OW 8672   1.238   5.433   6.738  0.0546 -0.1312 -0.0284
 2693SOL    HW1 8673   1.154   5.458   6.778 -0.5710 -1.6415 -0.3632
 2693SOL    HW2 8674   1.213   5.378   6.663  1.3944 -1.7721  0.7240
 2694SOL     OW 8675   1.181   4.072   4.090 -0.0828 -0.2653  0.5787
 2694SOL    HW1 8676   1.154   4.003   4.150 -0.9110  0.5274  1.1288
 2694SOL    HW2 8677   1.206   4.025   4.010 -0.4290 -1.2181  1.0139
 2695SOL     OW 8678   1.254   5.797   4.418  0.2090 -0.2101 -0.0677
 2695SOL    HW1 8679   1.181   5.757   4.465  0.6463 -2.6437 -1.3530
 2695SOL    HW2 8680   1.308   5.723   4.390  2.4927  1.4704 -0.2601
 2696SOL     OW 8681   1.777   3.736   0.471 -0.4733 -0.1340 -0.1944
 2696SOL    HW1 8682   1.792   3.778   0.555 -0.5675 -1.4575  0.5076
 2696SOL    HW2 8683   1.797   3.643   0.487  2.2019  0.0170 -2.3306
 2697SOL     OW 8684   0.862   0.485   2.288 -0.4506  0.6241 -0.0320
 2697SOL    HW1 8685   0.780   0.445   2.259 -0.3584 -0.2635  0.8651
 2697SOL    HW2 8686   0.930   0.436   2.243 -0.2821 -1.1525  2.0339
 2698SOL     OW 8687   6.343   6.389   2.274  0.2255  0.3109 -0.4200
 2698SOL    HW1 8688   6.412   6.326   2.294 -0.0527 -0.6381 -2.3294
 2698SOL    HW2 8689   6.305   6.358   2.192 -0.2296  2.6989 -1.1662
 2699SOL     OW 8690   0.515   6.842   3.942 -0.0438 -0.1008  0.0375
 2699SOL    HW1 8691   0.549   6.859   4.030 -1.3596  0.1656  0.5041
 2699SOL    HW2 8692   0.421   6.831   3.954 -0.8722  3.8250 -1.8377
 2700SOL     OW 8693   1.285   5.869   3.276  0.2995  0.4001 -0.1110
 2700SOL    HW1 8694   1.306   5.962   3.286 -0.6654  0.6144  0.0059
 2700SOL    HW2 8695   1.351   5.824   3.328  0.5359  1.0422  0.1533
 2701SOL     OW 8696   6.018   1.132   1.068 -0.1201 -0.1264 -0.1845
 2701SOL    HW1 8697   5.954   1.143   1.138 -0.5947  0.7735 -0.7551
 2701SOL    HW2 8698   5.965   1.123   0.988  0.4676  1.5542 -0.7887
 2702SOL     OW 8699   1.296   5.922   5.517 -0.1279 -0.5630 -0.6456
 2702SOL    HW1 8700   1.276   5.984   5.587  2.3722  1.3006 -1.4729
 2702SOL    HW2 8701   1.363   5.967   5.464  2.1561 -4.1738 -1.0003
 2703SOL     OW 8702   0.385   6.292   6.904  0.2860 -0.1246  0.4588
 2703SOL    HW1 8703   0.315   6.324   6.847 -0.2304  1.0358  1.7159
 2703SOL    HW2 8704   0.389   6.355   6.976  2.2733 -0.4668  0.6868
 2704SOL     OW 8705   0.959   0.667   1.203  0.3833  0.2198  0.0932
 2704SOL    HW1 8706   0.911   0.720   1.266 -0.2861 -0.2365 -0.0218
 2704SOL    HW2 8707   0.895   0.602   1.173 -0.0064  1.7755 -2.6978
 2705SOL     OW 8708   3.669   1.559   4.494 -0.4092 -0.6508  0.2222
 2705SOL    HW1 8709   3.630   1.534   4.410  0.1412 -1.5457  0.2171
 2705SOL    HW2 8710   3.746   1.611   4.470 -1.0718  0.3319  0.2096
 2706SOL     OW 8711   1.729   3.420   3.447  0.2102  0.4252 -0.1095
 2706SOL    HW1 8712   1.770   3.365   3.514 -1.2172 -0.3812  0.1300
 2706SOL    HW2 8713   1.724   3.507   3.487  0.8104  0.3114  0.2168
 2707SOL     OW 8714   1.231   6.861   2.574  0.6001  0.2501  0.0464
 2707SOL    HW1 8715   1.226   6.810   2.654 -0.0431  1.6365  0.9150
 2707SOL    HW2 8716   1.291   6.933   2.595 -0.5172  1.3075 -0.2926
 2708SOL     OW 8717   1.355   1.097   1.609  0.4499  0.3633  0.4534
 2708SOL    HW1 8718   1.267   1.126   1.632 -0.2275  0.2582 -1.8764
 2708SOL    HW2 8719   1.404   1.178   1.593  1.0938  0.4576  2.7655
 2709SOL     OW 8720   7.204   0.789   0.924  0.2247 -0.4134 -0.1809
 2709SOL    HW1 8721   7.285   0.839   0.908 -1.1076  2.1595  0.7497
 2709SOL    HW2 8722   7.203   0.776   1.019 -0.0124 -1.2310 -0.2962
 2710SOL     OW 8723   3.674   4.556   0.224 -0.0517  0.0007 -0.3205
 2710SOL    HW1 8724   3.719   4.639   0.208  0.2223  0.0020  0.4265
 2710SOL    HW2 8725   3.733   4.508   0.282 -0.2339 -0.6953 -0.7097
 2711SOL     OW 8726   3.729   2.719   7.166 -0.5268 -0.3014  0.5405
 2711SOL    HW1 8727   3.656   2.714   7.105  0.2784  0.2667 -0.4707
 2711SOL    HW2 8728   3.692   2.757   7.246 -0.9839  1.4780 -0.5122
 2712SOL     OW 8729   5.689   4.392   3.248  1.0770 -0.1319  0.5252
 2712SOL    HW1 8730   5.769   4.414   3.200  2.3639 -1.4426  1.9672
 2712SOL    HW2 8731   5.662   4.474   3.289  1.1014  0.5493 -0.7991
 2713SOL     OW 8732   5.353   5.512   5.494 -0.5277  0.9520 -0.1744
 2713SOL    HW1 8733   5.412   5.571   5.541  0.8449 -2.1505  2.1347
 2713SOL    HW2 8734   5.394   5.500   5.408  1.1160  0.4269  0.6754
 2714SOL     OW 8735   7.011   1.337   1.248  0.3668 -0.3464  0.3281
 2714SOL    HW1 8736   6.948   1.385   1.302 -0.7571  1.6596 -2.6630
 2714SOL    HW2 8737   6.999   1.245   1.273 -2.4784  0.1898  1.0792
 2715SOL     OW 8738   1.398   2.927   3.360 -0.0159 -0.0127  0.1201
 2715SOL    HW1 8739   1.353   3.012   3.357 -0.6491 -0.3417  0.2946
 2715SOL    HW2 8740   1.438   2.925   3.447  0.3509  0.2807 -0.0367
 2716SOL     OW 8741   4.743   0.247   5.450  0.3799 -0.5994 -0.4908
 2716SOL    HW1 8742   4.732   0.162   5.493  1.0887 -0.3992  0.0842
 2716SOL    HW2 8743   4.782   0.226   5.365  1.0448 -0.8003 -0.1332
 2717SOL     OW 8744   5.292   5.907   2.717 -0.3889  0.2356  0.0809
 2717SOL    HW1 8745   5.337   5.989   2.694 -0.0226 -0.5410 -2.0752
 2717SOL    HW2 8746   5.350   5.838   2.684 -1.0042 -0.8859  1.3078
 2718SOL     OW 8747   6.734   3.400   6.324 -0.2205 -0.1992 -0.9727
 2718SOL    HW1 8748   6.721   3.375   6.233 -0.9024  0.5605 -1.0907
 2718SOL    HW2 8749   6.744   3.317   6.371  0.2505 -0.5880 -1.7511
 2719SOL     OW 8750   4.515   7.192   2.581 -0.7850 -0.0062  0.4143
 2719SOL    HW1 8751   4.576   7.181   2.654  0.4323 -1.7746 -0.8374
 2719SOL    HW2 8752   4.430   7.164   2.616 -0.1992 -0.9066  1.1376
 2720SOL     OW 8753   6.121   3.771   6.751 -0.1822  0.2065  0.2893
 2720SOL    HW1 8754   6.051   3.711   6.724 -1.6102  1.3272  1.4094
 2720SOL    HW2 8755   6.152   3.735   6.834 -0.5106  0.5876  0.5769
 2721SOL     OW 8756   2.104   3.998   6.117 -0.0675  0.3121 -0.5872
 2721SOL    HW1 8757   2.042   4.013   6.046 -0.3709 -2.6975 -1.0013
 2721SOL    HW2 8758   2.109   3.903   6.126  2.9747  0.5346  0.7993
 2722SOL     OW 8759   0.349   6.772   0.818  0.3335 -0.3559  0.5282
 2722SOL    HW1 8760   0.320   6.842   0.876 -0.1342  0.6227 -0.8623
 2722SOL    HW2 8761   0.445   6.773   0.827  0.3059  0.1739  0.8355
 2723SOL     OW 8762   7.159   5.425   1.049  0.3099 -0.1993 -0.2240
 2723SOL    HW1 8763   7.185   5.515   1.031 -1.8525  0.7149  1.0883
 2723SOL    HW2 8764   7.096   5.403   0.981 -1.4451  0.3480  1.1803
 2724SOL     OW 8765   3.412   2.877   3.519  0.3090 -0.1886 -0.0705
 2724SOL    HW1 8766   3.450   2.964   3.506 -2.5145  1.0066 -0.8170
 2724SOL    HW2 8767   3.444   2.848   3.604 -2.0082  3.4366  2.1379
 2725SOL     OW 8768   5.256   4.575   1.600  0.0264 -0.0178  0.0522
 2725SOL    HW1 8769   5.221   4.537   1.681 -1.4433  0.1141 -0.4949
 2725SOL    HW2 8770   5.331   4.521   1.578  0.9439  0.4382  1.9376
 2726SOL     OW 8771   0.569   4.073   3.213 -0.1621 -0.0819 -0.7520
 2726SOL    HW1 8772   0.480   4.042   3.232  0.1695  0.1161  1.2680
 2726SOL    HW2 8773   0.557   4.142   3.148 -1.8438  2.2431  1.9281
 2727SOL     OW 8774   2.999   1.312   6.388 -0.5586  0.0520  0.1448
 2727SOL    HW1 8775   2.960   1.324   6.302 -0.6984 -0.8801  0.0701
 2727SOL    HW2 8776   3.071   1.375   6.392 -0.3351 -0.1507 -0.7846
 2728SOL     OW 8777   0.707   2.502   0.964  0.5098 -0.6545  0.6081
 2728SOL    HW1 8778   0.660   2.556   0.900 -0.4132 -0.6993  1.2312
 2728SOL    HW2 8779   0.703   2.413   0.928 -1.8192 -1.0477  1.6792
 2729SOL     OW 8780   2.217   4.750   1.143 -0.4403 -0.8012 -0.2668
 2729SOL    HW1 8781   2.242   4.752   1.235  1.8529 -2.2231 -0.8102
 2729SOL    HW2 8782   2.230   4.840   1.113  0.5990 -0.7259  0.3712
 2730SOL     OW 8783   3.257   3.905   5.688 -0.6241  0.0060 -0.3336
 2730SOL    HW1 8784   3.267   3.847   5.612 -1.5829  0.1808 -0.6043
 2730SOL    HW2 8785   3.206   3.854   5.750 -1.3670  0.5045 -0.5235
 2731SOL     OW 8786   3.346   6.988   1.722 -0.2401 -0.0706  0.0799
 2731SOL    HW1 8787   3.437   7.004   1.697 -0.2058 -0.6022 -0.1352
 2731SOL    HW2 8788   3.319   7.069   1.766  0.1735  0.2919 -0.3192
 2732SOL     OW 8789   6.333   2.121   1.887 -0.0747  0.5299 -0.2710
 2732SOL    HW1 8790   6.297   2.124   1.799  1.0129  0.5046 -0.7179
 2732SOL    HW2 8791   6.329   2.211   1.918 -1.8632  0.3020  0.2383
 2733SOL     OW 8792   2.382   4.754   7.054  0.0201 -0.1401  0.0322
 2733SOL    HW1 8793   2.340   4.676   7.016  0.4327 -1.0194  1.3576
 2733SOL    HW2 8794   2.316   4.823   7.046 -1.4099 -1.3098  1.3712
 2734SOL     OW 8795   1.546   3.371   0.686 -0.5619  0.0886 -0.7312
 2734SOL    HW1 8796   1.477   3.399   0.625 -1.7181 -0.4268  0.3111
 2734SOL    HW2 8797   1.507   3.298   0.733  0.8073 -0.3576 -0.2903
 2735SOL     OW 8798   2.341   5.979   3.849  0.8026 -0.2128 -0.0877
 2735SOL    HW1 8799   2.307   5.966   3.938  0.1898  1.0704 -0.1140
 2735SOL    HW2 8800   2.435   5.963   3.856  0.5664 -1.3989  0.5113
 2736SOL     OW 8801   0.569   5.281   0.442  0.0209  0.2615 -0.4924
 2736SOL    HW1 8802   0.611   5.315   0.520 -0.1878 -0.6359  0.0207
 2736SOL    HW2 8803   0.639   5.275   0.377  0.2739  0.6291 -0.2526
 2737SOL     OW 8804   0.722   1.517   4.825  0.0669 -0.2796  0.0976
 2737SOL    HW1 8805   0.635   1.483   4.807 -0.4707  1.4630 -0.6631
 2737SOL    HW2 8806   0.732   1.593   4.767  1.9569 -0.2607  0.3967
 2738SOL     OW 8807   0.823   1.636   1.466 -0.2168  0.1384 -0.4693
 2738SOL    HW1 8808   0.815   1.554   1.417  1.9393 -0.2839 -0.1623
 2738SOL    HW2 8809   0.881   1.690   1.413 -0.8410  1.0994 -0.1816
 2739SOL     OW 8810   2.881   5.892   5.588 -0.2532 -0.4422  0.5841
 2739SOL    HW1 8811   2.813   5.915   5.652 -1.3660 -0.6639 -0.4934
 2739SOL    HW2 8812   2.845   5.921   5.504  2.2353  2.0495  0.3320
 2740SOL     OW 8813   7.052   1.303   5.612 -0.4087 -0.6163 -0.4419
 2740SOL    HW1 8814   7.063   1.209   5.622 -1.7313 -0.5492  1.8096
 2740SOL    HW2 8815   7.084   1.340   5.694  1.6323  1.0443 -1.9344
 2741SOL     OW 8816   0.682   3.753   5.163 -0.5485 -0.8224  0.3816
 2741SOL    HW1 8817   0.650   3.720   5.247 -1.0434 -0.1360  0.4665
 2741SOL    HW2 8818   0.625   3.827   5.143  0.3100 -0.2578  0.0056
 2742SOL     OW 8819   0.902   2.300   4.864 -0.1506 -0.4123  0.2397
 2742SOL    HW1 8820   0.811   2.297   4.834  0.1590 -0.0491 -0.7307
 2742SOL    HW2 8821   0.948   2.353   4.799  1.3202 -2.8995 -0.8300
 2743SOL     OW 8822   6.144   2.083   6.111 -0.3254  0.5531 -0.9214
 2743SOL    HW1 8823   6.111   2.143   6.178 -0.2536 -1.4335  0.9704
 2743SOL    HW2 8824   6.066   2.052   6.066 -0.4987  0.8515 -0.8248
 2744SOL     OW 8825   0.595   4.876   1.507 -0.2765  0.4561 -0.2877
 2744SOL    HW1 8826   0.639   4.882   1.422  0.8350 -2.6242  0.0090
 2744SOL    HW2 8827   0.517   4.930   1.497 -0.1105  0.2558 -3.2293
 2745SOL     OW 8828   0.100   2.955   0.007 -0.2304 -0.1760  0.0635
 2745SOL    HW1 8829   0.066   2.956   0.097 -0.4406  0.4340 -0.0188
 2745SOL    HW2 8830   0.054   2.883  -0.035 -0.6814  0.0017  0.2421
 2746SOL     OW 8831   6.296   0.122   3.577  0.4942 -0.1020 -0.1169
 2746SOL    HW1 8832   6.383   0.095   3.605  0.8052  0.5589 -0.4366
 2746SOL    HW2 8833   6.297   0.110   3.482 -0.6759 -2.7004  0.1313
 2747SOL     OW 8834   0.772   6.429   6.137 -0.1265  0.4660 -0.2111
 2747SOL    HW1 8835   0.826   6.497   6.178  1.6992 -0.6340 -0.7544
 2747SOL    HW2 8836   0.683   6.450   6.166  0.4093  2.9537 -0.1949
 2748SOL     OW 8837   0.739   4.937   2.407  0.2089  0.4781  0.4237
 2748SOL    HW1 8838   0.684   4.861   2.390 -0.1783  1.1246 -1.3640
 2748SOL    HW2 8839   0.679   5.003   2.443  0.5340 -0.0170  1.9224
 2749SOL     OW 8840   3.493   6.360   4.947 -0.2743 -0.3200 -0.6520
 2749SOL    HW1 8841   3.402   6.367   4.978  0.0728 -2.1841  0.9047
 2749SOL    HW2 8842   3.495   6.278   4.898  0.3153  0.2893 -1.6650
 2750SOL     OW 8843   2.647   0.699   3.773  0.2434 -0.2051 -0.6929
 2750SOL    HW1 8844   2.584   0.628   3.779  0.1237 -0.0082  0.3581
 2750SOL    HW2 8845   2.691   0.685   3.689 -0.4664 -0.9414 -0.9424
 2751SOL     OW 8846   0.196   3.722   1.618  0.0857  0.4398  0.0365
 2751SOL    HW1 8847   0.201   3.669   1.539 -1.2044 -2.1117  1.6128
 2751SOL    HW2 8848   0.257   3.681   1.679 -0.0563  1.4865  0.9067
 2752SOL     OW 8849   0.809   4.429   7.007  0.6351 -0.0997 -0.0005
 2752SOL    HW1 8850   0.883   4.489   7.010  1.8004 -1.5138  0.3185
 2752SOL    HW2 8851   0.779   4.432   6.916  0.3982  1.2834  0.1206
 2753SOL     OW 8852   2.848   6.900   6.746 -0.8264 -0.1627  0.0895
 2753SOL    HW1 8853   2.900   6.883   6.825  0.1350  0.4189 -0.4071
 2753SOL    HW2 8854   2.834   6.994   6.746 -0.2643 -0.0683 -0.7643
 2754SOL     OW 8855   1.440   7.133   4.939 -0.0809 -0.3255 -0.5534
 2754SOL    HW1 8856   1.479   7.219   4.953  1.0274 -0.8506 -0.3154
 2754SOL    HW2 8857   1.489   7.096   4.866  2.2055 -2.3295  1.8842
 2755SOL     OW 8858   2.793   5.154   4.492  0.2317  0.3410 -0.2455
 2755SOL    HW1 8859   2.857   5.116   4.432  2.1983  0.0488  1.9244
 2755SOL    HW2 8860   2.829   5.135   4.579 -2.7051  0.4169  1.0382
 2756SOL     OW 8861   4.042   1.457   3.564 -0.3991  0.1513 -0.0366
 2756SOL    HW1 8862   4.125   1.410   3.557 -0.2463  0.3500  0.4172
 2756SOL    HW2 8863   4.033   1.476   3.657  0.2189  2.2394 -0.3925
 2757SOL     OW 8864   4.910   0.146   4.975 -0.1191  0.2559 -0.0334
 2757SOL    HW1 8865   4.982   0.110   5.027 -0.3959  0.3093  0.3900
 2757SOL    HW2 8866   4.910   0.094   4.894 -0.3903 -0.5611  0.4876
 2758SOL     OW 8867   2.706   2.813   6.010  0.3529  0.1331  0.2182
 2758SOL    HW1 8868   2.785   2.759   6.004 -0.3852 -1.0363  0.9040
 2758SOL    HW2 8869   2.733   2.892   6.057  0.7285 -1.0133  1.9577
 2759SOL     OW 8870   3.826   4.808   0.220 -0.2068 -0.0578 -0.2240
 2759SOL    HW1 8871   3.756   4.866   0.191 -1.3118 -1.0446  0.4157
 2759SOL    HW2 8872   3.904   4.838   0.173 -1.2329  0.5484 -1.5443
 2760SOL     OW 8873   5.401   0.828   5.695 -0.2717  0.1253  0.5144
 2760SOL    HW1 8874   5.456   0.826   5.617  0.9928 -0.3173  1.4131
 2760SOL    HW2 8875   5.367   0.918   5.699  0.1873  0.3261 -0.1716
 2761SOL     OW 8876   1.199   3.727   3.497  0.0225  0.3056  0.2493
 2761SOL    HW1 8877   1.248   3.810   3.502 -0.3449  0.5118  0.4599
 2761SOL    HW2 8878   1.265   3.659   3.511  0.1673  0.6020  1.0076
 2762SOL     OW 8879   6.635   3.914   5.465 -0.0584  0.9001  0.3410
 2762SOL    HW1 8880   6.619   3.963   5.384  0.5108  1.3111  0.4742
 2762SOL    HW2 8881   6.707   3.961   5.508 -2.6368  2.8043  2.8156
 2763SOL     OW 8882   3.557   3.445   6.916 -0.1957 -0.4776  0.2026
 2763SOL    HW1 8883   3.522   3.527   6.880 -1.1766 -1.0072 -0.0868
 2763SOL    HW2 8884   3.548   3.454   7.011  0.5954  0.1360  0.2245
 2764SOL     OW 8885   1.342   0.731   6.925 -0.2928 -0.0924 -0.1081
 2764SOL    HW1 8886   1.375   0.689   7.005 -0.5443 -2.0120 -0.9906
 2764SOL    HW2 8887   1.247   0.735   6.937 -0.1139  1.9540  0.7776
 2765SOL     OW 8888   4.057   1.460   4.445  0.2498 -0.6037  0.2904
 2765SOL    HW1 8889   4.005   1.519   4.500  0.2131  0.8482 -1.2606
 2765SOL    HW2 8890   4.143   1.502   4.439 -0.1029 -0.1510 -1.6999
 2766SOL     OW 8891   4.989   5.298   2.409 -0.0125 -0.2628  0.1013
 2766SOL    HW1 8892   4.942   5.239   2.468  0.3067 -0.1864  0.4406
 2766SOL    HW2 8893   5.021   5.368   2.466 -0.6341  0.3862 -0.3476
 2767SOL     OW 8894   1.388   0.304   2.210 -0.2217  0.0124  0.1540
 2767SOL    HW1 8895   1.387   0.379   2.151  0.3108 -0.7122 -0.8048
 2767SOL    HW2 8896   1.337   0.237   2.165 -1.1628 -0.0277  1.2511
 2768SOL     OW 8897   0.118   7.124   4.940  0.1133 -0.0669  0.2331
 2768SOL    HW1 8898   0.090   7.200   4.889 -0.2612 -0.1872  0.2556
 2768SOL    HW2 8899   0.151   7.162   5.022 -1.8791 -0.0322  1.0519
 2769SOL     OW 8900   1.017   3.330   4.091  0.3665 -0.5137  0.5622
 2769SOL    HW1 8901   1.046   3.412   4.130  0.8354  0.0357 -0.9231
 2769SOL    HW2 8902   1.004   3.271   4.166 -4.1478  2.1397  2.0172
 2770SOL     OW 8903   3.882   1.038   7.195 -0.5396 -0.6597 -0.5721
 2770SOL    HW1 8904   3.846   1.126   7.210 -1.0567 -1.0604  0.6554
 2770SOL    HW2 8905   3.813   0.993   7.146 -1.0344 -0.9195  0.3474
 2771SOL     OW 8906   6.053   6.667   3.523 -0.3552  0.6886  0.0132
 2771SOL    HW1 8907   6.130   6.667   3.579  1.0121 -1.3115 -1.7985
 2771SOL    HW2 8908   5.981   6.645   3.582  1.0809 -1.5275  1.0324
 2772SOL     OW 8909   6.190   5.751   3.852  0.0921 -0.4355  0.5689
 2772SOL    HW1 8910   6.234   5.795   3.925 -0.3303 -0.4474  0.8385
 2772SOL    HW2 8911   6.102   5.789   3.852 -0.3206 -1.3733  0.8962
 2773SOL     OW 8912   2.651   2.325   6.864 -0.3369 -0.4223 -0.2695
 2773SOL    HW1 8913   2.695   2.341   6.947 -1.5902 -0.4772  0.4171
 2773SOL    HW2 8914   2.721   2.327   6.798  0.9959 -2.4820  1.0234
 2774SOL     OW 8915   5.628   6.616   0.652 -0.4670 -0.1892  0.1956
 2774SOL    HW1 8916   5.691   6.558   0.608 -0.5001 -0.3525  0.3633
 2774SOL    HW2 8917   5.559   6.557   0.683 -0.3681 -0.0910  0.5997
 2775SOL     OW 8918   3.923   3.264   7.138 -0.4804 -1.0120  0.5508
 2775SOL    HW1 8919   3.949   3.261   7.046 -4.7598 -0.3882 -0.7972
 2775SOL    HW2 8920   3.946   3.178   7.173 -0.2092 -1.8083 -1.5409
 2776SOL     OW 8921   3.056   2.061   3.518  0.1595 -0.3410 -0.4613
 2776SOL    HW1 8922   3.001   2.087   3.444 -0.6906 -0.1674  0.2256
 2776SOL    HW2 8923   3.144   2.051   3.481 -0.0405  0.8252 -1.2748
 2777SOL     OW 8924   6.014   0.616   6.724  0.1301  0.4321  0.0163
 2777SOL    HW1 8925   6.028   0.657   6.810  2.9330  1.9677 -1.0921
 2777SOL    HW2 8926   5.997   0.690   6.666 -1.4015 -0.5721 -0.8182
 2778SOL     OW 8927   4.377   5.493   0.362 -0.2972  0.0217  0.2268
 2778SOL    HW1 8928   4.425   5.570   0.391 -0.7621  0.2512  0.3733
 2778SOL    HW2 8929   4.425   5.463   0.285  2.6889 -2.2890  2.8392
 2779SOL     OW 8930   0.102   4.950   5.185  0.2928 -0.1703 -0.0978
 2779SOL    HW1 8931   0.064   5.036   5.200  2.1173  0.6011  0.3265
 2779SOL    HW2 8932   0.194   4.959   5.212  0.4218 -2.3581  0.3697
 2780SOL     OW 8933   4.118   4.245   0.417  0.5884 -0.4243 -0.4890
 2780SOL    HW1 8934   4.045   4.240   0.479  1.5746  1.4888  0.8915
 2780SOL    HW2 8935   4.159   4.159   0.420 -0.4116 -0.8782  0.2387
 2781SOL     OW 8936   2.425   6.570   4.873 -0.3114 -0.8511 -0.2443
 2781SOL    HW1 8937   2.511   6.548   4.838 -0.1042 -1.5684  0.7016
 2781SOL    HW2 8938   2.437   6.571   4.968 -1.1281 -0.0248 -0.1391
 2782SOL     OW 8939   1.704   4.993   3.932 -0.3505 -0.1083 -0.3164
 2782SOL    HW1 8940   1.665   5.020   4.015  0.1816  0.8528 -0.3604
 2782SOL    HW2 8941   1.673   4.904   3.918 -1.0105 -0.0239  0.5650
 2783SOL     OW 8942   1.368   5.775   1.124 -0.0698  0.0242  0.2439
 2783SOL    HW1 8943   1.371   5.736   1.037  0.0409  0.1924  0.1716
 2783SOL    HW2 8944   1.459   5.783   1.151 -0.1580 -1.6067  1.0945
 2784SOL     OW 8945   6.577   1.067   6.441  0.8094 -0.3905  0.1735
 2784SOL    HW1 8946   6.668   1.082   6.412  1.4710  1.2746  2.9506
 2784SOL    HW2 8947   6.585   1.012   6.518 -0.6038 -0.7049  0.1063
 2785SOL     OW 8948   6.903   2.680   4.523  0.1262 -0.1687  0.4799
 2785SOL    HW1 8949   6.974   2.645   4.577  0.5773 -0.1653 -0.1179
 2785SOL    HW2 8950   6.937   2.680   4.434 -1.0709 -1.3371  0.0140
 2786SOL     OW 8951   1.485   1.673   3.200  0.0436  0.2405 -0.0051
 2786SOL    HW1 8952   1.452   1.761   3.184 -0.4137  0.3985  1.6526
 2786SOL    HW2 8953   1.505   1.638   3.113 -1.1477  1.4407 -0.7761
 2787SOL     OW 8954   0.174   1.618   4.627 -0.7333  0.4226  0.0114
 2787SOL    HW1 8955   0.227   1.648   4.701 -0.9881  1.3704 -0.1742
 2787SOL    HW2 8956   0.084   1.621   4.659 -0.8979  1.4346 -0.5199
 2788SOL     OW 8957   0.657   0.474   5.253 -0.4387  0.0009  0.2414
 2788SOL    HW1 8958   0.656   0.473   5.348 -0.0862  0.6325  0.2533
 2788SOL    HW2 8959   0.661   0.382   5.228 -0.5927 -0.1686  0.8325
 2789SOL     OW 8960   2.404   4.064   4.802 -0.0228 -0.4182  0.8720
 2789SOL    HW1 8961   2.420   4.145   4.851 -0.9579 -0.2086  0.8368
 2789SOL    HW2 8962   2.483   4.052   4.749 -0.1371  0.8124  0.4062
 2790SOL     OW 8963   0.247   1.076   4.902 -0.3432 -0.4255 -0.2105
 2790SOL    HW1 8964   0.158   1.106   4.921 -1.2671 -3.1829  0.0673
 2790SOL    HW2 8965   0.285   1.058   4.988 -0.5293 -1.9626 -0.4368
 2791SOL     OW 8966   5.992   2.877   6.142  0.3751 -0.0773 -0.0996
 2791SOL    HW1 8967   5.944   2.807   6.098 -1.8454  0.6190  1.0950
 2791SOL    HW2 8968   5.958   2.957   6.103 -1.6463  0.5543  2.7651
 2792SOL     OW 8969   4.769   2.742   3.572 -0.6333 -0.4339  0.6615
 2792SOL    HW1 8970   4.864   2.737   3.582 -0.3960 -1.2325 -1.6326
 2792SOL    HW2 8971   4.755   2.822   3.521 -1.1908 -0.4024  0.8600
 2793SOL     OW 8972   5.334   2.672   0.968  0.1092  0.0514 -0.2139
 2793SOL    HW1 8973   5.251   2.648   0.925  0.0008  1.8511 -1.0674
 2793SOL    HW2 8974   5.307   2.718   1.047  0.2824  1.5551 -1.0230
 2794SOL     OW 8975   4.609   6.650   1.911 -0.1106 -0.4905 -0.5021
 2794SOL    HW1 8976   4.675   6.716   1.931 -0.4003 -0.0946 -0.8570
 2794SOL    HW2 8977   4.630   6.577   1.969  0.5850 -0.3280 -0.5477
 2795SOL     OW 8978   3.269   0.556   2.069  0.3147  0.3669  0.2658
 2795SOL    HW1 8979   3.353   0.601   2.063  0.9035 -0.6063  1.1029
 2795SOL    HW2 8980   3.214   0.616   2.121  1.1820  0.0139  1.6183
 2796SOL     OW 8981   0.998   4.384   5.141 -0.1634 -0.3311  0.0851
 2796SOL    HW1 8982   1.056   4.308   5.150  1.0049  0.3119 -1.8366
 2796SOL    HW2 8983   0.926   4.353   5.087 -0.5485 -0.5304  0.7053
 2797SOL     OW 8984   1.873   2.375   2.358 -0.0901 -0.5940 -0.2222
 2797SOL    HW1 8985   1.895   2.291   2.397 -1.7521 -0.7870  0.3176
 2797SOL    HW2 8986   1.854   2.355   2.266 -1.4998 -0.9928  0.1388
 2798SOL     OW 8987   6.099   4.058   6.514 -0.0998  0.1599  0.2364
 2798SOL    HW1 8988   6.104   4.150   6.489 -1.4288  0.0502 -0.4952
 2798SOL    HW2 8989   6.009   4.033   6.494  0.5452 -1.5887 -0.5301
 2799SOL     OW 8990   1.331   3.130   6.363  0.2785  0.3188  0.0847
 2799SOL    HW1 8991   1.338   3.204   6.423 -0.5906 -0.1683  0.7894
 2799SOL    HW2 8992   1.238   3.108   6.363  0.2844  0.2574 -1.3783
 2800SOL     OW 8993   6.804   4.931   4.784 -0.3010 -0.2055  0.6751
 2800SOL    HW1 8994   6.807   4.968   4.695 -0.3436 -1.1279  0.2812
 2800SOL    HW2 8995   6.876   4.972   4.830 -1.1488  1.3675  0.6422
 2801SOL     OW 8996   0.426   5.782   1.184 -0.5481  0.6492 -0.3094
 2801SOL    HW1 8997   0.346   5.817   1.144 -1.8167 -2.1745 -0.3363
 2801SOL    HW2 8998   0.404   5.773   1.277 -0.2857 -0.1749 -0.3277
 2802SOL     OW 8999   4.187   3.588   2.455  0.4717 -0.6361 -0.0174
 2802SOL    HW1 9000   4.262   3.545   2.496  0.2684 -1.5706 -0.5958
 2802SOL    HW2 9001   4.111   3.535   2.481 -0.0779  0.6928  1.1161
 2803SOL     OW 9002   3.075   2.035   0.927  0.4967  0.2751 -0.4213
 2803SOL    HW1 9003   3.088   2.130   0.922  2.8745  0.2826  3.6462
 2803SOL    HW2 9004   2.999   2.024   0.984 -0.8549 -0.2895 -2.2830
 2804SOL     OW 9005   2.948   6.008   5.990  0.1190  0.0959  0.1646
 2804SOL    HW1 9006   2.898   6.014   6.071  0.1293 -1.5681  0.3105
 2804SOL    HW2 9007   2.900   6.063   5.928 -0.6146  0.3357  0.9352
 2805SOL     OW 9008   3.914   1.514   2.976  0.4310 -0.0060  0.1051
 2805SOL    HW1 9009   3.946   1.595   3.016  0.3343  0.5511 -0.9181
 2805SOL    HW2 9010   3.977   1.447   3.003  0.0893  0.2497  1.5924
 2806SOL     OW 9011   7.093   6.795   7.247  0.1157  0.5337 -0.0171
 2806SOL    HW1 9012   7.007   6.752   7.250  0.4742 -0.2451 -0.8855
 2806SOL    HW2 9013   7.072   6.889   7.247 -0.7291  0.3516  0.0774
 2807SOL     OW 9014   2.700   4.758   1.118  0.0980 -0.2559 -0.1233
 2807SOL    HW1 9015   2.656   4.680   1.086  0.6509  0.0527 -1.6723
 2807SOL    HW2 9016   2.649   4.831   1.082 -0.4577  0.1153  1.3708
 2808SOL     OW 9017   2.964   5.715   3.319  1.2928  0.6194  0.0669
 2808SOL    HW1 9018   3.017   5.684   3.246  0.1465  0.7684 -0.8354
 2808SOL    HW2 9019   2.892   5.763   3.278  0.0694 -0.1791  1.2435
 2809SOL     OW 9020   4.681   5.362   3.801 -0.3159 -0.4824  0.2578
 2809SOL    HW1 9021   4.677   5.389   3.893 -0.0173  0.7218 -0.0773
 2809SOL    HW2 9022   4.765   5.317   3.793 -0.5502 -0.9969  0.6827
 2810SOL     OW 9023   5.006   1.037   5.307  0.1183  0.4935 -0.2753
 2810SOL    HW1 9024   5.041   1.114   5.352  0.4863 -0.2489  0.7369
 2810SOL    HW2 9025   4.929   1.070   5.260 -0.0717  1.3676  0.6136
 2811SOL     OW 9026   2.438   2.684   2.924  0.1275  0.7949  0.0528
 2811SOL    HW1 9027   2.529   2.673   2.950  0.0124 -2.2513 -0.6955
 2811SOL    HW2 9028   2.397   2.728   2.998  1.7862  0.4604  1.1929
 2812SOL     OW 9029   6.211   0.926   1.070 -0.4496  0.1587 -0.0341
 2812SOL    HW1 9030   6.288   0.947   1.123  0.0401  2.2710 -1.5292
 2812SOL    HW2 9031   6.145   0.990   1.098 -1.2204 -0.7418  0.2385
 2813SOL     OW 9032   4.305   3.299   6.278  0.0925  0.1777  0.4107
 2813SOL    HW1 9033   4.244   3.264   6.342  0.5820 -0.1154  0.7200
 2813SOL    HW2 9034   4.281   3.392   6.269 -2.5408 -0.6428 -1.9253
 2814SOL     OW 9035   3.968   6.419   3.127 -0.2752  0.3516  0.3661
 2814SOL    HW1 9036   3.939   6.416   3.036 -1.5902  1.4840  0.7367
 2814SOL    HW2 9037   4.037   6.485   3.128  1.1832 -1.1265 -0.1863
 2815SOL     OW 9038   3.442   2.921   0.618 -0.2859  0.3473  0.5610
 2815SOL    HW1 9039   3.395   2.924   0.535  0.2053  1.1620  0.3064
 2815SOL    HW2 9040   3.411   2.998   0.666  0.8055  0.9024  0.3778
 2816SOL     OW 9041   0.312   1.410   4.531  0.3932 -0.2147 -0.0293
 2816SOL    HW1 9042   0.247   1.359   4.483 -0.7611 -0.2964  1.5596
 2816SOL    HW2 9043   0.268   1.492   4.552  0.8943 -0.1436  0.7999
 2817SOL     OW 9044   2.019   6.786   1.364  0.2435  0.0920 -0.1147
 2817SOL    HW1 9045   2.065   6.729   1.425  1.5825  1.8642  0.5795
 2817SOL    HW2 9046   1.953   6.830   1.417 -0.0837 -0.0408 -0.4149
 2818SOL     OW 9047   1.902   4.427   6.921 -0.1282 -0.4711  0.7077
 2818SOL    HW1 9048   1.907   4.522   6.916 -3.2569 -0.2480  1.0313
 2818SOL    HW2 9049   1.900   4.408   7.014 -1.8847 -0.6814  0.6356
 2819SOL     OW 9050   0.379   3.260   6.646 -0.4000  0.2090  0.4102
 2819SOL    HW1 9051   0.416   3.172   6.659 -0.4012  0.0636 -0.5796
 2819SOL    HW2 9052   0.425   3.314   6.710  0.1717 -0.3498  0.4823
 2820SOL     OW 9053   1.386   1.606   1.047 -0.5109  0.0736 -0.4870
 2820SOL    HW1 9054   1.350   1.558   1.121  0.4772 -1.0210 -0.6922
 2820SOL    HW2 9055   1.319   1.601   0.980 -0.0490 -1.9022 -0.8493
 2821SOL     OW 9056   1.770   5.160   1.723  0.6124  0.3094  0.3500
 2821SOL    HW1 9057   1.795   5.127   1.636 -1.0132 -0.0455 -0.0100
 2821SOL    HW2 9058   1.814   5.244   1.731  3.4965 -1.1645  0.5791
 2822SOL     OW 9059   4.869   1.458   5.273  0.5597 -0.3416 -0.2642
 2822SOL    HW1 9060   4.790   1.462   5.327 -0.1874  0.7032 -1.4242
 2822SOL    HW2 9061   4.914   1.540   5.289  1.4166 -0.9237  0.3741
 2823SOL     OW 9062   6.429   4.476   1.740 -0.1572 -0.0812  0.0085
 2823SOL    HW1 9063   6.405   4.419   1.667  1.7166 -1.6670  0.5715
 2823SOL    HW2 9064   6.511   4.440   1.772  0.1687  1.9148  1.5268
 2824SOL     OW 9065   0.175   2.374   4.000 -0.2177  0.2583  0.3954
 2824SOL    HW1 9066   0.107   2.436   3.972 -1.1115 -0.7052  0.4324
 2824SOL    HW2 9067   0.239   2.375   3.929 -1.5207 -0.7240 -0.8174
 2825SOL     OW 9068   2.509   3.609   2.300 -0.4778  0.1084  0.4269
 2825SOL    HW1 9069   2.447   3.545   2.266 -1.8017  1.4453  0.2703
 2825SOL    HW2 9070   2.554   3.643   2.223 -1.3624  0.9895  0.3052
 2826SOL     OW 9071   3.753   5.396   4.373  0.0659  0.4733  0.6984
 2826SOL    HW1 9072   3.767   5.399   4.278 -2.5595  0.6055  0.2674
 2826SOL    HW2 9073   3.800   5.318   4.402  0.9301  0.4579 -0.6942
 2827SOL     OW 9074   2.993   1.363   6.883 -0.1060  0.0952  0.1989
 2827SOL    HW1 9075   2.975   1.301   6.812  0.7445  1.1094 -0.9400
 2827SOL    HW2 9076   2.950   1.325   6.960  0.6187 -2.0114 -0.4057
 2828SOL     OW 9077   0.858   3.790   2.373  0.0677  0.3300 -0.0941
 2828SOL    HW1 9078   0.928   3.737   2.337  0.0389 -0.2067  0.6270
 2828SOL    HW2 9079   0.903   3.858   2.423  0.1099  1.1347 -1.2058
 2829SOL     OW 9080   0.422   4.100   2.118  0.2610  0.1999  0.3099
 2829SOL    HW1 9081   0.379   4.067   2.196  0.0872 -0.3443 -0.0133
 2829SOL    HW2 9082   0.441   4.022   2.066  2.1837  0.3736  0.7218
 2830SOL     OW 9083   1.512   1.380   2.871  0.0398  0.7750  0.3007
 2830SOL    HW1 9084   1.533   1.360   2.780  2.8600  0.7308  0.9006
 2830SOL    HW2 9085   1.566   1.457   2.892 -0.0452  0.3829  2.0903
 2831SOL     OW 9086   0.818   4.275   6.047 -0.1002 -0.1079 -0.0973
 2831SOL    HW1 9087   0.905   4.285   6.008 -0.1213 -0.1075 -0.1440
 2831SOL    HW2 9088   0.821   4.189   6.090  0.0932  0.1098  0.3309
 2832SOL     OW 9089   0.387   2.200   7.157  0.2317  0.3875  0.3966
 2832SOL    HW1 9090   0.430   2.254   7.223 -1.0663  1.3869  0.4598
 2832SOL    HW2 9091   0.296   2.231   7.157 -0.3114 -1.1616 -0.2417
 2833SOL     OW 9092   2.212   6.678   3.095 -0.0166 -0.1691 -0.0343
 2833SOL    HW1 9093   2.128   6.662   3.052 -0.0119 -0.1987 -0.0325
 2833SOL    HW2 9094   2.269   6.711   3.025 -0.4856  1.3659  0.2729
 2834SOL     OW 9095   1.727   0.543   1.426 -0.0332 -0.5981 -0.2357
 2834SOL    HW1 9096   1.657   0.506   1.480  0.9144 -0.2235  1.2879
 2834SOL    HW2 9097   1.682   0.597   1.362 -1.1683 -0.6615  0.5000
 2835SOL     OW 9098   2.488   1.632   5.100  0.3749  0.6411  0.2027
 2835SOL    HW1 9099   2.510   1.632   5.007  0.5891 -0.3782  0.2430
 2835SOL    HW2 9100   2.395   1.608   5.102  0.3563  0.7166  0.2489
 2836SOL     OW 9101   5.254   5.782   4.896 -0.6476  0.0106 -0.0167
 2836SOL    HW1 9102   5.254   5.845   4.824 -1.7887 -0.3179 -0.3271
 2836SOL    HW2 9103   5.210   5.705   4.859  0.0804 -0.6933  0.5850
 2837SOL     OW 9104   0.804   5.739   2.369  0.5051  0.1655 -0.6787
 2837SOL    HW1 9105   0.836   5.828   2.358 -0.1417  0.2344 -2.0083
 2837SOL    HW2 9106   0.723   5.736   2.320 -0.4448 -0.6329  0.8988
 2838SOL     OW 9107   1.109   4.059   2.732 -0.2496 -0.1468  0.2160
 2838SOL    HW1 9108   1.062   3.985   2.771 -0.2216 -0.6986 -0.7791
 2838SOL    HW2 9109   1.143   4.025   2.649  1.3478  0.4388  0.6087
 2839SOL     OW 9110   4.601   7.040   1.510  0.2005  0.2312  0.0229
 2839SOL    HW1 9111   4.685   7.002   1.537 -0.6714 -0.6161  1.6042
 2839SOL    HW2 9112   4.585   7.110   1.574 -0.8759 -0.4079  0.4660
 2840SOL     OW 9113   4.718   0.978   3.432  0.1193 -0.6594 -0.1112
 2840SOL    HW1 9114   4.747   0.890   3.456 -0.7799 -0.5971  1.2761
 2840SOL    HW2 9115   4.625   0.978   3.453  0.0061  0.4529 -0.6186
 2841SOL     OW 9116   1.330   0.601   5.607 -0.1900 -0.3609 -0.2588
 2841SOL    HW1 9117   1.371   0.687   5.600 -2.1249  0.6747  0.7926
 2841SOL    HW2 9118   1.320   0.586   5.701 -1.1059 -1.1055 -0.4580
 2842SOL     OW 9119   0.518   0.640   3.511  0.2119 -0.5904 -0.3537
 2842SOL    HW1 9120   0.504   0.685   3.594  0.0547 -0.5833 -0.3849
 2842SOL    HW2 9121   0.447   0.577   3.505 -0.0457 -0.2735 -0.6980
 2843SOL     OW 9122   2.036   5.206   1.322 -0.0407  0.5023  0.6254
 2843SOL    HW1 9123   1.983   5.130   1.347 -0.7484  0.2754 -1.4166
 2843SOL    HW2 9124   2.117   5.196   1.372  0.0208 -1.8214  0.1369
 2844SOL     OW 9125   4.191   5.376   1.506 -0.2167 -0.3228  0.1584
 2844SOL    HW1 9126   4.216   5.373   1.413  0.2029 -0.6800  0.2783
 2844SOL    HW2 9127   4.098   5.352   1.506 -0.3057  0.0189 -0.2033
 2845SOL     OW 9128   2.720   4.225   1.579 -0.5047  0.8137 -0.3969
 2845SOL    HW1 9129   2.795   4.275   1.547  1.2260 -2.5136 -1.7715
 2845SOL    HW2 9130   2.652   4.238   1.513  0.3623  0.3727 -1.3924
 2846SOL     OW 9131   2.116   5.466   0.631 -0.4636 -0.8636 -0.2114
 2846SOL    HW1 9132   2.169   5.417   0.568  0.9938 -1.3230  1.3638
 2846SOL    HW2 9133   2.178   5.523   0.676 -1.3115 -1.3356  1.5934
 2847SOL     OW 9134   5.570   5.156   6.609  0.3520  0.5225 -0.0266
 2847SOL    HW1 9135   5.568   5.251   6.605 -0.7953  0.5565  1.0887
 2847SOL    HW2 9136   5.598   5.136   6.698 -0.6064 -0.1824  0.1220
 2848SOL     OW 9137   0.743   1.664   6.748  0.7529 -0.5067 -0.3673
 2848SOL    HW1 9138   0.717   1.732   6.811  1.0306 -0.1614 -0.6178
 2848SOL    HW2 9139   0.787   1.713   6.678 -0.2572 -0.8038 -1.2217
 2849SOL     OW 9140   1.457   0.998   6.989 -0.1603  0.0623 -0.5006
 2849SOL    HW1 9141   1.537   0.994   6.937  0.5071 -1.3734  0.5974
 2849SOL    HW2 9142   1.423   0.909   6.987 -1.3626  0.5157 -0.3900
 2850SOL     OW 9143   2.055   6.907   4.995  0.6641  0.1256 -0.1598
 2850SOL    HW1 9144   2.067   6.842   4.925  0.7108  0.9292 -0.9054
 2850SOL    HW2 9145   1.997   6.973   4.957  1.6980  1.2136  0.1256
 2851SOL     OW 9146   2.132   1.026   5.804  0.1155  0.3854  0.1028
 2851SOL    HW1 9147   2.121   1.066   5.718 -2.2415 -1.7980 -0.6468
 2851SOL    HW2 9148   2.060   1.062   5.856  1.1087  1.1399  0.9818
 2852SOL     OW 9149   1.697   3.593   2.182  0.2890 -0.3015 -0.2659
 2852SOL    HW1 9150   1.708   3.650   2.106 -1.5616  0.1122 -0.2423
 2852SOL    HW2 9151   1.755   3.630   2.248  1.0442  0.0165 -1.0903
 2853SOL     OW 9152   5.430   4.265   3.320  0.6018 -0.3603  0.4047
 2853SOL    HW1 9153   5.377   4.344   3.311  0.5976 -0.1803  1.8550
 2853SOL    HW2 9154   5.514   4.287   3.280  0.3741  0.1549  0.2108
 2854SOL     OW 9155   2.716   6.222   5.496  0.5253  0.2414  0.2044
 2854SOL    HW1 9156   2.697   6.265   5.413  3.7052 -2.1821 -1.8680
 2854SOL    HW2 9157   2.687   6.132   5.484  1.8174 -0.3499  1.4021
 2855SOL     OW 9158   4.092   5.151   1.675 -0.0239  0.2919 -0.6299
 2855SOL    HW1 9159   4.022   5.209   1.645  0.0483  0.4215 -0.5539
 2855SOL    HW2 9160   4.144   5.133   1.597  0.8597  1.6000 -0.3823
 2856SOL     OW 9161   3.874   1.683   7.250 -0.2714 -0.3968 -0.0109
 2856SOL    HW1 9162   3.800   1.741   7.233 -0.5763 -0.6121  0.5736
 2856SOL    HW2 9163   3.914   1.670   7.164 -0.8161 -0.1517 -0.3067
 2857SOL     OW 9164   6.513   5.756   2.849  0.4220 -0.0818 -0.3757
 2857SOL    HW1 9165   6.432   5.784   2.891  1.5503  1.2091  1.0139
 2857SOL    HW2 9166   6.498   5.664   2.826 -0.9616 -0.2256  1.0175
 2858SOL     OW 9167   5.738   5.235   2.089 -0.3006 -0.1432  0.1781
 2858SOL    HW1 9168   5.774   5.156   2.129  0.9390 -0.2164 -1.0204
 2858SOL    HW2 9169   5.708   5.288   2.162  0.8573 -0.7682  1.1209
 2859SOL     OW 9170   6.168   6.960   0.598  0.1570 -0.4600 -0.3808
 2859SOL    HW1 9171   6.192   6.964   0.506 -0.2066  1.1648 -0.4260
 2859SOL    HW2 9172   6.250   6.948   0.645  0.2617 -2.0810 -0.9486
 2860SOL     OW 9173   2.992   3.285   1.018  0.1029 -0.1110 -0.2243
 2860SOL    HW1 9174   2.990   3.370   1.063  1.7102 -0.4814  0.5880
 2860SOL    HW2 9175   2.925   3.233   1.063  1.7006 -0.4844  1.8001
 2861SOL     OW 9176   3.010   4.636   6.999  0.1648  0.9315  0.1559
 2861SOL    HW1 9177   2.915   4.626   7.007  0.2200  0.5609  0.3471
 2861SOL    HW2 9178   3.046   4.554   7.032  0.4635  0.1757 -1.9365
 2862SOL     OW 9179   6.037   6.120   1.778 -0.3383 -0.3651  0.6128
 2862SOL    HW1 9180   5.943   6.104   1.785 -0.1028 -1.5626  1.1626
 2862SOL    HW2 9181   6.069   6.111   1.868  0.3565 -0.3241  0.3720
 2863SOL     OW 9182   0.863   4.090   1.202 -0.0731  0.3527  0.4183
 2863SOL    HW1 9183   0.771   4.075   1.221 -0.5534  0.9146 -1.3391
 2863SOL    HW2 9184   0.897   4.003   1.179 -0.1895  0.1669  0.9365
 2864SOL     OW 9185   0.273   3.006   1.937  0.1624 -0.1005 -0.1465
 2864SOL    HW1 9186   0.252   3.098   1.951 -0.2953 -0.2325  0.0314
 2864SOL    HW2 9187   0.332   2.983   2.009  0.2843  0.0542 -0.1967
 2865SOL     OW 9188   6.528   3.191   1.807 -0.6746 -0.2245  0.3582
 2865SOL    HW1 9189   6.623   3.196   1.806 -0.6531 -0.3186  1.4699
 2865SOL    HW2 9190   6.509   3.104   1.844 -1.1957  0.0050  0.6274
 2866SOL     OW 9191   2.009   3.717   5.609 -0.3710 -0.3516 -0.9619
 2866SOL    HW1 9192   1.952   3.658   5.658  0.0609  0.3099  0.3626
 2866SOL    HW2 9193   2.080   3.737   5.670 -0.8974  2.1128 -1.1325
 2867SOL     OW 9194   1.706   4.232   6.829 -0.1682 -1.0313 -0.3140
 2867SOL    HW1 9195   1.620   4.273   6.828  1.3183  2.2435 -2.9290
 2867SOL    HW2 9196   1.766   4.302   6.852  1.9398 -3.0414  0.4938
 2868SOL     OW 9197   5.989   5.892   6.998  0.1322  0.1684  0.2186
 2868SOL    HW1 9198   6.043   5.843   7.060 -0.2663  0.2406  0.6237
 2868SOL    HW2 9199   5.981   5.979   7.037  0.2365  0.3427 -0.1474
 2869SOL     OW 9200   7.097   1.508   1.713 -0.2318 -0.0211 -0.4096
 2869SOL    HW1 9201   7.061   1.547   1.793  0.8231  0.7807 -0.3141
 2869SOL    HW2 9202   7.037   1.537   1.644  0.5686  1.8316 -0.3430
 2870SOL     OW 9203   3.706   6.616   1.944 -0.4914 -0.1684 -0.5082
 2870SOL    HW1 9204   3.789   6.660   1.960 -0.5525 -0.6718  1.3476
 2870SOL    HW2 9205   3.728   6.523   1.942 -0.9293 -0.2732 -0.4930
 2871SOL     OW 9206   3.036   5.783   0.329 -0.4495  0.1726  0.8167
 2871SOL    HW1 9207   2.947   5.815   0.343 -0.7660 -0.2869 -0.0842
 2871SOL    HW2 9208   3.086   5.818   0.402 -1.1119  1.4587  0.6645
 2872SOL     OW 9209   5.964   0.290   4.177 -0.2747  0.2799 -0.1002
 2872SOL    HW1 9210   5.875   0.257   4.182  0.8520 -2.7652  1.1274
 2872SOL    HW2 9211   6.012   0.224   4.127  1.4424  1.5076 -0.1490
 2873SOL     OW 9212   2.455   0.162   0.510  0.2148  0.3898  0.6128
 2873SOL    HW1 9213   2.518   0.126   0.573  0.0562 -2.9332 -1.0273
 2873SOL    HW2 9214   2.499   0.152   0.425 -0.3847  2.9761 -0.0359
 2874SOL     OW 9215   6.786   2.414   2.531  0.7618  0.1423  0.1548
 2874SOL    HW1 9216   6.793   2.335   2.478  0.9459  0.8706 -0.9256
 2874SOL    HW2 9217   6.876   2.435   2.555  0.6377 -0.4334  1.1283
 2875SOL     OW 9218   6.877   1.984   3.509  0.4382 -0.0671 -0.3467
 2875SOL    HW1 9219   6.821   1.987   3.431  0.6200 -1.2149 -0.5194
 2875SOL    HW2 9220   6.854   1.902   3.553  1.9571 -0.5451 -0.4048
 2876SOL     OW 9221   7.041   0.113   4.223 -0.0695  0.0978 -0.0596
 2876SOL    HW1 9222   7.027   0.082   4.133 -1.1328 -0.0145  0.1287
 2876SOL    HW2 9223   6.982   0.059   4.276  3.8469 -3.0318  1.3620
 2877SOL     OW 9224   5.386   2.395   5.851  0.2510  0.2926 -0.3017
 2877SOL    HW1 9225   5.463   2.341   5.866 -0.1071 -0.3071 -0.6103
 2877SOL    HW2 9226   5.354   2.369   5.765 -0.7376 -0.0135  0.1492
 2878SOL     OW 9227   5.426   4.990   1.328 -0.2056  0.2980  0.5986
 2878SOL    HW1 9228   5.367   5.050   1.374  0.7085  0.2545  1.8580
 2878SOL    HW2 9229   5.419   4.908   1.377 -0.1728 -0.1160 -0.0952
 2879SOL     OW 9230   4.229   0.641   7.159  0.4777  0.0084  0.6720
 2879SOL    HW1 9231   4.244   0.644   7.064  0.2352 -0.0830  0.6295
 2879SOL    HW2 9232   4.278   0.716   7.193 -0.4008  0.7344  0.3417
 2880SOL     OW 9233   5.596   5.096   2.821  0.4356 -0.4164 -0.1339
 2880SOL    HW1 9234   5.597   5.005   2.792  0.2925  0.0937 -1.8200
 2880SOL    HW2 9235   5.656   5.099   2.895  0.6224 -1.8303 -0.2270
 2881SOL     OW 9236   3.601   6.043   4.863  0.1499  0.3665  0.2823
 2881SOL    HW1 9237   3.567   6.026   4.951  2.3454  1.2499  1.3193
 2881SOL    HW2 9238   3.679   5.988   4.856 -0.0477  0.2414 -1.1621
 2882SOL     OW 9239   6.819   4.255   3.002 -0.0212 -0.1593  0.6673
 2882SOL    HW1 9240   6.750   4.320   3.011 -1.4964 -0.9435 -3.5037
 2882SOL    HW2 9241   6.773   4.171   3.007  1.2578 -0.8071  1.8596
 2883SOL     OW 9242   5.294   4.308   6.807 -1.0340 -0.0761  0.3438
 2883SOL    HW1 9243   5.225   4.340   6.866 -1.2428  0.3051 -0.1050
 2883SOL    HW2 9244   5.249   4.245   6.750 -0.6808 -0.9830  1.0515
 2884SOL     OW 9245   1.968   6.966   3.731 -0.7594  0.7546 -0.1757
 2884SOL    HW1 9246   1.925   7.039   3.686 -0.5975  1.0924  0.2192
 2884SOL    HW2 9247   1.995   7.001   3.816 -1.0812  0.1108  0.2014
 2885SOL     OW 9248   5.728   4.410   4.623  0.4532  0.4589 -0.2836
 2885SOL    HW1 9249   5.716   4.348   4.695 -1.2029  0.5964 -0.4340
 2885SOL    HW2 9250   5.662   4.477   4.638  1.3321  1.4770 -0.8929
 2886SOL     OW 9251   5.581   0.001   6.702  0.1865  0.4956 -0.8162
 2886SOL    HW1 9252   5.530  -0.078   6.718  0.2524  0.3220 -1.4606
 2886SOL    HW2 9253   5.644  -0.025   6.635  1.4064  0.5795  0.2802
 2887SOL     OW 9254   3.186   4.647   0.518  0.8091 -0.7093  0.2430
 2887SOL    HW1 9255   3.109   4.614   0.471 -0.8636  0.6562  1.9225
 2887SOL    HW2 9256   3.183   4.603   0.603  1.6606 -0.3443  0.4690
 2888SOL     OW 9257   2.985   2.284   6.750  0.2942 -0.0406 -0.0210
 2888SOL    HW1 9258   3.029   2.211   6.795 -1.1607 -0.5626  0.5826
 2888SOL    HW2 9259   3.025   2.363   6.788  1.1872 -0.5131  0.0347
 2889SOL     OW 9260   3.522   0.368   6.632 -0.0825 -0.2997  0.4737
 2889SOL    HW1 9261   3.461   0.338   6.699 -1.2161  2.3825  0.6974
 2889SOL    HW2 9262   3.491   0.328   6.551 -2.0049  0.7828  0.6376
 2890SOL     OW 9263   1.920   4.380   6.417  0.6020  0.7459 -0.1301
 2890SOL    HW1 9264   1.980   4.401   6.488  1.9394  1.9255 -1.5892
 2890SOL    HW2 9265   1.908   4.285   6.423  0.8753  0.8039  1.5129
 2891SOL     OW 9266   5.751   2.601   3.173 -0.0853  0.1733 -0.3175
 2891SOL    HW1 9267   5.847   2.596   3.179  0.0901  1.7653 -1.4278
 2891SOL    HW2 9268   5.721   2.513   3.195  1.6986 -0.6542 -1.0803
 2892SOL     OW 9269   3.066   6.377   2.033 -0.3484 -0.1898 -0.1552
 2892SOL    HW1 9270   3.141   6.380   2.092 -0.9365  2.5075  0.4974
 2892SOL    HW2 9271   3.070   6.459   1.984 -0.8920 -1.5887 -2.6463
 2893SOL     OW 9272   5.983   5.149   1.461  0.7136 -0.2112  0.0459
 2893SOL    HW1 9273   6.016   5.182   1.545  0.2645 -1.1164  0.5911
 2893SOL    HW2 9274   5.890   5.172   1.462  0.9983  1.0149 -0.8287
 2894SOL     OW 9275   3.778   0.382   5.515  0.1570  0.3442 -0.0126
 2894SOL    HW1 9276   3.801   0.421   5.600  0.2229  2.6324 -1.0344
 2894SOL    HW2 9277   3.709   0.440   5.481 -0.3338 -0.9341 -1.2252
 2895SOL     OW 9278   4.159   6.266   5.044  0.0711  0.0400 -0.0205
 2895SOL    HW1 9279   4.204   6.347   5.068 -1.3597  0.9480 -0.3223
 2895SOL    HW2 9280   4.070   6.276   5.079 -0.0468 -1.5169  0.1699
 2896SOL     OW 9281   6.037   0.487   3.315  0.3813  0.4165 -0.0700
 2896SOL    HW1 9282   5.969   0.438   3.268 -0.2337 -1.1555  2.3793
 2896SOL    HW2 9283   5.998   0.508   3.400  2.5254  0.5489  0.9219
 2897SOL     OW 9284   1.511   3.944   3.888 -0.5090 -0.2692 -0.2092
 2897SOL    HW1 9285   1.603   3.967   3.897 -0.4488 -0.8398  0.7090
 2897SOL    HW2 9286   1.511   3.853   3.861 -0.7809  0.2767 -2.1257
 2898SOL     OW 9287   2.252   6.894   4.393  0.1031  0.3225  0.1083
 2898SOL    HW1 9288   2.228   6.877   4.302 -2.2493 -0.7734  0.8892
 2898SOL    HW2 9289   2.297   6.979   4.391 -1.2912  1.0458 -1.8780
 2899SOL     OW 9290   0.089   4.840   6.250 -0.2277  0.0347  0.4659
 2899SOL    HW1 9291   0.064   4.816   6.161 -2.2489  0.9493  0.7565
 2899SOL    HW2 9292   0.162   4.902   6.238  0.9927 -1.5342 -0.4530
 2900SOL     OW 9293   1.212   3.745   2.549 -0.0377 -0.3046  0.1502
 2900SOL    HW1 9294   1.259   3.756   2.632 -0.9747 -2.3106  0.9889
 2900SOL    HW2 9295   1.244   3.661   2.515  0.3453  0.5045 -1.5460
 2901SOL     OW 9296   1.253   1.987   1.948  0.1959  0.3633  0.1598
 2901SOL    HW1 9297   1.232   1.906   1.903 -1.8316  0.8201  0.2275
 2901SOL    HW2 9298   1.328   1.965   2.004  1.1262 -0.8390 -1.5160
 2902SOL     OW 9299   7.030   3.333   6.922 -0.4780 -0.0219  0.1558
 2902SOL    HW1 9300   6.991   3.268   6.981  0.3550 -0.5003  0.1876
 2902SOL    HW2 9301   6.976   3.329   6.844 -0.7107 -0.4359  0.3319
 2903SOL     OW 9302   0.773   2.548   2.347  0.1203  0.2828 -0.5310
 2903SOL    HW1 9303   0.864   2.571   2.328  0.6223 -0.9089  0.4162
 2903SOL    HW2 9304   0.767   2.455   2.326 -0.0496 -0.4121  2.3692
 2904SOL     OW 9305   2.642   6.724   3.760 -0.1691  0.4076  0.0523
 2904SOL    HW1 9306   2.550   6.698   3.773 -0.4645  1.3938 -0.0470
 2904SOL    HW2 9307   2.655   6.797   3.821  0.8651 -0.4298  0.8613
 2905SOL     OW 9308   3.345   0.316   2.164 -0.2807  0.3462  1.5194
 2905SOL    HW1 9309   3.328   0.403   2.128 -1.6921 -1.0737 -1.3978
 2905SOL    HW2 9310   3.438   0.302   2.150 -0.7274 -0.0375 -1.4751
 2906SOL     OW 9311   0.321   4.615   6.283 -0.1778 -0.5617  1.2588
 2906SOL    HW1 9312   0.334   4.661   6.200  1.0838  1.3875  2.5129
 2906SOL    HW2 9313   0.285   4.680   6.342 -0.3506 -1.7414  2.4762
 2907SOL     OW 9314   6.528   6.198   3.215 -0.3561 -0.0153 -0.5369
 2907SOL    HW1 9315   6.442   6.238   3.200 -1.1512 -0.7326  1.8277
 2907SOL    HW2 9316   6.539   6.201   3.310  1.0319 -2.4030 -0.5909
 2908SOL     OW 9317   0.102   1.700   6.012 -0.3353  0.2676 -0.2554
 2908SOL    HW1 9318   0.079   1.704   5.919  0.7547  2.5951 -0.4627
 2908SOL    HW2 9319   0.110   1.792   6.038  3.2375 -0.3698  1.1778
 2909SOL     OW 9320   2.764   4.557   1.893  0.4215  0.2235  0.0710
 2909SOL    HW1 9321   2.702   4.550   1.966  0.0887  0.3013 -0.2056
 2909SOL    HW2 9322   2.795   4.647   1.897 -1.5468  0.9946 -1.4686
 2910SOL     OW 9323   7.035   4.862   0.783  0.1842  0.2740 -0.3162
 2910SOL    HW1 9324   6.946   4.829   0.772 -0.0393 -0.2195  2.5297
 2910SOL    HW2 9325   7.091   4.785   0.775 -0.0933 -0.3654  3.0605
 2911SOL     OW 9326   0.533   1.585   5.964 -0.2200  0.6863  0.1915
 2911SOL    HW1 9327   0.619   1.600   5.924  0.0454  1.9641  1.1933
 2911SOL    HW2 9328   0.472   1.632   5.908  0.0039  1.4943  0.6161
 2912SOL     OW 9329   1.373   0.234   2.757  0.0526  0.1700  0.1158
 2912SOL    HW1 9330   1.306   0.301   2.773 -0.7162 -0.5674  0.0484
 2912SOL    HW2 9331   1.440   0.250   2.823 -0.9510 -0.0540  1.2055
 2913SOL     OW 9332   3.098   2.118   6.274 -0.0604  0.7376 -0.0388
 2913SOL    HW1 9333   3.065   2.202   6.242  1.6795  1.2299 -0.5800
 2913SOL    HW2 9334   3.149   2.083   6.201 -0.1684 -0.4608  0.4446
 2914SOL     OW 9335   4.019   6.204   4.578 -0.3741  0.0726  0.4162
 2914SOL    HW1 9336   4.050   6.223   4.666  0.6775 -2.9756  0.7762
 2914SOL    HW2 9337   3.977   6.118   4.585  1.1666 -0.9873 -2.3287
 2915SOL     OW 9338   0.490   1.791   0.652  0.2530 -1.0071  0.6644
 2915SOL    HW1 9339   0.415   1.849   0.639  1.1987  0.3106  0.9301
 2915SOL    HW2 9340   0.488   1.769   0.745  1.6803  1.1822  1.2611
 2916SOL     OW 9341   1.699   3.510   7.204 -0.3585 -0.4733 -0.3873
 2916SOL    HW1 9342   1.785   3.481   7.175 -0.0205 -0.0601  0.1977
 2916SOL    HW2 9343   1.637   3.456   7.154  0.2231 -0.3798 -1.2132
 2917SOL     OW 9344   0.257   7.232   3.991  0.1140 -0.9896  0.3153
 2917SOL    HW1 9345   0.169   7.267   4.008  0.2694 -1.4252  2.1676
 2917SOL    HW2 9346   0.245   7.173   3.916 -1.6524 -2.8089  1.9612
 2918SOL     OW 9347   1.166   2.637   0.338 -0.0077  0.8832  0.2110
 2918SOL    HW1 9348   1.242   2.621   0.394  0.0725 -1.3187 -0.5042
 2918SOL    HW2 9349   1.201   2.687   0.264  1.1240 -1.6369 -0.9982
 2919SOL     OW 9350   3.476   1.681   1.536  0.2435  0.1848  0.3768
 2919SOL    HW1 9351   3.481   1.689   1.441 -1.1446 -3.7889 -0.1384
 2919SOL    HW2 9352   3.564   1.654   1.562 -0.2113 -2.0800 -0.2712
 2920SOL     OW 9353   3.965   5.718   2.841  0.0987  0.4459  0.4148
 2920SOL    HW1 9354   4.048   5.708   2.795 -0.0705  1.0370 -0.0303
 2920SOL    HW2 9355   3.922   5.632   2.834 -0.5751  0.9431 -1.8166
 2921SOL     OW 9356   2.212   3.224   3.086 -0.1888  0.0617 -0.2953
 2921SOL    HW1 9357   2.203   3.130   3.075 -0.6032  0.2190 -1.4149
 2921SOL    HW2 9358   2.307   3.239   3.091 -0.1429 -0.4616  0.3154
 2922SOL     OW 9359   1.593   4.332   7.127  0.1045 -0.4472  0.3984
 2922SOL    HW1 9360   1.575   4.239   7.117 -0.0224 -0.2816 -0.9732
 2922SOL    HW2 9361   1.678   4.336   7.170  0.9039 -1.1802 -1.1100
 2923SOL     OW 9362   4.059   1.263   1.807 -0.4148  0.3394 -0.5206
 2923SOL    HW1 9363   4.100   1.272   1.721  0.4960 -2.8449 -0.4914
 2923SOL    HW2 9364   3.986   1.203   1.792 -0.7376  0.3973  0.7619
 2924SOL     OW 9365   0.801   5.708   5.632 -0.6008 -0.4251 -0.0463
 2924SOL    HW1 9366   0.868   5.733   5.696  0.7733 -1.8244 -0.9117
 2924SOL    HW2 9367   0.744   5.785   5.626 -1.6298 -0.8008  3.9419
 2925SOL     OW 9368   0.138   3.670   5.160  0.1400 -0.0889  0.3441
 2925SOL    HW1 9369   0.170   3.650   5.248 -1.6251 -1.4182  0.6984
 2925SOL    HW2 9370   0.060   3.723   5.174 -1.0059 -1.5566 -0.3690
 2926SOL     OW 9371   4.792   1.780   6.686 -0.5391 -0.2433  0.3867
 2926SOL    HW1 9372   4.789   1.752   6.778  0.1572 -0.9645  0.1936
 2926SOL    HW2 9373   4.831   1.867   6.689 -0.3985 -0.3167  0.7665
 2927SOL     OW 9374   0.976   7.248   4.579 -0.1335  0.2013 -0.1018
 2927SOL    HW1 9375   1.068   7.230   4.602 -0.5987  0.4985  2.1111
 2927SOL    HW2 9376   0.982   7.302   4.500  1.5703 -0.4972 -0.4912
 2928SOL     OW 9377   2.097   7.083   2.897 -0.0436 -0.7775 -0.0094
 2928SOL    HW1 9378   2.121   7.060   2.808  0.3861 -1.5952  0.3138
 2928SOL    HW2 9379   2.168   7.048   2.951  0.2852  0.7323  0.5528
 2929SOL     OW 9380   2.089   2.609   1.893  0.2266  0.0644  0.1456
 2929SOL    HW1 9381   2.036   2.687   1.877 -0.9348 -0.8056 -0.3374
 2929SOL    HW2 9382   2.025   2.542   1.919  1.1103 -0.9621 -0.2937
 2930SOL     OW 9383   0.050   2.168   6.431  0.1074 -0.8264  0.5596
 2930SOL    HW1 9384   0.138   2.162   6.395  0.5867  0.2591  1.5095
 2930SOL    HW2 9385   0.049   2.105   6.504 -0.2652 -1.6415 -0.1352
 2931SOL     OW 9386   2.733   3.003   3.471 -0.3137 -0.4209  0.2465
 2931SOL    HW1 9387   2.799   3.047   3.525 -0.4542  0.1500 -0.0426
 2931SOL    HW2 9388   2.742   2.911   3.494  1.7474 -0.5769 -1.0392
 2932SOL     OW 9389   3.019   4.183   5.195 -0.0940 -0.2320  0.2538
 2932SOL    HW1 9390   3.003   4.273   5.224  0.1413 -0.1096  0.0001
 2932SOL    HW2 9391   3.110   4.166   5.219  0.0084 -0.2362 -0.1417
 2933SOL     OW 9392   7.153   6.681   0.574  0.5882  0.3084 -0.0142
 2933SOL    HW1 9393   7.171   6.737   0.498 -0.0188  1.9769  1.0345
 2933SOL    HW2 9394   7.235   6.635   0.590  1.3959  1.6242 -0.3217
 2934SOL     OW 9395   3.423   6.403   5.573 -0.9595  0.0900 -0.5152
 2934SOL    HW1 9396   3.458   6.365   5.492  0.6102  0.8407 -0.1936
 2934SOL    HW2 9397   3.463   6.352   5.643 -2.1352 -0.3966 -0.1756
 2935SOL     OW 9398   1.233   5.248   3.486 -0.0627  0.1894  0.5300
 2935SOL    HW1 9399   1.214   5.156   3.504 -2.0101  0.6638  0.9135
 2935SOL    HW2 9400   1.151   5.294   3.500  0.8615  1.9992  0.2457
 2936SOL     OW 9401   0.248   1.600   6.643 -0.1805  0.4603 -0.3355
 2936SOL    HW1 9402   0.286   1.555   6.719 -1.1693  0.6921  0.2952
 2936SOL    HW2 9403   0.299   1.567   6.569  1.7562  1.3196  0.5767
 2937SOL     OW 9404   0.822   1.773   3.173  0.4142 -0.0641 -0.4214
 2937SOL    HW1 9405   0.862   1.855   3.203  2.3584 -0.3928 -2.0775
 2937SOL    HW2 9406   0.836   1.711   3.244  1.2415  0.3201 -0.2555
 2938SOL     OW 9407   4.337   3.595   1.675 -0.4358  0.8507 -0.4701
 2938SOL    HW1 9408   4.324   3.675   1.625  0.5216  1.4677  0.2458
 2938SOL    HW2 9409   4.283   3.606   1.754 -2.0337 -0.1685 -1.3858
 2939SOL     OW 9410   5.744   2.853   6.345  0.1520  0.1922 -0.1087
 2939SOL    HW1 9411   5.836   2.855   6.319 -0.0571 -0.9574 -0.9597
 2939SOL    HW2 9412   5.712   2.941   6.325  0.9059  0.4151 -0.3553
 2940SOL     OW 9413   3.384   0.777   2.621 -0.2324 -0.6049 -0.2523
 2940SOL    HW1 9414   3.392   0.725   2.701 -2.0486 -2.3049 -1.1311
 2940SOL    HW2 9415   3.471   0.775   2.582  0.3537 -0.8191  1.0578
 2941SOL     OW 9416   4.578   3.217   1.130  0.2705 -0.1759 -0.8491
 2941SOL    HW1 9417   4.557   3.298   1.177 -1.9342 -0.4313 -1.3328
 2941SOL    HW2 9418   4.543   3.148   1.187 -0.8813 -0.5846 -2.0432
 2942SOL     OW 9419   0.527   7.206   2.030 -0.3305 -0.2006  0.4608
 2942SOL    HW1 9420   0.531   7.115   2.059 -0.2967  0.4767  2.6915
 2942SOL    HW2 9421   0.460   7.246   2.086  0.4026  1.3801  0.2348
 2943SOL     OW 9422   1.728   0.954   4.345  0.3790  0.2998  0.1163
 2943SOL    HW1 9423   1.636   0.954   4.321  0.1632  2.2586  0.8728
 2943SOL    HW2 9424   1.765   0.878   4.300 -1.5930 -0.5065 -0.1836
 2944SOL     OW 9425   0.110   1.388   5.583  0.0859  0.2580  0.2205
 2944SOL    HW1 9426   0.061   1.467   5.561 -0.4224  0.0243  0.4950
 2944SOL    HW2 9427   0.045   1.318   5.581  0.0507  0.1985  2.2297
 2945SOL     OW 9428   5.880   5.446   5.267 -0.0800 -0.0276 -0.0358
 2945SOL    HW1 9429   5.799   5.470   5.221  0.4120 -0.1475 -0.9951
 2945SOL    HW2 9430   5.871   5.484   5.354 -0.7986  0.7168 -0.4269
 2946SOL     OW 9431   1.006   3.344   2.845  0.4268  0.3103  0.0512
 2946SOL    HW1 9432   0.994   3.341   2.940 -1.1861  0.8768 -0.1132
 2946SOL    HW2 9433   1.054   3.426   2.829 -0.9500  1.1722  0.2372
 2947SOL     OW 9434   6.854   6.838   3.345  0.0546  0.1360 -0.1612
 2947SOL    HW1 9435   6.806   6.771   3.394 -3.1223  0.5663 -2.4748
 2947SOL    HW2 9436   6.845   6.811   3.254  3.7030  0.6828 -0.7335
 2948SOL     OW 9437   4.829   5.402   3.372  0.5387 -0.0764 -0.0801
 2948SOL    HW1 9438   4.750   5.347   3.377  0.3619  0.2034  0.2096
 2948SOL    HW2 9439   4.810   5.467   3.305  1.0665 -0.8717 -1.0258
 2949SOL     OW 9440   5.693   3.301   4.739 -0.4031 -0.3436 -0.3666
 2949SOL    HW1 9441   5.712   3.383   4.693 -2.2430 -0.2780 -1.0588
 2949SOL    HW2 9442   5.713   3.320   4.831  1.2838  0.1880 -0.8385
 2950SOL     OW 9443   6.971   1.848   5.517  0.5871 -0.0750 -0.3379
 2950SOL    HW1 9444   6.877   1.866   5.525  0.5251 -0.8077  0.7023
 2950SOL    HW2 9445   7.013   1.926   5.552  0.4054  1.1522 -2.7512
 2951SOL     OW 9446   2.780   1.481   0.796  0.0330  0.4066 -0.1926
 2951SOL    HW1 9447   2.728   1.558   0.773  1.0230  1.1940  0.2023
 2951SOL    HW2 9448   2.856   1.485   0.739 -0.2542 -0.6917 -0.6874
 2952SOL     OW 9449   1.907   1.319   3.175  0.3080  0.2839 -0.4026
 2952SOL    HW1 9450   1.920   1.261   3.250 -1.0031  1.0378  0.4227
 2952SOL    HW2 9451   1.859   1.266   3.112  0.0570  0.1357 -0.0863
 2953SOL     OW 9452   4.542   7.036   6.537  0.3755  0.1141 -0.0689
 2953SOL    HW1 9453   4.528   7.039   6.632  0.0150 -1.0480 -0.0778
 2953SOL    HW2 9454   4.609   6.969   6.524 -1.8729 -2.0909 -0.8517
 2954SOL     OW 9455   5.709   5.913   5.715 -0.1117 -0.1536 -0.0660
 2954SOL    HW1 9456   5.658   5.990   5.737 -1.3378 -0.7099 -0.8806
 2954SOL    HW2 9457   5.741   5.930   5.627 -2.2118 -1.4747 -1.1242
 2955SOL     OW 9458   4.366   0.763   5.189  0.1720 -0.4418 -0.4099
 2955SOL    HW1 9459   4.272   0.749   5.198 -0.0787 -0.1496 -2.3462
 2955SOL    HW2 9460   4.401   0.676   5.170  0.2604 -0.5107  0.0698
 2956SOL     OW 9461   2.520   5.450   2.598  0.3431  0.2621 -0.1639
 2956SOL    HW1 9462   2.544   5.539   2.625 -0.4154  0.4744 -0.1878
 2956SOL    HW2 9463   2.537   5.448   2.504  0.6192  0.2988 -0.1149
 2957SOL     OW 9464   6.532   4.259   3.840 -0.6318  0.6100 -0.0820
 2957SOL    HW1 9465   6.451   4.287   3.884 -1.3255 -0.8121 -0.4371
 2957SOL    HW2 9466   6.525   4.164   3.835  0.2525  0.6113 -1.7107
 2958SOL     OW 9467   6.235   6.529   3.038  0.5312  0.0679 -0.1751
 2958SOL    HW1 9468   6.157   6.559   3.085  1.0125 -1.2453  1.5153
 2958SOL    HW2 9469   6.205   6.514   2.948 -1.4609 -1.4990  0.7063
 2959SOL     OW 9470   5.210   6.161   6.421 -1.0807  0.1982 -0.2747
 2959SOL    HW1 9471   5.283   6.187   6.365  0.1761 -0.9648  0.7931
 2959SOL    HW2 9472   5.207   6.066   6.415 -1.3771  0.1109  1.0704
 2960SOL     OW 9473   4.905   5.623   4.573 -0.0682  0.2243  0.3733
 2960SOL    HW1 9474   4.877   5.562   4.505 -1.9295  1.1372  0.2908
 2960SOL    HW2 9475   4.941   5.698   4.524 -2.3581  1.3390  0.3075
 2961SOL     OW 9476   2.119   0.735   3.043  0.0906  0.4223 -0.8988
 2961SOL    HW1 9477   2.114   0.824   3.080 -0.1487  1.0777 -2.4492
 2961SOL    HW2 9478   2.193   0.739   2.982  0.9728 -0.8576  0.0799
 2962SOL     OW 9479   2.677   6.573   4.785 -0.2664 -0.1598 -0.5978
 2962SOL    HW1 9480   2.687   6.667   4.801 -0.1243 -0.3074  0.1769
 2962SOL    HW2 9481   2.755   6.534   4.824 -0.2163 -0.5841 -1.1173
 2963SOL     OW 9482   4.184   4.158   4.853 -0.1666  0.1426 -0.2045
 2963SOL    HW1 9483   4.205   4.154   4.946  0.8525  1.2428 -0.3802
 2963SOL    HW2 9484   4.236   4.231   4.820 -0.7119 -0.0887 -1.5895
 2964SOL     OW 9485   5.373   0.941   5.103 -0.7666 -0.3052  0.2213
 2964SOL    HW1 9486   5.461   0.921   5.070  0.8081  2.0109  2.8039
 2964SOL    HW2 9487   5.334   0.995   5.035  0.0021 -0.9201 -0.7236
 2965SOL     OW 9488   0.324   5.246   4.397 -0.1898  0.3545  0.2484
 2965SOL    HW1 9489   0.306   5.152   4.396  1.2851  0.0550 -1.5487
 2965SOL    HW2 9490   0.296   5.276   4.483 -1.9072 -1.4828  0.3582
 2966SOL     OW 9491   4.391   1.562   6.800 -0.4697 -0.5444  0.1687
 2966SOL    HW1 9492   4.335   1.509   6.857 -1.9900 -1.6807 -2.2751
 2966SOL    HW2 9493   4.408   1.641   6.851 -2.5227 -1.1162  1.8450
 2967SOL     OW 9494   4.589   2.694   2.612 -0.0229 -0.1882 -0.0004
 2967SOL    HW1 9495   4.494   2.702   2.606  0.1246  1.3512 -0.4336
 2967SOL    HW2 9496   4.621   2.724   2.528  0.8442 -0.8705  0.0845
 2968SOL     OW 9497   4.641   5.313   6.888 -0.0823  0.3671  0.1793
 2968SOL    HW1 9498   4.652   5.319   6.794  0.2102  0.7019  0.2332
 2968SOL    HW2 9499   4.730   5.300   6.922 -0.2572 -0.3609  0.3644
 2969SOL     OW 9500   6.171   5.618   3.137  0.7061 -0.4153  0.0070
 2969SOL    HW1 9501   6.214   5.627   3.222 -0.9123  0.3789  0.7720
 2969SOL    HW2 9502   6.122   5.536   3.143 -0.3443  0.2314  0.2680
 2970SOL     OW 9503   0.803   4.728   1.083 -0.0983  0.0056  0.3307
 2970SOL    HW1 9504   0.825   4.764   0.997  3.1949 -1.9759  0.2817
 2970SOL    HW2 9505   0.885   4.733   1.133 -2.2944  2.5617  3.9434
 2971SOL     OW 9506   3.895   5.351   6.081 -0.1474  0.1676 -0.0420
 2971SOL    HW1 9507   3.968   5.306   6.123 -1.5755 -2.5334 -0.3641
 2971SOL    HW2 9508   3.843   5.386   6.153 -0.8842 -1.7082  0.3433
 2972SOL     OW 9509   3.299   2.732   1.235  0.4527 -0.2120  0.8316
 2972SOL    HW1 9510   3.303   2.788   1.157  1.6192  0.6436  1.4989
 2972SOL    HW2 9511   3.373   2.672   1.225  0.1130 -0.6474  0.8873
 2973SOL     OW 9512   1.598   5.390   5.200 -0.4205  0.0678 -0.0857
 2973SOL    HW1 9513   1.688   5.420   5.194 -0.5566  0.1275 -2.6195
 2973SOL    HW2 9514   1.573   5.404   5.291  1.9317  0.5818  0.5048
 2974SOL     OW 9515   3.330   1.757   2.712 -0.2840 -0.1703  0.0909
 2974SOL    HW1 9516   3.307   1.766   2.619 -0.2481  0.5909  0.1500
 2974SOL    HW2 9517   3.405   1.698   2.712 -0.9318 -1.0138 -0.2735
 2975SOL     OW 9518   5.091   5.625   1.150  0.1978 -0.1775  0.6832
 2975SOL    HW1 9519   5.068   5.571   1.226  0.8129 -0.7640  0.4569
 2975SOL    HW2 9520   5.181   5.601   1.130  0.1298  0.1794 -0.0728
 2976SOL     OW 9521   7.175   5.608   7.136  0.2706 -0.0511 -0.2743
 2976SOL    HW1 9522   7.096   5.557   7.151  1.0130 -1.9085 -2.4565
 2976SOL    HW2 9523   7.235   5.581   7.206 -0.1802 -0.3964 -0.0212
 2977SOL     OW 9524   1.042   2.655   5.683 -0.5972 -0.2255  0.2216
 2977SOL    HW1 9525   1.032   2.729   5.623 -2.0583 -1.3144 -0.9127
 2977SOL    HW2 9526   0.976   2.671   5.751 -0.0212  0.1781  0.6954
 2978SOL     OW 9527   0.101   3.455   3.246  0.7151  0.4733  0.4682
 2978SOL    HW1 9528   0.165   3.493   3.185  1.3565 -1.9304 -0.4142
 2978SOL    HW2 9529   0.151   3.439   3.326  1.0735 -0.8222 -0.0092
 2979SOL     OW 9530   3.019   5.416   3.266 -0.1117  0.5441 -0.1378
 2979SOL    HW1 9531   3.005   5.355   3.193 -0.8014 -0.0099  0.4496
 2979SOL    HW2 9532   3.049   5.361   3.338  1.7851  1.2619 -0.3627
 2980SOL     OW 9533   6.015   3.659   3.676 -0.1113  0.9031 -0.2608
 2980SOL    HW1 9534   6.098   3.689   3.640  0.8278 -1.3200 -0.0445
 2980SOL    HW2 9535   5.959   3.736   3.676  1.4968  2.0938 -1.7440
 2981SOL     OW 9536   0.019   4.630   5.587  0.5469  0.0431  0.1235
 2981SOL    HW1 9537   0.052   4.543   5.565  1.3536  0.3627  0.0312
 2981SOL    HW2 9538   0.006   4.673   5.503 -1.0805 -0.4252  0.1295
 2982SOL     OW 9539   6.711   2.739   1.818  0.6272  0.1629 -0.5608
 2982SOL    HW1 9540   6.745   2.727   1.907 -0.6066 -1.2601 -0.2665
 2982SOL    HW2 9541   6.705   2.650   1.783 -0.2741  0.6111 -1.5581
 2983SOL     OW 9542   6.377   5.261   1.168  0.7611  0.0628 -0.1016
 2983SOL    HW1 9543   6.356   5.276   1.260 -0.5297  0.0014 -0.3780
 2983SOL    HW2 9544   6.364   5.347   1.126  0.1584 -0.1858 -0.4364
 2984SOL     OW 9545   5.335   3.656   2.737  0.7226 -0.3567 -0.2713
 2984SOL    HW1 9546   5.391   3.722   2.777  1.7042 -1.2187 -0.2135
 2984SOL    HW2 9547   5.355   3.575   2.783 -0.7587 -0.6323 -0.0784
 2985SOL     OW 9548   0.631   1.276   0.085 -0.1692 -0.0557 -0.2102
 2985SOL    HW1 9549   0.555   1.330   0.107 -0.0537 -0.9141  2.3774
 2985SOL    HW2 9550   0.706   1.322   0.122  0.1207 -1.1183  0.5591
 2986SOL     OW 9551   1.482   1.049   3.879 -0.7404 -0.2464 -0.2387
 2986SOL    HW1 9552   1.442   1.134   3.860 -1.4688 -0.1325  1.6625
 2986SOL    HW2 9553   1.408   0.990   3.893 -0.3006 -0.2109  2.5602
 2987SOL     OW 9554   1.775   3.154   2.665 -0.0112  0.1081 -0.1896
 2987SOL    HW1 9555   1.692   3.154   2.618  0.4053 -2.2299 -1.0185
 2987SOL    HW2 9556   1.750   3.155   2.757 -0.9758 -0.8264 -0.4307
 2988SOL     OW 9557   5.433   4.087   2.047  0.3121 -0.3963  0.0592
 2988SOL    HW1 9558   5.512   4.035   2.062  0.7371  0.9497  2.7999
 2988SOL    HW2 9559   5.361   4.030   2.074  0.6262 -0.2851  1.1351
 2989SOL     OW 9560   2.789   4.038   1.384  0.1895  0.5410  0.0953
 2989SOL    HW1 9561   2.743   3.956   1.366  0.4218  0.5028 -0.3250
 2989SOL    HW2 9562   2.730   4.086   1.443  0.9005 -0.7164  1.8729
 2990SOL     OW 9563   0.564   3.686   3.287  0.0347  0.1646 -0.1554
 2990SOL    HW1 9564   0.526   3.771   3.309  0.0009  0.1208 -0.0484
 2990SOL    HW2 9565   0.608   3.701   3.203 -0.4916  0.1306 -0.4390
 2991SOL     OW 9566   7.034   0.593   3.459  0.0548 -0.0126 -0.1923
 2991SOL    HW1 9567   7.114   0.636   3.488 -1.1364  0.2827  2.7742
 2991SOL    HW2 9568   7.042   0.503   3.489 -1.4740  0.4569  1.7264
 2992SOL     OW 9569   5.739   1.944   5.462 -0.1764 -0.1924  0.1813
 2992SOL    HW1 9570   5.680   1.870   5.476  0.4234 -0.9633 -1.2773
 2992SOL    HW2 9571   5.724   1.970   5.371 -0.4738  1.5803  0.7042
 2993SOL     OW 9572   1.478   3.545   2.793  0.2763 -0.3680 -0.1209
 2993SOL    HW1 9573   1.445   3.504   2.713 -2.3761  0.9835  0.2167
 2993SOL    HW2 9574   1.498   3.472   2.851 -2.3518 -1.2885 -0.3107
 2994SOL     OW 9575   6.190   6.936   3.074 -0.6746 -0.3470  0.3820
 2994SOL    HW1 9576   6.273   6.964   3.114 -0.1952  0.1338 -0.9360
 2994SOL    HW2 9577   6.172   6.851   3.115 -1.0010  0.8408  2.7789
 2995SOL     OW 9578   6.237   3.734   5.820  0.3037  0.2504  1.0698
 2995SOL    HW1 9579   6.174   3.800   5.851 -0.9961  0.7541 -2.3453
 2995SOL    HW2 9580   6.294   3.782   5.760  1.1699 -1.1154  0.7816
 2996SOL     OW 9581   0.722   4.951   1.772 -0.4627  0.4004  0.1988
 2996SOL    HW1 9582   0.717   4.870   1.822  1.2555  0.2767  0.2113
 2996SOL    HW2 9583   0.676   4.932   1.691 -2.3666  0.2729  1.2926
 2997SOL     OW 9584   3.913   0.170   6.455  0.1704  0.0500  0.3202
 2997SOL    HW1 9585   3.950   0.215   6.532  1.9632 -1.8319  0.6078
 2997SOL    HW2 9586   3.845   0.113   6.491  2.0908 -2.0164  0.7445
 2998SOL     OW 9587   1.364   0.724   4.122 -0.4042  0.0505 -0.2699
 2998SOL    HW1 9588   1.345   0.799   4.066 -2.0532 -1.6177 -1.9829
 2998SOL    HW2 9589   1.332   0.751   4.209 -0.5194  1.5133 -0.7552
 2999SOL     OW 9590   6.567   4.792   6.580  0.0260 -0.0673 -0.4244
 2999SOL    HW1 9591   6.575   4.786   6.485 -1.5519 -0.6056 -0.5239
 2999SOL    HW2 9592   6.595   4.882   6.600 -3.2993  1.3576 -1.8146
 3000SOL     OW 9593   3.934   6.452   1.775  0.0213  0.2592  0.2958
 3000SOL    HW1 9594   3.876   6.395   1.826 -0.4622 -0.0485 -0.5855
 3000SOL    HW2 9595   3.938   6.534   1.826  0.2465 -0.3442  1.2657
 3001SOL     OW 9596   4.855   5.660   1.883 -0.3841 -0.4580  0.1600
 3001SOL    HW1 9597   4.948   5.644   1.899 -0.4323  0.0938  0.9726
 3001SOL    HW2 9598   4.811   5.628   1.962 -0.8117  0.0831  0.1405
 3002SOL     OW 9599   0.784   6.598   5.351  0.4176  0.6015 -0.0934
 3002SOL    HW1 9600   0.817   6.532   5.412 -0.4368 -1.7066 -2.0440
 3002SOL    HW2 9601   0.861   6.625   5.301  0.6232  0.4134  0.1220
 3003SOL     OW 9602   4.725   5.182   6.168 -0.3873  0.1426  0.4583
 3003SOL    HW1 9603   4.795   5.128   6.205 -0.0548 -0.3948 -0.8981
 3003SOL    HW2 9604   4.768   5.265   6.146 -0.3209  0.0502  0.2337
 3004SOL     OW 9605   0.908   0.011   6.186 -0.3343  0.2918 -0.2139
 3004SOL    HW1 9606   0.874   0.035   6.273  1.3700 -1.2313  0.9083
 3004SOL    HW2 9607   0.961   0.086   6.159 -0.5880  0.6267  0.2199
 3005SOL     OW 9608   3.240   6.074   3.489  0.6893  0.3683 -0.7068
 3005SOL    HW1 9609   3.206   6.044   3.574  0.4542 -2.4058 -1.7156
 3005SOL    HW2 9610   3.322   6.117   3.510 -0.1523  1.1641  1.0915
 3006SOL     OW 9611   6.336   0.669   5.106 -0.3864  0.0379  0.1026
 3006SOL    HW1 9612   6.423   0.630   5.112 -0.3519 -0.4440 -2.7665
 3006SOL    HW2 9613   6.351   0.763   5.112  0.2526 -0.0723  0.2681
 3007SOL     OW 9614   4.717   2.356   5.747 -0.0519 -0.2460  0.3560
 3007SOL    HW1 9615   4.648   2.334   5.684  0.9935 -0.5205 -0.7088
 3007SOL    HW2 9616   4.676   2.417   5.807 -2.2787 -3.0128  1.7953
 3008SOL     OW 9617   6.769   5.973   0.288  0.3929  0.3894  0.0206
 3008SOL    HW1 9618   6.859   5.995   0.311  0.2620 -0.6710  1.6198
 3008SOL    HW2 9619   6.762   5.995   0.195  2.6375 -0.6427 -0.4356
 3009SOL     OW 9620   3.398   6.523   0.217 -0.1495  0.2888 -0.6974
 3009SOL    HW1 9621   3.432   6.608   0.246 -2.2572  1.5202 -1.6907
 3009SOL    HW2 9622   3.320   6.510   0.272 -0.4363 -0.4945 -1.2925
 3010SOL     OW 9623   1.507   2.739   3.171 -0.5710  0.1681  0.4360
 3010SOL    HW1 9624   1.442   2.767   3.106 -1.1216 -0.2343  0.8073
 3010SOL    HW2 9625   1.470   2.766   3.255 -1.5561 -2.4359  0.8918
 3011SOL     OW 9626   5.498   7.163   1.632 -0.1166  0.2264 -0.4632
 3011SOL    HW1 9627   5.535   7.112   1.703  0.3872  0.3258 -0.6529
 3011SOL    HW2 9628   5.559   7.235   1.619 -0.4480  0.4745 -0.6809
 3012SOL     OW 9629   4.498   4.648   1.539 -0.1096  0.2472  0.6061
 3012SOL    HW1 9630   4.591   4.627   1.542  0.5447  2.8636  0.1820
 3012SOL    HW2 9631   4.474   4.636   1.447 -0.5510 -1.7120  0.9482
 3013SOL     OW 9632   3.494   4.580   5.530  0.1066 -0.0856  0.6327
 3013SOL    HW1 9633   3.444   4.656   5.499  0.5361 -0.4959 -1.1256
 3013SOL    HW2 9634   3.526   4.606   5.617 -2.6708  0.3914  1.5678
 3014SOL     OW 9635   6.597   4.930   4.410 -0.4550 -0.3116 -0.4755
 3014SOL    HW1 9636   6.591   4.883   4.494 -0.2642  0.4888 -0.0111
 3014SOL    HW2 9637   6.565   5.018   4.430 -0.1221 -0.0320 -1.1769
 3015SOL     OW 9638   6.776   1.511   3.474  0.2065 -0.0605  0.4691
 3015SOL    HW1 9639   6.780   1.606   3.484  0.0634  0.2848 -2.3519
 3015SOL    HW2 9640   6.855   1.489   3.424  1.2933 -1.7056  2.8180
 3016SOL     OW 9641   3.201   3.149   2.739  0.4951  0.4666 -0.1967
 3016SOL    HW1 9642   3.203   3.110   2.826 -0.0148  0.7800 -0.0448
 3016SOL    HW2 9643   3.210   3.243   2.754 -0.3087  0.5891 -0.4342
 3017SOL     OW 9644   7.152   2.175   7.040 -0.0793  0.0160 -0.1626
 3017SOL    HW1 9645   7.199   2.161   6.958 -1.7851 -1.3853 -0.9396
 3017SOL    HW2 9646   7.186   2.258   7.073  0.6615  0.5836 -2.2582
 3018SOL     OW 9647   3.376   1.199   5.494  0.2636 -0.3444  0.2934
 3018SOL    HW1 9648   3.334   1.173   5.412  0.3932 -2.1175  0.7661
 3018SOL    HW2 9649   3.439   1.129   5.511  0.8173  0.4374  1.4848
 3019SOL     OW 9650   3.064   6.949   3.851 -0.3588  0.0018  0.0768
 3019SOL    HW1 9651   3.084   6.856   3.844  0.4847  0.2738 -1.5107
 3019SOL    HW2 9652   3.006   6.967   3.777 -0.0723  0.8500  0.0517
 3020SOL     OW 9653   4.715   1.911   1.891  0.2740 -0.0574  0.0586
 3020SOL    HW1 9654   4.724   1.933   1.799  1.6554 -0.4588  0.0933
 3020SOL    HW2 9655   4.734   1.817   1.896 -1.2516 -0.3701  0.5557
 3021SOL     OW 9656   0.092   2.882   1.074 -0.5082 -0.2604 -0.3262
 3021SOL    HW1 9657   0.079   2.976   1.086 -1.2207 -0.7593  3.4011
 3021SOL    HW2 9658   0.186   2.870   1.087 -0.3432 -0.0316 -1.2537
 3022SOL     OW 9659   1.221   0.326   4.462  0.0555  0.2105  0.1534
 3022SOL    HW1 9660   1.174   0.408   4.480 -1.0042 -0.4139  0.3200
 3022SOL    HW2 9661   1.168   0.258   4.504  0.1406 -0.7228 -1.1931
 3023SOL     OW 9662   5.027   5.662   3.900  0.2138  0.2771  0.2703
 3023SOL    HW1 9663   5.050   5.755   3.899 -0.1688  0.4297  3.3813
 3023SOL    HW2 9664   4.938   5.659   3.865  0.4124  1.0156 -0.3062
 3024SOL     OW 9665   0.125   5.936   3.068  0.0609  0.6032 -0.0274
 3024SOL    HW1 9666   0.097   5.975   3.150  0.8004 -0.9405  0.9796
 3024SOL    HW2 9667   0.192   5.872   3.093  0.0407 -0.1466 -1.7845
 3025SOL     OW 9668   0.840   4.686   1.700 -0.3029  0.0912 -0.4698
 3025SOL    HW1 9669   0.801   4.605   1.731 -0.9358  0.1716 -1.0508
 3025SOL    HW2 9670   0.811   4.695   1.609  0.9912  0.2015 -0.8929
 3026SOL     OW 9671   2.606   2.701   4.050  0.2831 -0.3390 -0.2136
 3026SOL    HW1 9672   2.615   2.755   3.971  0.1719 -0.4309 -0.2892
 3026SOL    HW2 9673   2.537   2.639   4.028 -0.7596  0.5467  0.4629
 3027SOL     OW 9674   5.194   6.546   4.977 -0.0829 -0.1861 -0.0213
 3027SOL    HW1 9675   5.226   6.636   4.981  2.4475 -1.0833  0.9093
 3027SOL    HW2 9676   5.125   6.548   4.911  0.9070  2.1239 -1.0382
 3028SOL     OW 9677   3.111   1.112   3.993  0.1363  0.2679 -0.4514
 3028SOL    HW1 9678   3.195   1.101   3.947  0.7723 -0.5695  0.8639
 3028SOL    HW2 9679   3.108   1.039   4.054 -2.7483 -1.1643 -2.1972
 3029SOL     OW 9680   6.241   7.211   6.609 -0.0877  0.3038 -0.1396
 3029SOL    HW1 9681   6.194   7.212   6.526  0.3875 -0.7050 -0.4227
 3029SOL    HW2 9682   6.330   7.240   6.587 -0.3852  1.5569  0.2810
 3030SOL     OW 9683   4.084   1.322   1.509  0.0392 -0.0288  0.1944
 3030SOL    HW1 9684   4.163   1.272   1.489  0.0995  0.3233 -0.4789
 3030SOL    HW2 9685   4.100   1.409   1.470 -0.4971  0.1760  0.4244
 3031SOL     OW 9686   3.096   6.683   5.785  0.6343  0.2391 -0.2056
 3031SOL    HW1 9687   3.044   6.728   5.851  1.1781  0.0614  0.3435
 3031SOL    HW2 9688   3.032   6.631   5.736  0.1753  0.6801 -0.0856
 3032SOL     OW 9689   3.938   2.321   7.167  0.3003  0.1200 -0.4470
 3032SOL    HW1 9690   3.863   2.304   7.225  0.3422  0.6021 -0.2559
 3032SOL    HW2 9691   3.937   2.247   7.105 -0.0140 -0.1558 -0.1169
 3033SOL     OW 9692   6.197   4.048   0.484 -0.6034 -0.8716 -0.1726
 3033SOL    HW1 9693   6.144   4.084   0.555  0.7419 -1.3477  1.1152
 3033SOL    HW2 9694   6.215   3.958   0.511  0.9511 -0.6800 -0.5097
 3034SOL     OW 9695   4.028   5.093   3.899  0.1143  0.2354  0.5750
 3034SOL    HW1 9696   4.000   5.173   3.944 -1.2176 -0.3418  0.8022
 3034SOL    HW2 9697   4.043   5.030   3.970 -0.0842 -0.0969  0.3192
 3035SOL     OW 9698   2.272   4.732   1.405  0.3760 -0.2889  0.1231
 3035SOL    HW1 9699   2.235   4.652   1.442  0.9918  0.0643  1.5064
 3035SOL    HW2 9700   2.353   4.746   1.453 -0.6788  2.2489  1.2527
 3036SOL     OW 9701   3.559   5.766   5.876  0.0695  0.0179 -0.8261
 3036SOL    HW1 9702   3.645   5.728   5.860  0.1917  0.1116 -0.3839
 3036SOL    HW2 9703   3.569   5.817   5.956 -0.8840 -1.5465  0.3241
 3037SOL     OW 9704   4.175   1.489   2.222 -0.2389 -0.0063 -0.0097
 3037SOL    HW1 9705   4.265   1.457   2.224 -0.1117  0.3828  0.4497
 3037SOL    HW2 9706   4.161   1.529   2.307 -0.1764  1.7468 -0.7977
 3038SOL     OW 9707   4.513   0.061   6.876  0.3653  0.6610 -0.4049
 3038SOL    HW1 9708   4.437   0.089   6.824  0.3129  1.3070  0.0005
 3038SOL    HW2 9709   4.523   0.131   6.941  0.7707  0.1368  0.0945
 3039SOL     OW 9710   1.477   5.628   3.327  0.1286  0.2543  0.2047
 3039SOL    HW1 9711   1.393   5.608   3.370 -0.6139  1.8360 -0.4545
 3039SOL    HW2 9712   1.515   5.697   3.381 -0.5324  1.8374 -1.2944
 3040SOL     OW 9713   1.067   0.930   4.906 -0.0542  0.3069 -0.0378
 3040SOL    HW1 9714   1.150   0.907   4.865  0.7725  1.2176  1.1074
 3040SOL    HW2 9715   1.002   0.874   4.862  0.9408  0.6202 -1.9249
 3041SOL     OW 9716   0.686   5.219   3.338  0.4691 -0.1891 -0.8635
 3041SOL    HW1 9717   0.662   5.138   3.293 -1.8188  0.9898 -1.8467
 3041SOL    HW2 9718   0.620   5.282   3.310  2.1254  1.9834  0.0134
 3042SOL     OW 9719   6.896   3.248   0.623  0.1073  0.0176  0.3625
 3042SOL    HW1 9720   6.834   3.270   0.692  0.4801  0.4739  0.5527
 3042SOL    HW2 9721   6.940   3.169   0.654  0.9653  0.7761  1.0960
 3043SOL     OW 9722   5.675   6.228   2.227 -0.0867  0.0610  0.7360
 3043SOL    HW1 9723   5.694   6.149   2.177  1.1832 -0.3770  1.8946
 3043SOL    HW2 9724   5.598   6.205   2.279 -0.3318 -0.0719  0.3198
 3044SOL     OW 9725   3.171   2.601   3.974 -0.1043  0.4201 -0.1478
 3044SOL    HW1 9726   3.096   2.660   3.968  0.3696  0.9566 -0.8379
 3044SOL    HW2 9727   3.133   2.516   3.995 -1.1237  0.1826 -2.8404
 3045SOL     OW 9728   6.689   1.351   2.251  0.7453  0.0489  0.2584
 3045SOL    HW1 9729   6.703   1.286   2.320  0.8516 -0.5393 -0.3040
 3045SOL    HW2 9730   6.732   1.430   2.282 -0.2976  0.1680  1.4307
 3046SOL     OW 9731   4.184   2.640   0.624  0.1777  0.8310 -0.2061
 3046SOL    HW1 9732   4.173   2.578   0.697 -1.7610  0.7752 -0.5049
 3046SOL    HW2 9733   4.266   2.615   0.583 -0.5124 -1.4800 -0.2351
 3047SOL     OW 9734   4.133   3.422   0.159 -0.0104  0.2295 -0.2451
 3047SOL    HW1 9735   4.130   3.329   0.182 -2.2597  0.5553  0.9455
 3047SOL    HW2 9736   4.211   3.455   0.203 -0.3738 -0.6572  1.0903
 3048SOL     OW 9737   6.920   0.561   7.087 -0.3984  0.1573  0.1152
 3048SOL    HW1 9738   6.873   0.605   7.157 -0.1347  0.7632 -0.0879
 3048SOL    HW2 9739   6.851   0.526   7.030 -0.6586 -2.5079  1.9935
 3049SOL     OW 9740   0.977   6.725   3.016 -0.1814  0.1565 -0.4797
 3049SOL    HW1 9741   0.996   6.818   3.028  0.3455  0.1795 -1.4010
 3049SOL    HW2 9742   0.949   6.695   3.102  0.1705  1.0483 -0.0440
 3050SOL     OW 9743   6.665   5.815   1.583 -0.1274  0.2417  0.1350
 3050SOL    HW1 9744   6.665   5.892   1.527 -0.9390  0.1717  0.0433
 3050SOL    HW2 9745   6.612   5.839   1.658  1.2203  0.4441  1.0437
 3051SOL     OW 9746   3.168   3.574   1.896  0.5205 -0.6173 -0.0033
 3051SOL    HW1 9747   3.233   3.621   1.844 -0.1833  0.1750 -0.1811
 3051SOL    HW2 9748   3.099   3.638   1.912  0.0071 -1.3061  0.5956
 3052SOL     OW 9749   5.909   4.218   6.705 -0.0827 -0.1328  0.6130
 3052SOL    HW1 9750   5.846   4.160   6.663  0.1694 -0.1789  0.2861
 3052SOL    HW2 9751   5.880   4.226   6.795 -1.8276  1.5995 -0.0653
 3053SOL     OW 9752   0.778   6.406   5.542  0.1205 -0.1309  0.0151
 3053SOL    HW1 9753   0.688   6.385   5.518  0.4880 -0.2084 -1.3126
 3053SOL    HW2 9754   0.772   6.439   5.632 -0.8583 -2.8887  1.0145
 3054SOL     OW 9755   2.127   1.771   3.929 -0.3783  0.6017 -0.9590
 3054SOL    HW1 9756   2.160   1.832   3.862 -2.3195  1.7670 -0.8833
 3054SOL    HW2 9757   2.070   1.711   3.881 -0.4629  0.3987 -0.6041
 3055SOL     OW 9758   7.134   2.622   5.933  0.1658 -0.2376  0.0690
 3055SOL    HW1 9759   7.174   2.676   5.865 -1.5511  0.7075 -0.2412
 3055SOL    HW2 9760   7.184   2.642   6.012  1.9610 -1.0913 -0.8481
 3056SOL     OW 9761   2.563   4.491   0.283  0.3758 -0.0971  0.3078
 3056SOL    HW1 9762   2.617   4.485   0.205 -1.8974 -1.0670 -1.2518
 3056SOL    HW2 9763   2.488   4.544   0.256 -0.9119 -1.2381  1.5353
 3057SOL     OW 9764   4.284   1.854   1.873 -0.1427 -0.1019  0.1293
 3057SOL    HW1 9765   4.356   1.805   1.833 -0.6538 -0.0480 -0.8660
 3057SOL    HW2 9766   4.223   1.787   1.903 -0.9405 -0.0766 -1.4191
 3058SOL     OW 9767   5.610   5.249   1.847 -0.3876 -0.4689  0.3167
 3058SOL    HW1 9768   5.626   5.244   1.941  1.1163  1.8389  0.2314
 3058SOL    HW2 9769   5.684   5.298   1.812 -1.3005 -0.6266 -1.9802
 3059SOL     OW 9770   3.232   0.203   4.759  0.2693  0.5148  0.2488
 3059SOL    HW1 9771   3.306   0.250   4.795  1.4292 -0.2014 -1.1565
 3059SOL    HW2 9772   3.269   0.148   4.690 -1.1054 -2.1246  1.5447
 3060SOL     OW 9773   6.444   6.977   5.421  0.9327 -0.5201  0.5269
 3060SOL    HW1 9774   6.465   6.884   5.431  2.2194 -0.3478 -0.5415
 3060SOL    HW2 9775   6.417   6.986   5.330 -0.2361 -0.0292  0.9051
 3061SOL     OW 9776   2.712   5.278   1.665  0.3815  0.3271  0.6467
 3061SOL    HW1 9777   2.618   5.261   1.659 -0.0392  2.6643  0.1963
 3061SOL    HW2 9778   2.750   5.194   1.692 -1.7817 -0.7314  0.4916
 3062SOL     OW 9779   6.047   1.913   1.772 -0.2794 -0.5923 -0.5612
 3062SOL    HW1 9780   6.052   1.966   1.852  3.0566 -2.2599  0.4332
 3062SOL    HW2 9781   5.954   1.909   1.752 -0.9547  2.2107  1.6394
 3063SOL     OW 9782   5.420   2.949   3.744  0.9522 -0.5801 -0.6310
 3063SOL    HW1 9783   5.414   2.854   3.749 -2.0852 -0.4417 -0.4682
 3063SOL    HW2 9784   5.460   2.966   3.658  0.6036 -1.9839 -1.0846
 3064SOL     OW 9785   0.600   0.747   5.702 -0.1255 -0.2399  0.4535
 3064SOL    HW1 9786   0.645   0.761   5.785  1.1311  0.5290 -0.3415
 3064SOL    HW2 9787   0.564   0.832   5.680  0.1493 -0.2711 -0.1319
 3065SOL     OW 9788   0.216   4.378   4.326  0.4935  0.4566 -0.4104
 3065SOL    HW1 9789   0.215   4.283   4.308  1.9169  0.6603 -1.6239
 3065SOL    HW2 9790   0.125   4.405   4.312 -0.0439 -0.8277  0.4999
 3066SOL     OW 9791   0.316   6.375   3.394 -0.5057  0.9938  0.7419
 3066SOL    HW1 9792   0.312   6.341   3.304  4.0355  0.4108  0.6152
 3066SOL    HW2 9793   0.264   6.313   3.445 -0.6240 -0.4451 -1.0642
 3067SOL     OW 9794   3.630   0.874   6.562  0.2085 -0.5990  0.1804
 3067SOL    HW1 9795   3.566   0.911   6.502  0.1569 -0.0354  0.5733
 3067SOL    HW2 9796   3.651   0.788   6.526 -1.9448 -1.4708  0.8625
 3068SOL     OW 9797   6.991   4.917   4.489 -0.5066  0.2242 -0.0178
 3068SOL    HW1 9798   6.923   4.974   4.454  0.9788 -0.2707 -4.0085
 3068SOL    HW2 9799   6.969   4.830   4.455  0.7669 -0.3682  0.6420
 3069SOL     OW 9800   3.159   5.798   2.876 -0.3166 -0.3073 -0.0338
 3069SOL    HW1 9801   3.157   5.852   2.955 -0.9254 -0.2324 -0.0998
 3069SOL    HW2 9802   3.243   5.753   2.881 -1.2549 -1.9137  1.7364
 3070SOL     OW 9803   2.249   1.708   6.815  0.1985  0.1551  0.0397
 3070SOL    HW1 9804   2.154   1.715   6.809 -0.2760 -3.3316  2.4582
 3070SOL    HW2 9805   2.276   1.683   6.726 -1.1913  0.5899 -0.5251
 3071SOL     OW 9806   4.923   4.873   3.639 -0.1720 -0.2008 -0.5671
 3071SOL    HW1 9807   4.923   4.787   3.598  0.2804  0.3049 -1.6816
 3071SOL    HW2 9808   4.866   4.926   3.583  0.2454  0.4411 -0.3938
 3072SOL     OW 9809   2.321   2.450   3.062 -0.1765 -0.4835  0.2174
 3072SOL    HW1 9810   2.286   2.384   3.002 -0.1026 -1.1380  0.8889
 3072SOL    HW2 9811   2.350   2.521   3.005 -0.8337 -0.7605 -0.4702
 3073SOL     OW 9812   3.032   0.763   2.840 -0.5188 -0.7441 -0.2829
 3073SOL    HW1 9813   3.036   0.763   2.745 -0.4383 -1.3692 -0.2828
 3073SOL    HW2 9814   3.009   0.673   2.863 -1.9801 -0.2372  0.2339
 3074SOL     OW 9815   4.235   6.350   2.101 -0.9731  0.3129 -0.2086
 3074SOL    HW1 9816   4.221   6.255   2.106  1.4307 -0.0397  0.5960
 3074SOL    HW2 9817   4.240   6.369   2.008 -1.6971 -0.3200 -0.3804
 3075SOL     OW 9818   3.931   0.323   1.864  0.5930 -0.6809 -0.0859
 3075SOL    HW1 9819   3.961   0.319   1.955 -0.4330 -1.1964  0.2323
 3075SOL    HW2 9820   3.889   0.238   1.849 -2.1781  0.6333 -0.0194
 3076SOL     OW 9821   5.408   2.571   7.077  0.4996  0.0238 -0.1015
 3076SOL    HW1 9822   5.328   2.624   7.073  0.4584  0.1055  1.5760
 3076SOL    HW2 9823   5.386   2.492   7.028 -1.4090 -0.9416  2.1997
 3077SOL     OW 9824   3.820   6.646   0.554 -0.2392 -0.0033 -0.3884
 3077SOL    HW1 9825   3.733   6.680   0.534 -0.0052  0.4510 -0.6434
 3077SOL    HW2 9826   3.826   6.652   0.650 -0.1301  0.8526 -0.4454
 3078SOL     OW 9827   5.958   4.000   3.898  0.6592 -0.4626  0.0844
 3078SOL    HW1 9828   6.022   3.930   3.909  0.5183 -0.4729  0.8726
 3078SOL    HW2 9829   5.924   4.016   3.986  0.2566  0.1848 -0.1803
 3079SOL     OW 9830   1.236   0.914   3.944  0.0982  0.7416 -0.5872
 3079SOL    HW1 9831   1.152   0.897   3.986 -0.4851  2.3601 -1.0336
 3079SOL    HW2 9832   1.219   0.900   3.850  1.2931 -2.4943 -0.3484
 3080SOL     OW 9833   5.582   5.420   1.468  0.0079  0.4724  0.0583
 3080SOL    HW1 9834   5.663   5.417   1.519  0.0577  0.2513 -0.0348
 3080SOL    HW2 9835   5.521   5.468   1.524 -0.0091  0.0300  0.4278
 3081SOL     OW 9836   1.095   2.939   0.211 -0.1011  0.2894  0.2543
 3081SOL    HW1 9837   1.077   2.908   0.300 -2.4387 -3.4784 -1.4226
 3081SOL    HW2 9838   1.175   2.893   0.185  1.2477  2.2790  0.7542
 3082SOL     OW 9839   2.425   0.534   1.429  0.0281 -0.6254 -0.4418
 3082SOL    HW1 9840   2.480   0.458   1.447  1.4025  0.6645  0.9940
 3082SOL    HW2 9841   2.488   0.605   1.412 -1.2038  0.6463  0.2031
 3083SOL     OW 9842   0.698   4.090   3.472  0.0983 -0.1309  0.5582
 3083SOL    HW1 9843   0.768   4.155   3.480  0.2067 -0.1700 -0.0876
 3083SOL    HW2 9844   0.670   4.097   3.381 -0.6548 -0.2017  0.7862
 3084SOL     OW 9845   6.288   4.947   6.573 -0.3898 -0.3006  0.1338
 3084SOL    HW1 9846   6.273   4.864   6.528 -1.6004 -2.0457  3.5427
 3084SOL    HW2 9847   6.233   5.010   6.526 -1.9171 -2.1293 -0.6154
 3085SOL     OW 9848   3.015   4.784   6.527 -0.3118 -0.1747  0.4153
 3085SOL    HW1 9849   3.024   4.876   6.500  0.4014 -0.2261  0.4692
 3085SOL    HW2 9850   3.049   4.734   6.453 -1.7772 -0.4502 -0.1024
 3086SOL     OW 9851   3.971   4.582   1.963 -0.4208 -0.0321 -0.1348
 3086SOL    HW1 9852   4.031   4.516   1.930 -0.8894 -0.4309 -0.1847
 3086SOL    HW2 9853   3.928   4.541   2.037 -0.7066  0.2210 -0.1593
 3087SOL     OW 9854   5.762   0.507   4.139  0.0297  0.2867  0.7171
 3087SOL    HW1 9855   5.777   0.532   4.230 -0.5540  1.0860  0.5997
 3087SOL    HW2 9856   5.850   0.495   4.103  0.2554 -1.0364  1.6502
 3088SOL     OW 9857   3.211   5.849   0.115 -0.2669  0.3725 -0.5640
 3088SOL    HW1 9858   3.241   5.940   0.124 -0.0467  0.0617  2.2120
 3088SOL    HW2 9859   3.142   5.840   0.181 -0.2689 -1.4968 -0.7947
 3089SOL     OW 9860   1.619   2.417   0.782 -0.3040 -0.3641  0.5335
 3089SOL    HW1 9861   1.711   2.429   0.808 -0.2699  0.2717  0.1411
 3089SOL    HW2 9862   1.617   2.445   0.691 -0.3098 -3.0561 -0.3250
 3090SOL     OW 9863   2.653   0.934   3.906  0.2798 -0.5293 -0.1737
 3090SOL    HW1 9864   2.567   0.963   3.936  0.2670 -0.9161  0.1640
 3090SOL    HW2 9865   2.637   0.850   3.865  0.6435 -1.0873  0.7972
 3091SOL     OW 9866   1.030   1.792   5.061  0.7052  0.2072 -0.1204
 3091SOL    HW1 9867   0.963   1.766   5.125 -0.7950 -0.7353 -2.0315
 3091SOL    HW2 9868   1.028   1.887   5.062  1.0526  0.2192  1.5932
 3092SOL     OW 9869   6.372   2.332   1.077 -0.2445 -0.1248 -0.1248
 3092SOL    HW1 9870   6.350   2.311   0.986  0.1510  3.2273 -1.0482
 3092SOL    HW2 9871   6.288   2.345   1.120 -0.4230 -1.4404 -0.0437
 3093SOL     OW 9872   6.084   5.110   3.359 -0.1225  0.4266  0.4460
 3093SOL    HW1 9873   6.070   5.201   3.387  0.6922  0.2502  1.4701
 3093SOL    HW2 9874   6.170   5.111   3.317 -1.8426  0.9388 -3.2548
 3094SOL     OW 9875   6.798   5.514   6.719 -0.1624  0.2027 -0.1496
 3094SOL    HW1 9876   6.786   5.443   6.656 -0.8244 -0.0823  0.3044
 3094SOL    HW2 9877   6.769   5.593   6.672  0.6586  0.1892 -0.6818
 3095SOL     OW 9878   0.513   4.194   7.221  0.3206  0.4085  0.1565
 3095SOL    HW1 9879   0.446   4.127   7.236 -0.0476  0.5850 -0.6400
 3095SOL    HW2 9880   0.596   4.148   7.233  0.0625 -0.0187  0.3374
 3096SOL     OW 9881   7.105   2.849   1.683  0.2089  0.0515  0.4272
 3096SOL    HW1 9882   7.153   2.863   1.765  1.6302 -0.6623 -0.2662
 3096SOL    HW2 9883   7.158   2.893   1.616 -0.6427  0.1366 -0.1989
 3097SOL     OW 9884   2.345   1.445   1.301 -0.3779 -0.0793  0.2425
 3097SOL    HW1 9885   2.359   1.398   1.220  2.0372 -0.9557  1.1359
 3097SOL    HW2 9886   2.268   1.500   1.284  0.1666 -0.1497 -2.6382
 3098SOL     OW 9887   3.611   4.659   0.923  0.1854 -0.5003 -0.3669
 3098SOL    HW1 9888   3.643   4.571   0.943 -0.2369 -0.4468  0.5692
 3098SOL    HW2 9889   3.648   4.715   0.992  0.0318 -0.0326 -0.6575
 3099SOL     OW 9890   5.078   7.207   5.386  0.3103 -0.2839 -0.0569
 3099SOL    HW1 9891   5.023   7.248   5.453 -1.6014  1.2264 -2.4519
 3099SOL    HW2 9892   5.149   7.270   5.372 -1.6605  1.5635 -2.4544
 3100SOL     OW 9893   1.556   3.177   7.118 -0.2547 -0.4958  0.0357
 3100SOL    HW1 9894   1.572   3.177   7.024 -2.8534 -1.3277 -0.4568
 3100SOL    HW2 9895   1.486   3.241   7.131 -2.0029 -2.5316  0.9549
 3101SOL     OW 9896   2.194   2.576   6.472  0.1522 -0.0928 -0.7057
 3101SOL    HW1 9897   2.142   2.647   6.508  0.4743  1.6967 -3.6291
 3101SOL    HW2 9898   2.282   2.614   6.461  1.0209 -1.7710  0.1480
 3102SOL     OW 9899   2.889   0.301   1.038  0.4496  0.8343 -0.2726
 3102SOL    HW1 9900   2.837   0.225   1.064  1.1540  1.2551  2.5111
 3102SOL    HW2 9901   2.955   0.265   0.979 -0.9546 -0.2427 -1.2183
 3103SOL     OW 9902   4.938   6.764   6.984  0.3705 -0.2830 -0.0576
 3103SOL    HW1 9903   4.874   6.696   7.000  2.7690 -2.9059 -1.2111
 3103SOL    HW2 9904   5.012   6.719   6.944  2.2479  2.9152 -0.3930
 3104SOL     OW 9905   6.379   5.331   3.215 -0.0199 -0.5103  0.0187
 3104SOL    HW1 9906   6.357   5.277   3.291 -0.6786 -0.4572 -0.1369
 3104SOL    HW2 9907   6.455   5.287   3.176 -0.1031 -0.9157  0.3093
 3105SOL     OW 9908   1.188   2.659   0.698  0.3262  0.7203 -0.4465
 3105SOL    HW1 9909   1.245   2.586   0.674 -1.3466 -0.3767 -1.1710
 3105SOL    HW2 9910   1.150   2.633   0.782 -0.4184  0.6592 -0.7983
 3106SOL     OW 9911   5.856   3.091   6.052 -0.4123 -0.5102 -0.5084
 3106SOL    HW1 9912   5.909   3.080   5.973  1.7551  1.4715  0.5958
 3106SOL    HW2 9913   5.770   3.119   6.020  0.2900 -0.2346 -2.2061
 3107SOL     OW 9914   5.399   7.039   5.991 -0.5356  0.1310 -0.2780
 3107SOL    HW1 9915   5.312   7.078   5.982 -0.7911 -0.3770 -0.0381
 3107SOL    HW2 9916   5.447   7.101   6.046 -1.2460 -0.3723  0.9128
 3108SOL     OW 9917   2.710   5.708   1.901 -0.5528 -0.0394 -0.2482
 3108SOL    HW1 9918   2.699   5.662   1.818  0.3723  0.4028 -0.6226
 3108SOL    HW2 9919   2.738   5.796   1.875  0.2934 -0.0670  0.5457
 3109SOL     OW 9920   4.469   6.691   1.416 -0.1302  0.1450 -0.2766
 3109SOL    HW1 9921   4.429   6.775   1.392 -1.6186  0.2122  2.3065
 3109SOL    HW2 9922   4.481   6.697   1.510 -0.3516 -2.6099 -0.0477
 3110SOL     OW 9923   3.598   5.162   1.637 -0.1897 -0.4203  0.4796
 3110SOL    HW1 9924   3.594   5.067   1.645  0.3266 -0.5732 -0.9846
 3110SOL    HW2 9925   3.623   5.192   1.724  2.1743 -1.8038  0.3206
 3111SOL     OW 9926   1.950   4.329   0.399 -0.5021 -0.3106 -0.5067
 3111SOL    HW1 9927   1.866   4.293   0.371  0.0815 -1.4721 -0.7734
 3111SOL    HW2 9928   1.954   4.416   0.359 -2.4792  0.5915  1.1696
 3112SOL     OW 9929   0.291   2.808   2.788  0.6906  0.6129 -0.3875
 3112SOL    HW1 9930   0.364   2.773   2.840 -0.7428 -0.4079  0.9919
 3112SOL    HW2 9931   0.242   2.863   2.848 -0.3831  0.2985 -0.9625
 3113SOL     OW 9932   7.007   2.768   0.820  0.1549  0.2814  0.2676
 3113SOL    HW1 9933   6.968   2.687   0.790  0.4115  0.4667 -0.5624
 3113SOL    HW2 9934   7.088   2.741   0.863  1.0772  0.2399 -1.4793
 3114SOL     OW 9935   5.980   6.410   6.598  0.5860 -0.2044  0.1598
 3114SOL    HW1 9936   6.002   6.369   6.682 -0.8503 -1.1112  0.1152
 3114SOL    HW2 9937   5.920   6.348   6.557 -1.9088  2.0993  0.2085
 3115SOL     OW 9938   3.790   6.373   4.700  0.2943 -0.1510  0.4261
 3115SOL    HW1 9939   3.723   6.358   4.632  0.7959 -2.2846  0.3658
 3115SOL    HW2 9940   3.862   6.315   4.675  0.9385 -0.1061  2.1561
 3116SOL     OW 9941   3.123   2.719   2.845  0.2930  0.6363  0.2153
 3116SOL    HW1 9942   3.126   2.800   2.896  1.0043  0.1478  0.9810
 3116SOL    HW2 9943   3.204   2.673   2.869  0.4354  0.2047 -1.0467
 3117SOL     OW 9944   7.201   4.226   4.651 -0.2172  0.1050 -0.1287
 3117SOL    HW1 9945   7.133   4.290   4.671 -1.2792 -1.0156 -0.1033
 3117SOL    HW2 9946   7.199   4.165   4.724  2.9637  1.7608  1.4702
 3118SOL     OW 9947   6.397   3.170   3.367 -0.3698  0.1044 -0.1900
 3118SOL    HW1 9948   6.330   3.129   3.313  0.4924  1.0343 -1.9847
 3118SOL    HW2 9949   6.377   3.263   3.364 -0.4502  0.1604  1.3181
 3119SOL     OW 9950   0.327   6.455   5.343  0.9053  0.3213  0.1507
 3119SOL    HW1 9951   0.363   6.471   5.255 -1.1651  0.2257 -0.7342
 3119SOL    HW2 9952   0.253   6.515   5.350 -0.6983 -1.6409  0.7097
 3120SOL     OW 9953   1.868   5.285   5.881  0.2094 -0.1268 -0.4895
 3120SOL    HW1 9954   1.915   5.211   5.920 -1.0625 -0.2604  0.8494
 3120SOL    HW2 9955   1.936   5.340   5.842  1.6287  0.3749  2.5566
 3121SOL     OW 9956   2.823   4.231   7.098  0.1205  0.3516  0.0465
 3121SOL    HW1 9957   2.900   4.287   7.099  1.7676 -1.8210  0.1032
 3121SOL    HW2 9958   2.804   4.218   7.006  1.0646 -0.6838 -0.0232
 3122SOL     OW 9959   2.434   1.200   6.869 -0.1503  0.3873 -0.0304
 3122SOL    HW1 9960   2.345   1.220   6.838  0.0455 -0.3579 -1.0970
 3122SOL    HW2 9961   2.441   1.247   6.952 -1.5547  0.4337  0.0819
 3123SOL     OW 9962   0.430   6.112   3.764  0.1867  0.2079  0.1000
 3123SOL    HW1 9963   0.442   6.201   3.796  0.9601  0.9189 -2.0806
 3123SOL    HW2 9964   0.504   6.063   3.799  0.6159  0.7952  0.0119
 3124SOL     OW 9965   0.796   3.076   4.982  0.1987 -0.3584 -0.2212
 3124SOL    HW1 9966   0.845   3.157   4.997  0.1950 -0.1541 -1.2176
 3124SOL    HW2 9967   0.715   3.088   5.031  1.1934 -0.7632  1.5520
 3125SOL     OW 9968   4.299   6.113   4.109  0.1544  0.0583 -0.3511
 3125SOL    HW1 9969   4.333   6.063   4.183 -0.9292  0.6976  0.5921
 3125SOL    HW2 9970   4.236   6.054   4.067  0.6385 -0.2372 -0.6780
 3126SOL     OW 9971   3.354   1.813   5.104 -0.3261  0.0793 -0.3767
 3126SOL    HW1 9972   3.385   1.731   5.142 -2.8121 -2.1910 -3.0303
 3126SOL    HW2 9973   3.405   1.823   5.023 -0.6782  0.6861 -0.5294
 3127SOL     OW 9974   1.699   0.215   4.692  0.0855 -0.7327 -0.3548
 3127SOL    HW1 9975   1.633   0.223   4.761 -1.2284  2.1555 -1.8415
 3127SOL    HW2 9976   1.667   0.145   4.635 -0.3490 -1.0943  0.3332
 3128SOL     OW 9977   5.706   3.850   4.918  0.0083 -0.3372 -0.4705
 3128SOL    HW1 9978   5.673   3.760   4.921  0.7647 -0.5851  0.6962
 3128SOL    HW2 9979   5.627   3.904   4.916 -0.4613 -0.9924 -0.0459
 3129SOL     OW 9980   3.052   3.784   4.123  0.1091  0.1859  0.0886
 3129SOL    HW1 9981   3.119   3.851   4.105 -1.3043  1.6400  0.0953
 3129SOL    HW2 9982   3.034   3.745   4.037 -0.4640  1.1881 -0.2586
 3130SOL     OW 9983   2.451   3.566   1.372  0.3574 -0.2298  0.6263
 3130SOL    HW1 9984   2.523   3.629   1.377  0.5192 -0.4834  1.6610
 3130SOL    HW2 9985   2.447   3.527   1.460  0.0653 -1.4418  0.0874
 3131SOL     OW 9986   1.927   0.575   2.461  0.2478 -0.1352 -0.4032
 3131SOL    HW1 9987   1.849   0.552   2.411  0.2620 -1.4260  0.1577
 3131SOL    HW2 9988   1.968   0.491   2.483  1.3560  0.4921  0.0061
 3132SOL     OW 9989   1.092   1.175   1.928  0.0931  0.2486  0.3163
 3132SOL    HW1 9990   1.105   1.264   1.960 -0.0236  0.8055 -1.1824
 3132SOL    HW2 9991   1.163   1.125   1.969 -0.8667  0.6529  2.5443
 3133SOL     OW 9992   3.636   5.376   5.944 -0.6175 -0.7668 -0.1348
 3133SOL    HW1 9993   3.610   5.295   5.900 -0.6736 -0.8538  0.0603
 3133SOL    HW2 9994   3.717   5.354   5.990 -0.5067 -0.6490 -0.2714
 3134SOL     OW 9995   5.598   4.026   0.138 -0.0909  0.3300  0.4580
 3134SOL    HW1 9996   5.633   3.957   0.081 -0.6685  0.9300 -0.6516
 3134SOL    HW2 9997   5.621   3.998   0.227  1.1807 -0.4258 -0.0949
 3135SOL     OW 9998   6.028   7.053   6.420 -0.0581  0.0321 -0.6619
 3135SOL    HW1 9999   6.051   7.086   6.333  0.5714  0.3818 -0.3691
 3135SOL    HW210000   6.094   6.986   6.438  1.1027  1.4288  0.4198
 3136SOL     OW10001   0.964   6.117   5.951  0.3844 -0.1752  0.0793
 3136SOL    HW110002   0.992   6.027   5.969  0.7891  0.2807  1.7853
 3136SOL    HW210003   0.878   6.123   5.992  0.6511  0.4126  0.5614
 3137SOL     OW10004   3.879   1.286   0.298  0.2079  0.8693 -0.1637
 3137SOL    HW110005   3.854   1.246   0.215 -0.6817  0.1598  0.4332
 3137SOL    HW210006   3.886   1.379   0.279  0.0779  0.6991 -1.0489
 3138SOL     OW10007   5.718   5.023   1.673  0.0508  0.3037  0.4536
 3138SOL    HW110008   5.720   5.044   1.579  0.3039  0.6539  0.5379
 3138SOL    HW210009   5.663   5.091   1.712  0.2418  0.3673  0.6123
 3139SOL     OW10010   5.859   6.770   0.812  0.0739  0.8490  0.1419
 3139SOL    HW110011   5.907   6.689   0.832  0.0636  0.8637  0.2296
 3139SOL    HW210012   5.871   6.782   0.718 -0.4204  0.4295  0.0252
 3140SOL     OW10013   4.585   2.465   3.946 -0.3528 -0.0123 -0.3386
 3140SOL    HW110014   4.631   2.433   4.023 -0.9194  1.0327  0.4498
 3140SOL    HW210015   4.643   2.533   3.910 -1.1090  1.0773  0.4693
 3141SOL     OW10016   7.200   3.364   6.461 -0.9366 -0.3590  0.4976
 3141SOL    HW110017   7.294   3.366   6.481 -0.3803  0.8323 -2.0279
 3141SOL    HW210018   7.166   3.445   6.497 -0.9569 -0.6737  1.1940
 3142SOL     OW10019   2.668   1.807   0.497  0.4585  0.1837 -0.0761
 3142SOL    HW110020   2.611   1.793   0.573 -2.0460 -0.8124 -2.0587
 3142SOL    HW210021   2.750   1.840   0.534 -1.0944  0.8295  2.9570
 3143SOL     OW10022   7.057   6.597   3.197 -0.2346 -0.2523 -0.9113
 3143SOL    HW110023   6.969   6.630   3.178 -0.5666 -1.0563 -0.7621
 3143SOL    HW210024   7.064   6.515   3.148  0.5648 -0.0135 -1.2087
 3144SOL     OW10025   4.703   3.719   6.360 -0.1125 -0.5663 -0.2530
 3144SOL    HW110026   4.642   3.685   6.294 -0.1541  0.7490 -0.9157
 3144SOL    HW210027   4.714   3.647   6.422 -0.4641 -1.6487 -1.4310
 3145SOL     OW10028   6.023   0.572   1.585  0.6188 -0.0384 -0.2581
 3145SOL    HW110029   6.073   0.653   1.599 -2.0580  1.5147  0.5195
 3145SOL    HW210030   5.939   0.601   1.551 -1.3614 -2.3001  2.5341
 3146SOL     OW10031   6.147   2.829   1.108 -0.8009  0.1623 -0.0162
 3146SOL    HW110032   6.144   2.734   1.106 -1.3883  0.1201  1.7725
 3146SOL    HW210033   6.057   2.855   1.130 -0.4595  1.1026  0.2878
 3147SOL     OW10034   5.275   3.536   3.005 -0.1585 -0.2058  0.1019
 3147SOL    HW110035   5.236   3.621   2.984 -0.6592 -0.5558 -0.3846
 3147SOL    HW210036   5.203   3.482   3.036 -0.0318 -0.7798 -0.5764
 3148SOL     OW10037   3.429   5.448   6.167 -0.3058  0.5046 -0.1315
 3148SOL    HW110038   3.492   5.386   6.204 -0.1647  1.4430  1.2350
 3148SOL    HW210039   3.482   5.510   6.117 -0.2415  0.6251  0.0814
 3149SOL     OW10040   3.672   6.606   1.303 -0.6497 -0.8248 -0.3394
 3149SOL    HW110041   3.648   6.534   1.361  0.4347 -2.2678 -1.6222
 3149SOL    HW210042   3.697   6.563   1.221  0.5069  0.9784 -0.9608
 3150SOL     OW10043   4.018   2.989   5.221  0.0226 -0.4486  0.4947
 3150SOL    HW110044   4.051   2.907   5.258 -1.2304 -0.4533  1.6416
 3150SOL    HW210045   4.096   3.045   5.216  1.0754 -2.0049 -1.2301
 3151SOL     OW10046   0.911   2.720   4.100  0.0180  0.0522  0.2178
 3151SOL    HW110047   0.905   2.801   4.150 -0.2999  0.6221 -0.7363
 3151SOL    HW210048   1.005   2.700   4.099 -0.1260 -0.8763  2.4566
 3152SOL     OW10049   0.638   0.123   1.145  0.2595  0.0423 -0.0144
 3152SOL    HW110050   0.719   0.121   1.197 -0.5940  0.2641  1.3704
 3152SOL    HW210051   0.575   0.165   1.203 -0.7805  0.0988 -1.1861
 3153SOL     OW10052   3.392   5.716   2.169  0.0397  0.1867 -0.5208
 3153SOL    HW110053   3.352   5.678   2.248  0.0423 -0.0884 -0.6513
 3153SOL    HW210054   3.485   5.697   2.177  0.3207  1.7893  0.3242
 3154SOL     OW10055   0.863   6.391   1.298 -0.5356  0.0311 -0.2497
 3154SOL    HW110056   0.888   6.455   1.231 -1.0283  0.4074 -0.0757
 3154SOL    HW210057   0.940   6.335   1.308  0.5560  1.7015  0.9085
 3155SOL     OW10058   1.790   3.766   7.110 -0.5587  0.6217 -0.2310
 3155SOL    HW110059   1.831   3.796   7.191 -0.5696  0.9959 -0.3665
 3155SOL    HW210060   1.743   3.686   7.135 -1.0437  1.0625  0.2508
 3156SOL     OW10061   1.328   2.464   5.699  0.2975  0.9637  0.5735
 3156SOL    HW110062   1.275   2.428   5.628 -0.2205  0.9075  0.9848
 3156SOL    HW210063   1.265   2.506   5.758  0.8029  1.8210  0.5287
 3157SOL     OW10064   7.248   2.543   2.303  0.5423 -0.0634 -0.2219
 3157SOL    HW110065   7.214   2.458   2.275  2.5142 -1.4052  1.3372
 3157SOL    HW210066   7.259   2.534   2.398  2.1809  1.4131 -0.2586
 3158SOL     OW10067   0.752   3.311   7.156  0.0745 -0.3842 -0.8056
 3158SOL    HW110068   0.725   3.294   7.247  0.0528  1.2373 -0.4968
 3158SOL    HW210069   0.701   3.250   7.104 -1.5969  0.2354  0.0825
 3159SOL     OW10070   1.694   2.786   1.578  0.0963 -0.0031 -0.1198
 3159SOL    HW110071   1.691   2.757   1.669  0.0726 -3.0078 -1.0256
 3159SOL    HW210072   1.608   2.825   1.563 -0.2493 -0.3531  0.8943
 3160SOL     OW10073   1.662   6.466   2.159  0.5470 -0.6846  0.5417
 3160SOL    HW110074   1.732   6.468   2.094  1.1249 -1.2440  1.1447
 3160SOL    HW210075   1.668   6.379   2.199  0.9547  0.0667  2.1673
 3161SOL     OW10076   3.469   4.526   5.028 -0.6482  0.3375 -0.1539
 3161SOL    HW110077   3.509   4.613   5.019 -0.8287  0.3030 -1.3560
 3161SOL    HW210078   3.376   4.544   5.043 -0.7197  0.3540 -0.6047
 3162SOL     OW10079   0.853   2.549   6.740 -0.2955  0.0019  0.6013
 3162SOL    HW110080   0.924   2.488   6.756  1.6976  2.0625 -0.1429
 3162SOL    HW210081   0.805   2.512   6.666  1.2430 -0.3587 -0.2198
 3163SOL     OW10082   0.450   5.850   6.850 -0.1616 -0.1190  0.0306
 3163SOL    HW110083   0.519   5.884   6.791  0.1257  1.5828  1.3134
 3163SOL    HW210084   0.488   5.857   6.937 -0.5984 -2.6258  0.4509
 3164SOL     OW10085   0.691   4.945   4.095  0.0664 -0.2513 -0.1923
 3164SOL    HW110086   0.679   4.886   4.170 -1.0558  0.3743  0.1412
 3164SOL    HW210087   0.699   4.887   4.020  1.6246 -0.9024  0.4545
 3165SOL     OW10088   5.597   5.646   5.657  0.4293 -0.0901 -0.0950
 3165SOL    HW110089   5.689   5.673   5.652  0.5711 -0.5340  0.0445
 3165SOL    HW210090   5.596   5.579   5.726 -0.2750  1.0668  1.0417
 3166SOL     OW10091   2.600   6.735   5.987  0.3908  0.2878  0.4208
 3166SOL    HW110092   2.675   6.788   5.959 -0.2680  1.4744  0.8789
 3166SOL    HW210093   2.528   6.764   5.931  0.3628 -1.1757 -0.3356
 3167SOL     OW10094   0.161   3.657   7.104 -0.4758 -0.2868  1.3590
 3167SOL    HW110095   0.228   3.621   7.163  0.3309  1.0339  1.2542
 3167SOL    HW210096   0.120   3.727   7.155  0.7733  1.4113  0.0902
 3168SOL     OW10097   4.266   2.107   1.959  0.1584  0.1082  0.4295
 3168SOL    HW110098   4.253   2.115   2.054 -0.3916 -1.0832  0.4663
 3168SOL    HW210099   4.268   2.013   1.943  3.7169  0.2504 -0.2983
 3169SOL     OW10100   6.937   5.525   7.178 -0.2855  0.4341  0.1292
 3169SOL    HW110101   6.880   5.476   7.119 -2.8349  1.7834  1.3750
 3169SOL    HW210102   6.940   5.472   7.258 -0.0499  0.5280  0.1843
 3170SOL     OW10103   4.791   1.982   0.851 -0.3482 -0.1822  0.1624
 3170SOL    HW110104   4.699   2.005   0.866 -0.4155  0.1658 -0.7174
 3170SOL    HW210105   4.835   2.067   0.838 -0.1226 -0.4065 -0.5746
 3171SOL     OW10106   7.211   1.150   1.825 -0.5507 -0.3631 -0.5826
 3171SOL    HW110107   7.225   1.069   1.777 -0.8583 -0.6157 -0.2426
 3171SOL    HW210108   7.299   1.185   1.839 -0.4202 -0.6294 -0.7466
 3172SOL     OW10109   3.713   1.866   4.998 -0.1693 -0.0542  0.5129
 3172SOL    HW110110   3.645   1.799   4.999 -0.5197  0.3079  1.2452
 3172SOL    HW210111   3.736   1.876   4.906 -1.1443 -0.1432  0.2588
 3173SOL     OW10112   1.393   3.357   1.568 -0.4366 -0.1897  0.2537
 3173SOL    HW110113   1.362   3.427   1.625 -0.3213 -0.9327  1.2427
 3173SOL    HW210114   1.452   3.401   1.507 -1.4714  0.8029 -0.0411
 3174SOL     OW10115   6.721   6.003   2.305 -0.3257  0.3036  0.1941
 3174SOL    HW110116   6.707   5.976   2.396  2.5999  1.5340  1.1028
 3174SOL    HW210117   6.755   5.925   2.262 -1.7037 -0.2795  0.1419
 3175SOL     OW10118   0.871   5.841   3.172  1.0265  0.1017 -0.2442
 3175SOL    HW110119   0.881   5.929   3.209  1.1283 -0.5937  1.4135
 3175SOL    HW210120   0.955   5.798   3.187  1.3407  0.0466 -2.0046
 3176SOL     OW10121   3.855   5.525   6.864  0.4325 -0.1991 -0.0523
 3176SOL    HW110122   3.888   5.510   6.953  0.3250 -1.4092 -0.2156
 3176SOL    HW210123   3.890   5.452   6.813 -0.1548  0.0682 -0.8381
 3177SOL     OW10124   1.038   1.124   6.007 -0.1462  0.0394 -0.0739
 3177SOL    HW110125   1.011   1.107   6.097 -1.9084  1.6733 -0.2694
 3177SOL    HW210126   1.043   1.219   6.001 -1.2118 -0.0131 -2.0219
 3178SOL     OW10127   1.052   5.725   2.697 -0.0425  0.0314 -0.3370
 3178SOL    HW110128   1.107   5.801   2.678 -0.3913  0.7587  1.4806
 3178SOL    HW210129   0.994   5.754   2.767 -1.7272 -1.2000 -1.1743
 3179SOL     OW10130   5.357   5.212   2.887 -0.3392  0.5981 -0.5187
 3179SOL    HW110131   5.323   5.229   2.800 -3.0765  0.5126  0.5044
 3179SOL    HW210132   5.443   5.173   2.872 -0.4279  1.3527 -3.1416
 3180SOL     OW10133   5.627   5.980   4.807 -0.2124 -0.3493 -0.1221
 3180SOL    HW110134   5.545   6.008   4.846  0.1549 -0.3920  0.7008
 3180SOL    HW210135   5.605   5.901   4.758 -1.0000  0.6558 -1.3909
 3181SOL     OW10136   5.730   0.155   3.512  0.5287 -0.0567 -0.7940
 3181SOL    HW110137   5.730   0.059   3.505  0.2895 -0.1243  0.0716
 3181SOL    HW210138   5.781   0.173   3.591 -0.6686  0.4562 -0.1334
 3182SOL     OW10139   6.055   1.913   5.414 -0.6578  0.0190  0.0336
 3182SOL    HW110140   5.967   1.880   5.430  0.5890 -2.8812  1.4639
 3182SOL    HW210141   6.075   1.964   5.493 -1.3631  1.4225 -0.6853
 3183SOL     OW10142   2.490   3.069   5.225 -0.3736 -0.1838  0.2641
 3183SOL    HW110143   2.452   3.156   5.216 -1.3140 -0.5677  0.4516
 3183SOL    HW210144   2.515   3.044   5.135  0.4261  0.4979  0.2860
 3184SOL     OW10145   4.731   6.199   0.415  0.4530  0.0856 -0.9514
 3184SOL    HW110146   4.668   6.248   0.468  1.6436  1.1455 -0.4807
 3184SOL    HW210147   4.742   6.252   0.336  0.6830 -0.1426 -1.0702
 3185SOL     OW10148   1.376   4.521   0.411  0.1443 -0.4169 -0.4716
 3185SOL    HW110149   1.345   4.577   0.340  0.0960  0.3650  0.1665
 3185SOL    HW210150   1.297   4.480   0.445  0.2207 -1.1734 -1.1841
 3186SOL     OW10151   3.517   3.621   3.054 -0.5924 -0.1359  0.0903
 3186SOL    HW110152   3.579   3.558   3.017 -0.0790  0.5882 -0.2945
 3186SOL    HW210153   3.522   3.697   2.996  0.1451  0.9686  1.5615
 3187SOL     OW10154   2.836   1.879   5.045  0.1376 -0.5825  0.0787
 3187SOL    HW110155   2.926   1.852   5.063  0.2993  0.1060  0.2910
 3187SOL    HW210156   2.838   1.974   5.050 -0.9458 -0.6378  1.6460
 3188SOL     OW10157   0.316   4.762   3.678  0.6170 -0.4333 -0.6007
 3188SOL    HW110158   0.379   4.834   3.675  2.3151 -1.8456  0.1769
 3188SOL    HW210159   0.340   4.705   3.604 -0.2957 -0.5447 -0.8216
 3189SOL     OW10160   1.709   3.788   4.776 -0.3991  0.1442 -0.9752
 3189SOL    HW110161   1.664   3.755   4.698  0.1149  1.4714 -1.8448
 3189SOL    HW210162   1.777   3.847   4.742 -0.3757  0.9829  0.4823
 3190SOL     OW10163   3.058   3.722   5.232  0.1743  0.0092 -0.2066
 3190SOL    HW110164   3.010   3.729   5.314 -0.0650 -2.2205 -0.1434
 3190SOL    HW210165   3.000   3.762   5.166 -0.3391  0.2838  0.4076
 3191SOL     OW10166   1.800   4.276   0.685  0.6634  0.6171  0.2860
 3191SOL    HW110167   1.862   4.339   0.647  0.0488  1.3092  0.4187
 3191SOL    HW210168   1.714   4.313   0.668  0.2676 -0.4589 -0.0919
 3192SOL     OW10169   1.243   5.407   2.589  0.2136 -0.0522  0.3295
 3192SOL    HW110170   1.242   5.497   2.556  0.6329  0.1290  0.8184
 3192SOL    HW210171   1.166   5.366   2.548 -0.2438  0.6583  0.4733
 3193SOL     OW10172   5.864   6.442   1.494 -0.1181 -0.1867 -0.1435
 3193SOL    HW110173   5.937   6.383   1.512 -1.5597 -1.4806  1.6395
 3193SOL    HW210174   5.826   6.461   1.579 -0.9034  1.7778 -0.8840
 3194SOL     OW10175   4.356   2.131   6.735  0.2320 -0.2921 -0.5978
 3194SOL    HW110176   4.330   2.213   6.777 -1.0183 -0.0124 -1.8850
 3194SOL    HW210177   4.451   2.137   6.726  0.2906  0.4421  0.4961
 3195SOL     OW10178   4.131   5.991   0.115 -0.1882  0.7961  0.0296
 3195SOL    HW110179   4.167   5.954   0.195  0.5560 -0.2523 -0.7653
 3195SOL    HW210180   4.054   5.937   0.096  0.5086  0.0643 -0.7657
 3196SOL     OW10181   3.197   4.018   1.277  0.2678 -0.7076 -0.1718
 3196SOL    HW110182   3.234   3.941   1.235  1.2080 -1.2881  1.6326
 3196SOL    HW210183   3.122   3.986   1.326  0.8210 -0.5556  0.8021
 3197SOL     OW10184   5.563   0.481   2.507 -0.2873 -0.0216 -0.1419
 3197SOL    HW110185   5.471   0.478   2.480  0.0439 -2.1983 -1.2015
 3197SOL    HW210186   5.598   0.396   2.480  1.9268  0.6047  0.6567
 3198SOL     OW10187   6.849   4.059   5.279 -0.4356 -0.2495  0.0176
 3198SOL    HW110188   6.860   4.154   5.272 -1.3719 -0.0685  0.7930
 3198SOL    HW210189   6.918   4.031   5.339 -0.1011 -0.0683 -0.2856
 3199SOL     OW10190   0.796   0.112   1.532  0.3002  0.7508  0.1232
 3199SOL    HW110191   0.708   0.077   1.516  0.1290  1.0629  0.3839
 3199SOL    HW210192   0.808   0.103   1.626  1.4845 -1.5013 -0.2011
 3200SOL     OW10193   2.291   4.202   1.626 -0.6612 -0.0435 -0.1282
 3200SOL    HW110194   2.251   4.211   1.713 -2.2825  0.6978 -0.9192
 3200SOL    HW210195   2.217   4.208   1.566  0.6732  1.5322 -1.6552
 3201SOL     OW10196   3.598   2.639   2.991 -0.3880  0.3621 -0.7098
 3201SOL    HW110197   3.513   2.662   2.954 -1.0884 -0.6217  0.2826
 3201SOL    HW210198   3.583   2.634   3.085  0.7625  0.1647 -0.5313
 3202SOL     OW10199   1.698   1.034   3.402  0.3336  0.1705 -0.3806
 3202SOL    HW110200   1.650   1.026   3.319  0.3663 -0.9723 -0.3018
 3202SOL    HW210201   1.790   1.029   3.377  0.4302  2.3810 -0.5321
 3203SOL     OW10202   3.308   5.558   3.657 -0.2427  0.6679  0.2660
 3203SOL    HW110203   3.247   5.485   3.644 -0.3474  0.9626 -0.9865
 3203SOL    HW210204   3.303   5.608   3.575 -0.2568  2.1535  1.1650
 3204SOL     OW10205   3.732   3.800   7.226 -0.3089 -0.2696 -0.0392
 3204SOL    HW110206   3.661   3.815   7.163 -1.0635 -1.7812  0.4309
 3204SOL    HW210207   3.714   3.714   7.263  0.3077  0.4483  2.0225
 3205SOL     OW10208   5.262   6.681   5.876 -0.3360  0.2450 -0.3393
 3205SOL    HW110209   5.328   6.642   5.820  0.4323  1.0988 -0.0454
 3205SOL    HW210210   5.311   6.715   5.952 -1.3237 -0.6992  0.7484
 3206SOL     OW10211   4.931   4.092   3.927 -0.2412  0.3829  0.2399
 3206SOL    HW110212   4.992   4.074   3.999 -0.2980 -0.5363  0.0740
 3206SOL    HW210213   4.848   4.055   3.957  0.5685 -3.3643 -1.7476
 3207SOL     OW10214   0.565   5.760   1.936 -0.6147  0.1529 -0.1467
 3207SOL    HW110215   0.654   5.735   1.912 -0.8990  0.8563 -2.0116
 3207SOL    HW210216   0.513   5.740   1.858 -1.8431  1.0308  0.4375
 3208SOL     OW10217   3.673   6.684   6.563 -0.3478 -0.1880  0.0922
 3208SOL    HW110218   3.765   6.678   6.589 -0.6637 -0.1849  1.2326
 3208SOL    HW210219   3.676   6.699   6.469  0.8183 -0.3446  0.0947
 3209SOL     OW10220   6.782   2.689   2.080  0.5672 -0.0921  0.0976
 3209SOL    HW110221   6.816   2.738   2.155  2.7991 -2.0515  0.4117
 3209SOL    HW210222   6.709   2.639   2.116 -0.2918  1.2483  0.2693
 3210SOL     OW10223   6.335   2.736   2.031 -0.0547  0.3617  0.5013
 3210SOL    HW110224   6.274   2.662   2.031 -0.4001  0.6380 -0.5220
 3210SOL    HW210225   6.278   2.813   2.035  0.2387  0.6075 -0.0094
 3211SOL     OW10226   4.648   3.813   2.759  0.4621  0.3922  0.2025
 3211SOL    HW110227   4.577   3.831   2.821  0.9443  0.1446  0.8380
 3211SOL    HW210228   4.604   3.803   2.674 -0.2267  0.5633  0.5335
 3212SOL     OW10229   7.096   2.188   1.865 -0.4917 -0.1461 -0.5126
 3212SOL    HW110230   7.008   2.153   1.883  0.0283 -2.2490 -1.8592
 3212SOL    HW210231   7.154   2.113   1.876  1.0659  1.0833 -0.2814
 3213SOL     OW10232   1.788   6.624   1.329  0.6099  0.0672  0.1489
 3213SOL    HW110233   1.869   6.673   1.336 -0.5184  2.5706 -3.0750
 3213SOL    HW210234   1.792   6.583   1.242 -0.7482 -1.3773  0.7297
 3214SOL     OW10235   3.251   6.030   2.318  0.5610 -0.3925 -0.0942
 3214SOL    HW110236   3.313   5.989   2.378 -0.0957  1.4914  1.9361
 3214SOL    HW210237   3.175   5.972   2.320  1.0162 -1.0012 -0.0984
 3215SOL     OW10238   3.203   2.790   5.587  0.0275 -0.1236  0.1590
 3215SOL    HW110239   3.120   2.781   5.633 -0.6990 -1.6340 -1.4245
 3215SOL    HW210240   3.184   2.849   5.514  0.8829  1.2827  1.0518
 3216SOL     OW10241   7.081   0.646   2.908 -1.2252  0.6807 -0.4416
 3216SOL    HW110242   7.078   0.661   3.003  1.1555  2.2276 -0.5744
 3216SOL    HW210243   7.018   0.708   2.872 -0.6824  1.4791 -0.0239
 3217SOL     OW10244   1.256   6.656   3.766 -0.4684  0.2056  0.2224
 3217SOL    HW110245   1.184   6.719   3.770 -0.3288  0.4419 -0.7192
 3217SOL    HW210246   1.286   6.647   3.856 -2.4885 -0.8445  0.8225
 3218SOL     OW10247   1.029   2.277   0.088 -0.3383  0.2167  0.0971
 3218SOL    HW110248   1.040   2.268  -0.006 -1.0162  0.5190 -0.0170
 3218SOL    HW210249   1.118   2.283   0.122  0.0352 -3.3536 -0.1367
 3219SOL     OW10250   0.818   5.020   0.635  0.1597  0.2189  0.0379
 3219SOL    HW110251   0.876   5.037   0.560  0.8582 -1.0389  0.2706
 3219SOL    HW210252   0.730   5.022   0.599  0.5235 -1.0022 -0.9595
 3220SOL     OW10253   2.444   6.499   1.553 -0.1213 -0.3311  0.0043
 3220SOL    HW110254   2.381   6.570   1.569  0.2782 -0.0953  0.5440
 3220SOL    HW210255   2.462   6.463   1.640  1.6985  0.6415  0.0585
 3221SOL     OW10256   7.222   0.680   6.402 -0.0786  0.1054 -0.1487
 3221SOL    HW110257   7.147   0.621   6.403 -0.1932  0.2577  0.3196
 3221SOL    HW210258   7.188   0.764   6.432 -0.3069  0.8981 -2.5706
 3222SOL     OW10259   0.995   5.592   4.198  0.3765  0.2087 -0.0409
 3222SOL    HW110260   0.985   5.505   4.161 -0.5371 -0.5653  1.9343
 3222SOL    HW210261   1.086   5.616   4.179 -0.2212  0.1448 -3.2782
 3223SOL     OW10262   6.001   0.676   5.836 -1.0306  0.4431  0.0306
 3223SOL    HW110263   5.926   0.714   5.791 -0.5726  3.4373  1.6469
 3223SOL    HW210264   5.966   0.644   5.919 -0.6469  1.3388  0.5477
 3224SOL     OW10265   2.146   2.109   6.839 -0.3610  0.2287 -0.1834
 3224SOL    HW110266   2.066   2.072   6.874 -0.0370 -0.1864  0.1212
 3224SOL    HW210267   2.122   2.198   6.814 -1.3626 -0.4583 -1.7373
 3225SOL     OW10268   6.917   1.264   2.837 -0.2061  0.1989 -0.4763
 3225SOL    HW110269   6.869   1.329   2.888 -0.0960  0.8777 -1.2173
 3225SOL    HW210270   6.917   1.185   2.891 -1.5437  0.4093 -0.1688
 3226SOL     OW10271   4.627   0.690   5.345 -0.1457  0.0401  0.3329
 3226SOL    HW110272   4.593   0.602   5.359  0.0018 -0.4454 -2.2546
 3226SOL    HW210273   4.549   0.743   5.325  0.0570 -0.0617 -0.7437
 3227SOL     OW10274   0.540   2.651   1.639 -0.1494 -0.0967 -0.1720
 3227SOL    HW110275   0.450   2.678   1.621  0.1422  0.3284 -1.0325
 3227SOL    HW210276   0.589   2.679   1.561  0.8859  0.4826  0.6796
 3228SOL     OW10277   6.354   6.375   4.136 -0.5783 -0.1485  0.3059
 3228SOL    HW110278   6.330   6.282   4.140  0.7017 -0.5091 -0.1579
 3228SOL    HW210279   6.385   6.388   4.046  0.1470  0.4893  0.6405
 3229SOL     OW10280   4.881   4.873   2.451  0.1691 -0.0553  0.6247
 3229SOL    HW110281   4.926   4.862   2.366  0.5957  0.6276  0.7523
 3229SOL    HW210282   4.938   4.829   2.514  0.6639  0.7964  0.7843
 3230SOL     OW10283   3.910   5.641   6.037  0.1458 -0.1709  0.2137
 3230SOL    HW110284   3.889   5.700   5.964 -0.6278 -0.6777  0.0214
 3230SOL    HW210285   3.890   5.554   6.004 -0.5622 -0.3763  1.1566
 3231SOL     OW10286   4.667   5.479   2.578 -0.3589  0.1127 -0.1741
 3231SOL    HW110287   4.609   5.468   2.503 -0.9979  1.6607  0.0638
 3231SOL    HW210288   4.747   5.518   2.541  0.0730 -0.9086 -0.3261
 3232SOL     OW10289   5.815   5.054   0.244 -0.2767 -0.2117  0.8343
 3232SOL    HW110290   5.789   5.135   0.201 -0.7712 -0.9838 -0.3257
 3232SOL    HW210291   5.840   5.082   0.333  1.1356  1.4483 -0.0330
 3233SOL     OW10292   3.635   2.457   5.704 -0.3402  0.0160  0.6898
 3233SOL    HW110293   3.604   2.461   5.614  0.5319 -1.8381  0.2743
 3233SOL    HW210294   3.731   2.460   5.697 -0.1877 -2.0863  1.3835
 3234SOL     OW10295   1.225   6.300   6.477 -0.5141  0.7357 -0.5412
 3234SOL    HW110296   1.137   6.328   6.454 -1.3556  1.0094  2.8113
 3234SOL    HW210297   1.243   6.226   6.418 -2.7487  1.0320 -1.6241
 3235SOL     OW10298   6.397   0.920   1.275  0.3578  0.2829  0.7506
 3235SOL    HW110299   6.423   0.967   1.354  1.7310  1.4185 -0.3380
 3235SOL    HW210300   6.469   0.935   1.213 -0.5088 -0.8986 -0.5830
 3236SOL     OW10301   5.087   0.878   2.007 -0.3236 -0.2175  0.5285
 3236SOL    HW110302   4.994   0.856   2.010  0.1310 -2.0418  1.5007
 3236SOL    HW210303   5.121   0.828   1.933 -0.4818  2.0247 -1.1227
 3237SOL     OW10304   6.442   2.644   1.008  0.3177  0.3976  0.1101
 3237SOL    HW110305   6.425   2.735   1.034 -1.0339 -0.6742  3.2015
 3237SOL    HW210306   6.393   2.633   0.927 -1.9835  1.5885  1.2908
 3238SOL     OW10307   5.819   2.640   3.645 -0.4531 -0.2729  0.5789
 3238SOL    HW110308   5.821   2.556   3.690 -0.0782 -0.2370  0.6318
 3238SOL    HW210309   5.728   2.650   3.617 -0.7138 -0.2352  1.4411
 3239SOL     OW10310   4.381   1.049   5.793 -0.2730  0.3550  0.3062
 3239SOL    HW110311   4.468   1.022   5.823 -0.2045  0.1671 -0.0483
 3239SOL    HW210312   4.343   1.097   5.866 -0.3406 -0.5974  0.9023
 3240SOL     OW10313   0.254   3.629   0.452 -0.4164  0.2932  0.3436
 3240SOL    HW110314   0.280   3.719   0.473 -1.2631  0.4254  0.8667
 3240SOL    HW210315   0.218   3.635   0.364  0.0501  0.3571  0.1523
 3241SOL     OW10316   3.343   0.564   5.190  0.4944 -0.1868 -0.3146
 3241SOL    HW110317   3.369   0.541   5.101  0.3671  0.7999 -0.6142
 3241SOL    HW210318   3.266   0.510   5.207 -0.1492  0.4152 -1.2199
 3242SOL     OW10319   4.817   6.957   5.663 -0.3678 -0.1418  0.1638
 3242SOL    HW110320   4.905   6.920   5.668 -0.7910 -1.0334  1.1622
 3242SOL    HW210321   4.826   7.045   5.700  0.1629 -0.1035 -0.0471
 3243SOL     OW10322   5.435   0.697   1.106  0.3987  0.9011 -0.1097
 3243SOL    HW110323   5.481   0.617   1.080  1.5686  0.8815  1.9589
 3243SOL    HW210324   5.344   0.670   1.119  0.5615  0.1555 -0.5285
 3244SOL     OW10325   0.513   4.893   6.184  0.0055 -0.3095 -0.3652
 3244SOL    HW110326   0.446   4.854   6.128  0.7034  0.4143 -1.7158
 3244SOL    HW210327   0.466   4.961   6.233 -0.2153  0.3803 -1.4970
 3245SOL     OW10328   3.629   3.414   3.517  0.1958  0.0663 -0.3240
 3245SOL    HW110329   3.615   3.445   3.607 -0.3765  1.0318 -0.7322
 3245SOL    HW210330   3.703   3.355   3.523 -1.4976 -1.9928  1.2487
 3246SOL     OW10331   2.151   2.866   4.728 -0.0195 -0.5149  0.3466
 3246SOL    HW110332   2.191   2.924   4.792 -1.1880 -0.1260  0.7397
 3246SOL    HW210333   2.216   2.798   4.712  0.6029 -0.1460  1.3147
 3247SOL     OW10334   5.413   2.649   4.520  0.5005 -0.1593 -0.1681
 3247SOL    HW110335   5.318   2.640   4.519  0.4661  0.2562 -1.3552
 3247SOL    HW210336   5.430   2.732   4.477  1.3133  0.8013  1.9578
 3248SOL     OW10337   7.106   4.252   1.955  0.0212  0.1441 -0.0247
 3248SOL    HW110338   7.160   4.290   1.885  1.3578  0.9207  1.3868
 3248SOL    HW210339   7.146   4.167   1.974 -0.1952  0.0365 -0.0490
 3249SOL     OW10340   0.928   0.709   4.825  0.0907 -0.3451  0.6097
 3249SOL    HW110341   0.937   0.669   4.912 -1.7869 -0.0590  0.9712
 3249SOL    HW210342   0.915   0.635   4.766  0.4764 -0.4900  0.7063
 3250SOL     OW10343   7.119   7.194   5.208 -0.1182  0.2014  0.2889
 3250SOL    HW110344   7.113   7.232   5.121  0.2016 -0.4623 -0.0240
 3250SOL    HW210345   7.131   7.269   5.266  0.1895  0.6025 -0.2883
 3251SOL     OW10346   3.780   0.928   0.661  0.8978  0.1560  0.1159
 3251SOL    HW110347   3.751   1.013   0.628  0.6044 -0.0546 -0.1693
 3251SOL    HW210348   3.700   0.882   0.686  1.0546 -0.0388  0.2752
 3252SOL     OW10349   0.921   3.235   3.837  0.2899  0.3357  0.0511
 3252SOL    HW110350   0.927   3.170   3.907  0.6794  0.6344  0.3022
 3252SOL    HW210351   0.925   3.319   3.883  0.7808  0.5363 -0.3498
 3253SOL     OW10352   3.052   2.364   3.910 -0.3201 -0.5117  0.3458
 3253SOL    HW110353   3.121   2.317   3.863  0.0265  0.6268 -0.3119
 3253SOL    HW210354   2.971   2.317   3.888 -0.1897  0.1175 -1.5560
 3254SOL     OW10355   2.146   5.477   4.185  0.4100  0.0336 -0.0483
 3254SOL    HW110356   2.083   5.406   4.202  0.6640 -0.4009 -0.8934
 3254SOL    HW210357   2.232   5.436   4.201  0.4846  0.6224  1.0987
 3255SOL     OW10358   1.139   6.946   5.627 -0.2979 -0.2967 -0.2901
 3255SOL    HW110359   1.142   6.976   5.718 -1.2195  2.0090 -0.9770
 3255SOL    HW210360   1.054   6.901   5.619 -1.1444  1.2945 -0.5085
 3256SOL     OW10361   1.981   5.117   3.936  0.8243  0.2599  0.3221
 3256SOL    HW110362   1.892   5.114   3.900  0.6519  0.0549  0.7630
 3256SOL    HW210363   2.029   5.052   3.884  0.4806 -0.3144  0.7114
 3257SOL     OW10364   0.223   5.705   5.762 -0.2162  0.2383 -0.6186
 3257SOL    HW110365   0.161   5.749   5.704 -0.8958 -1.5568 -1.2937
 3257SOL    HW210366   0.265   5.638   5.707 -0.5267 -1.1744  0.8118
 3258SOL     OW10367   4.083   0.079   7.112  0.2435  0.0025 -0.0949
 3258SOL    HW110368   4.158   0.030   7.146  0.4346  0.5371  0.2471
 3258SOL    HW210369   4.030   0.012   7.066  0.5792 -0.4944  0.2362
 3259SOL     OW10370   4.771   0.341   0.457  0.4692 -0.2353 -0.3387
 3259SOL    HW110371   4.772   0.249   0.433 -1.9731 -0.3378 -0.2539
 3259SOL    HW210372   4.717   0.383   0.389 -1.1204  0.5487  1.3518
 3260SOL     OW10373   6.831   5.095   0.781 -0.4000  0.1208 -0.2620
 3260SOL    HW110374   6.870   5.066   0.698 -0.0955  2.3846 -0.9629
 3260SOL    HW210375   6.741   5.118   0.757 -0.8677 -0.9909  0.4353
 3261SOL     OW10376   7.258   4.798   4.343 -0.1848 -0.1616  0.1654
 3261SOL    HW110377   7.332   4.782   4.401  0.9971  1.2454 -0.9081
 3261SOL    HW210378   7.193   4.732   4.367  1.6780 -1.8300  0.6827
 3262SOL     OW10379   2.924   6.130   2.393  0.4179  0.0242  0.4293
 3262SOL    HW110380   2.917   6.225   2.403  0.8163 -0.0278  1.2132
 3262SOL    HW210381   3.017   6.114   2.377  0.4062 -0.2661  0.6528
 3263SOL     OW10382   3.341   5.394   5.860 -0.2720  0.4730  0.1667
 3263SOL    HW110383   3.433   5.402   5.886 -0.8807  3.3338  1.6671
 3263SOL    HW210384   3.297   5.360   5.937 -0.6967  0.3963 -0.1066
 3264SOL     OW10385   5.238   1.966   4.368  0.4867  0.4202  0.0892
 3264SOL    HW110386   5.229   1.902   4.297  0.8370 -0.6652  1.0007
 3264SOL    HW210387   5.184   2.040   4.341 -0.0082 -0.3055 -0.9380
 3265SOL     OW10388   5.201   4.199   6.110  0.2409  0.0966  0.2046
 3265SOL    HW110389   5.223   4.166   6.197  1.0027 -0.0957 -0.0477
 3265SOL    HW210390   5.272   4.260   6.089  0.3334 -0.2396 -0.4847
 3266SOL     OW10391   2.611   1.890   5.566  0.1084  0.4334 -0.4988
 3266SOL    HW110392   2.675   1.933   5.510 -1.2071  0.1681 -2.2568
 3266SOL    HW210393   2.536   1.950   5.568  0.3510  0.7142  1.4784
 3267SOL     OW10394   2.157   2.229   5.029 -0.3497 -0.3253  0.4382
 3267SOL    HW110395   2.210   2.169   4.977 -1.3151 -0.8971  0.1187
 3267SOL    HW210396   2.170   2.314   4.987 -0.0637 -0.5460  0.0726
 3268SOL     OW10397   3.651   1.474   3.756  0.4791 -0.0785  0.2235
 3268SOL    HW110398   3.664   1.565   3.783 -0.0809 -0.3628  1.4829
 3268SOL    HW210399   3.574   1.476   3.700  1.6144  0.5095 -1.3539
 3269SOL     OW10400   3.856   1.764   5.194  0.5888  0.4738  0.1455
 3269SOL    HW110401   3.804   1.806   5.126  0.5782 -1.1483 -0.8653
 3269SOL    HW210402   3.930   1.725   5.148  0.6749 -0.4927  1.0777
 3270SOL     OW10403   3.915   1.413   3.818  0.6286  0.3458  0.8238
 3270SOL    HW110404   3.922   1.337   3.876  0.1688  1.7324  2.7489
 3270SOL    HW210405   3.821   1.428   3.809  0.7129  0.5228  0.2142
 3271SOL     OW10406   7.126   3.794   4.505 -0.1898 -0.1131  0.6933
 3271SOL    HW110407   7.201   3.818   4.450  0.7298 -2.7113  0.7425
 3271SOL    HW210408   7.142   3.838   4.588  0.2996  0.8828  0.0772
 3272SOL     OW10409   4.491   5.571   2.362 -0.5317 -0.0368  0.1128
 3272SOL    HW110410   4.442   5.489   2.351 -2.8259  1.0409  1.8950
 3272SOL    HW210411   4.494   5.609   2.274 -1.0738 -1.1480 -0.3989
 3273SOL     OW10412   3.529   1.363   1.795  0.2041 -0.0482 -0.0600
 3273SOL    HW110413   3.621   1.387   1.808 -0.0081  0.2948  0.8737
 3273SOL    HW210414   3.504   1.321   1.878 -0.9705  1.4004  0.3281
 3274SOL     OW10415   2.221   4.253   5.493 -0.3784 -0.4370  0.0526
 3274SOL    HW110416   2.272   4.252   5.574  1.4402 -0.7883 -1.0629
 3274SOL    HW210417   2.170   4.172   5.497  0.1451 -0.7500  0.5826
 3275SOL     OW10418   3.036   4.012   1.043  0.2966  0.1408  0.3770
 3275SOL    HW110419   3.131   3.997   1.039  0.2558 -0.2266  0.7866
 3275SOL    HW210420   3.001   3.933   1.084 -0.1646  0.3813  0.4465
 3276SOL     OW10421   1.811   5.814   3.597  0.0563 -0.1858 -0.5188
 3276SOL    HW110422   1.789   5.828   3.504 -1.0764  2.2168  0.0754
 3276SOL    HW210423   1.729   5.783   3.636  0.3239 -0.4245 -0.1521
 3277SOL     OW10424   4.970   0.824   1.600 -0.2116 -0.2869 -0.6018
 3277SOL    HW110425   5.049   0.807   1.651 -0.8773 -0.8676  0.2591
 3277SOL    HW210426   4.976   0.917   1.576 -0.0963  0.1101  0.9247
 3278SOL     OW10427   5.053   2.744   3.529 -0.1598 -0.0964  0.0025
 3278SOL    HW110428   5.088   2.760   3.617 -0.6011  0.9264 -0.0045
 3278SOL    HW210429   5.063   2.827   3.483 -1.0456 -0.2769 -0.5337
 3279SOL     OW10430   2.050   7.039   5.441 -0.7830 -0.0830 -0.5324
 3279SOL    HW110431   1.984   7.094   5.399  0.8925  1.1415 -1.6979
 3279SOL    HW210432   2.072   6.973   5.375 -0.6583 -0.3135 -0.2602
 3280SOL     OW10433   5.429   1.262   0.852 -0.3529  0.6029 -0.1594
 3280SOL    HW110434   5.436   1.177   0.897 -0.4458 -0.8207 -2.7080
 3280SOL    HW210435   5.506   1.264   0.795 -0.6881  1.9742 -0.5712
 3281SOL     OW10436   0.976   6.149   5.653  0.1080 -0.1679  0.3129
 3281SOL    HW110437   0.992   6.132   5.745  0.8798  0.5992  0.3284
 3281SOL    HW210438   0.888   6.187   5.650 -0.1148 -0.6508  0.6703
 3282SOL     OW10439   4.402   1.875   6.378  0.4047  0.2770 -0.7137
 3282SOL    HW110440   4.326   1.932   6.390  0.4105  0.3049 -0.8111
 3282SOL    HW210441   4.431   1.856   6.467 -1.2567 -1.8101 -0.5867
 3283SOL     OW10442   6.475   6.375   1.221  0.2042 -0.5604  0.0966
 3283SOL    HW110443   6.520   6.332   1.149  1.3447 -0.0486  0.4886
 3283SOL    HW210444   6.471   6.309   1.290  1.2390 -0.3118  0.4094
 3284SOL     OW10445   0.421   6.446   2.296  0.3790  0.4028  0.2611
 3284SOL    HW110446   0.378   6.426   2.212 -0.3918  1.2615  0.4408
 3284SOL    HW210447   0.363   6.408   2.362 -0.4838  2.1550  0.5443
 3285SOL     OW10448   1.329   4.424   7.136  0.0278 -0.1411 -0.1153
 3285SOL    HW110449   1.419   4.429   7.167 -0.4536  1.5164  1.0780
 3285SOL    HW210450   1.287   4.361   7.194  0.1129  0.0025  0.1011
 3286SOL     OW10451   3.125   6.701   5.246 -0.3178  0.5823  1.0633
 3286SOL    HW110452   3.097   6.792   5.258 -1.2825  0.4671 -0.1667
 3286SOL    HW210453   3.087   6.654   5.320 -0.8615  0.9623  1.0304
 3287SOL     OW10454   2.152   4.596   5.150  0.2842 -0.1866  0.0076
 3287SOL    HW110455   2.126   4.682   5.183 -1.6898  0.5810 -3.2913
 3287SOL    HW210456   2.096   4.534   5.197 -1.1206  0.6974 -0.4793
 3288SOL     OW10457   1.430   3.413   7.091  0.1620 -0.2966 -0.2663
 3288SOL    HW110458   1.407   3.412   7.184  3.9132 -2.7686  0.7437
 3288SOL    HW210459   1.362   3.359   7.049  0.6760 -2.5717  1.6893
 3289SOL     OW10460   5.554   6.883   1.703 -0.0162 -0.4864  0.3315
 3289SOL    HW110461   5.612   6.936   1.756 -1.3130 -0.2983  1.5908
 3289SOL    HW210462   5.481   6.862   1.761 -0.6455 -1.6836 -0.8644
 3290SOL     OW10463   4.254   1.213   0.921  0.1153 -0.4405 -0.0459
 3290SOL    HW110464   4.164   1.213   0.956 -0.1612  0.7695 -0.7433
 3290SOL    HW210465   4.308   1.237   0.996  0.0399 -2.7631  0.7919
 3291SOL     OW10466   2.450   1.758   3.970  0.3867 -0.2920 -0.2481
 3291SOL    HW110467   2.398   1.684   4.001 -0.3021 -0.3634 -1.5198
 3291SOL    HW210468   2.505   1.782   4.044 -2.7387  0.9601  1.7478
 3292SOL     OW10469   5.023   3.112   6.249  0.1754 -0.4271 -0.5774
 3292SOL    HW110470   4.970   3.037   6.278  1.5538 -1.5433 -0.9197
 3292SOL    HW210471   4.971   3.153   6.180 -1.2921 -0.1418  0.6598
 3293SOL     OW10472   4.485   7.047   3.823  0.0516 -0.1884 -0.1718
 3293SOL    HW110473   4.544   6.998   3.881 -1.1292  0.0260  1.2561
 3293SOL    HW210474   4.512   7.023   3.735  0.8587 -1.7791  0.4873
 3294SOL     OW10475   4.179   0.378   5.415 -0.0072  0.2272 -0.1125
 3294SOL    HW110476   4.221   0.384   5.500  0.9528 -2.3494 -0.3609
 3294SOL    HW210477   4.241   0.328   5.361 -1.6854 -0.2964 -1.6072
 3295SOL     OW10478   1.013   7.025   2.671 -0.6146  0.6334  0.3789
 3295SOL    HW110479   1.065   7.104   2.683  0.0520  0.2005  0.3543
 3295SOL    HW210480   1.073   6.953   2.690 -1.4211  0.1513  1.1048
 3296SOL     OW10481   5.806   4.028   2.859 -0.3372  0.2224 -0.3698
 3296SOL    HW110482   5.800   3.955   2.920 -2.5281 -0.5467 -1.4316
 3296SOL    HW210483   5.882   4.078   2.888  1.2973 -2.5462  0.2767
 3297SOL     OW10484   0.108   2.664   1.633 -0.1477 -0.5131 -0.1741
 3297SOL    HW110485   0.186   2.690   1.682  0.6144 -0.1712 -1.5482
 3297SOL    HW210486   0.056   2.744   1.627  0.6500 -0.1003 -1.5618
 3298SOL     OW10487   3.195   6.563   5.520 -0.3668  0.0512  0.0521
 3298SOL    HW110488   3.265   6.498   5.513 -1.1976 -0.7995 -0.5493
 3298SOL    HW210489   3.219   6.617   5.596  1.2149  0.1272 -0.4863
 3299SOL     OW10490   5.182   3.495   1.062  0.2876 -0.3542  0.2771
 3299SOL    HW110491   5.230   3.574   1.088  3.1512 -2.2297  0.8939
 3299SOL    HW210492   5.211   3.428   1.124 -1.9484 -1.9618 -0.3599
 3300SOL     OW10493   1.691   2.558   0.492 -0.0431 -0.2357  1.0979
 3300SOL    HW110494   1.730   2.504   0.423 -1.7123 -0.6361  0.4482
 3300SOL    HW210495   1.756   2.625   0.510 -0.0585  0.5903 -1.7130
 3301SOL     OW10496   6.769   5.569   6.415  0.4871  0.1377 -0.1618
 3301SOL    HW110497   6.817   5.487   6.424  1.5458  0.6281 -1.2979
 3301SOL    HW210498   6.827   5.636   6.451  0.3028  0.6119 -0.7392
 3302SOL     OW10499   6.808   1.151   0.893  0.1188 -0.4921 -0.5636
 3302SOL    HW110500   6.803   1.165   0.798  0.5529 -1.4921 -0.7326
 3302SOL    HW210501   6.823   1.239   0.929 -1.2706  0.0701 -1.3203
 3303SOL     OW10502   6.592   5.575   1.706 -0.0604 -0.3132  0.0163
 3303SOL    HW110503   6.613   5.657   1.661 -0.2737 -0.5431 -0.4966
 3303SOL    HW210504   6.673   5.552   1.752  0.6298 -0.8761 -1.4658
 3304SOL     OW10505   4.535   4.403   1.320  0.2997 -0.0422 -0.0077
 3304SOL    HW110506   4.495   4.317   1.335  0.5543 -0.0695  0.5303
 3304SOL    HW210507   4.629   4.388   1.333  0.4532  0.0878 -0.9662
 3305SOL     OW10508   2.452   4.502   6.653 -0.1012 -0.1056  0.2283
 3305SOL    HW110509   2.388   4.526   6.720  0.8444  1.6557  0.5195
 3305SOL    HW210510   2.418   4.540   6.572  0.9745  1.5229  0.5334
 3306SOL     OW10511   4.944   0.112   5.591 -0.2411  0.2408  0.0900
 3306SOL    HW110512   4.914   0.197   5.557  0.6885  0.8428  0.7437
 3306SOL    HW210513   5.013   0.135   5.652 -0.9931 -0.9149  1.3841
 3307SOL     OW10514   1.085   3.893   4.577  0.1249  0.0719  0.2521
 3307SOL    HW110515   1.100   3.836   4.652  1.2637  0.3743  0.2615
 3307SOL    HW210516   1.046   3.972   4.614 -1.1058 -0.5362  0.2850
 3308SOL     OW10517   0.520   1.822   4.812 -0.1699 -0.4240  0.0912
 3308SOL    HW110518   0.517   1.844   4.719  1.6254 -0.2609  0.0377
 3308SOL    HW210519   0.545   1.904   4.855  0.0978 -0.7617  0.5862
 3309SOL     OW10520   2.280   7.123   3.356  0.0460  0.0647  0.1075
 3309SOL    HW110521   2.270   7.175   3.436 -0.4216  0.5168 -0.2441
 3309SOL    HW210522   2.360   7.072   3.371 -0.4151 -0.3692  1.1487
 3310SOL     OW10523   7.107   3.727   2.938  0.1349  0.3569  0.1054
 3310SOL    HW110524   7.154   3.721   3.021  1.5607 -0.7220 -0.7682
 3310SOL    HW210525   7.053   3.806   2.947 -0.3940 -0.2292  2.3861
 3311SOL     OW10526   1.314   1.137   3.351 -0.3715  0.1665  0.1869
 3311SOL    HW110527   1.270   1.220   3.369 -0.5823  0.1455 -0.2257
 3311SOL    HW210528   1.394   1.161   3.305 -1.1569  0.0511 -1.2581
 3312SOL     OW10529   4.409   4.098   3.350  0.0314 -0.1074  0.3671
 3312SOL    HW110530   4.425   4.017   3.302  1.3769 -0.0705  0.7293
 3312SOL    HW210531   4.414   4.073   3.442  2.5991  0.7394  0.5138
 3313SOL     OW10532   3.194   0.450   6.985  0.1408 -0.1091  0.1677
 3313SOL    HW110533   3.280   0.475   7.018 -1.7375  2.0265  3.7442
 3313SOL    HW210534   3.154   0.532   6.956 -2.3640 -0.2650  2.8934
 3314SOL     OW10535   0.303   0.547   7.221 -0.0756 -0.0204  0.4859
 3314SOL    HW110536   0.218   0.583   7.195 -0.4213 -0.8828  0.3971
 3314SOL    HW210537   0.364   0.579   7.155 -0.3167  0.6435  0.5779
 3315SOL     OW10538   2.098   4.950   4.623  0.0357 -0.3515  0.0613
 3315SOL    HW110539   2.040   4.913   4.557  1.6599 -0.2521 -1.4892
 3315SOL    HW210540   2.052   4.940   4.705 -1.8962 -0.8035 -1.0564
 3316SOL     OW10541   2.182   5.287   7.098  0.9260  0.3918  0.5402
 3316SOL    HW110542   2.269   5.247   7.092  0.3288 -1.0041  1.0292
 3316SOL    HW210543   2.140   5.243   7.171 -0.7140  0.0417 -0.5804
 3317SOL     OW10544   6.089   5.985   3.009  0.5874 -0.6348  0.0809
 3317SOL    HW110545   5.999   6.011   3.024  0.4931 -0.0276 -1.4653
 3317SOL    HW210546   6.136   6.067   2.991  1.1814 -1.0781 -0.4226
 3318SOL     OW10547   4.138   0.262   2.138  0.5610  0.3669  0.3985
 3318SOL    HW110548   4.088   0.180   2.141 -0.9063  1.1501 -1.3089
 3318SOL    HW210549   4.214   0.246   2.194 -0.8430 -1.3801  1.8668
 3319SOL     OW10550   2.378   1.192   4.895 -0.1054  0.5524 -0.3460
 3319SOL    HW110551   2.334   1.108   4.881 -0.0929  0.4035  0.4771
 3319SOL    HW210552   2.446   1.195   4.828 -0.9951  0.5263 -1.2601
 3320SOL     OW10553   7.236   5.769   2.370  0.2712 -0.4640  0.1295
 3320SOL    HW110554   7.239   5.719   2.288  3.1479 -0.9669  0.4928
 3320SOL    HW210555   7.324   5.806   2.378  0.3136 -1.1771  3.4569
 3321SOL     OW10556   5.608   1.241   1.428 -0.6598 -0.2697 -0.1509
 3321SOL    HW110557   5.526   1.287   1.410 -1.2804  0.0680  3.1773
 3321SOL    HW210558   5.588   1.187   1.505  2.0955 -0.4896  0.4404
 3322SOL     OW10559   5.595   1.453   3.056 -0.5805  0.1082 -1.1654
 3322SOL    HW110560   5.544   1.372   3.064 -0.4413  0.2136  0.9321
 3322SOL    HW210561   5.636   1.446   2.969  0.7073 -2.8230 -0.3940
 3323SOL     OW10562   6.027   5.959   0.944 -0.2159 -0.4431 -0.5235
 3323SOL    HW110563   5.968   5.934   1.015 -1.1039  1.3630 -0.5954
 3323SOL    HW210564   6.061   6.045   0.969  0.3754 -0.3110 -1.7153
 3324SOL     OW10565   1.338   4.231   3.349  0.1021 -0.6867 -0.1684
 3324SOL    HW110566   1.279   4.305   3.360  0.8118  0.1301 -1.6478
 3324SOL    HW210567   1.414   4.268   3.303  1.1443 -2.0089  0.4400
 3325SOL     OW10568   5.508   0.427   6.858 -0.5069 -0.0755 -0.2690
 3325SOL    HW110569   5.571   0.387   6.918 -1.6844 -1.5138  0.0119
 3325SOL    HW210570   5.563   0.469   6.791  0.7771  0.1934  0.9304
 3326SOL     OW10571   4.105   4.287   4.287  0.5133 -0.0126  0.2019
 3326SOL    HW110572   4.084   4.212   4.231  1.4762  1.1117 -1.7013
 3326SOL    HW210573   4.148   4.249   4.363 -1.6244 -1.6589  0.6620
 3327SOL     OW10574   0.081   0.995   4.227 -0.4154 -0.5480 -0.1693
 3327SOL    HW110575   0.072   1.048   4.147 -0.3166 -2.7411 -1.6817
 3327SOL    HW210576   0.172   1.009   4.254 -0.3220 -0.1231 -0.6903
 3328SOL     OW10577   6.758   1.407   6.386 -0.3718  0.1806  0.1989
 3328SOL    HW110578   6.838   1.444   6.423 -0.6627  3.4397 -2.2258
 3328SOL    HW210579   6.784   1.375   6.300 -1.2314 -0.6423  0.2413
 3329SOL     OW10580   3.679   0.495   3.981  0.4468  0.3678  0.1407
 3329SOL    HW110581   3.753   0.439   3.957 -0.0560 -0.2084 -0.0676
 3329SOL    HW210582   3.684   0.569   3.920  1.1730  0.6057  0.4852
 3330SOL     OW10583   3.538   5.308   3.694 -0.5317  0.6286 -0.3567
 3330SOL    HW110584   3.626   5.313   3.732 -1.0796  0.2834  0.9834
 3330SOL    HW210585   3.525   5.394   3.653 -0.4890  1.5690  1.5175
 3331SOL     OW10586   1.026   6.138   6.709  0.2388 -0.0058 -0.4167
 3331SOL    HW110587   0.999   6.151   6.618 -0.1563  0.6353 -0.2135
 3331SOL    HW210588   1.081   6.214   6.728 -1.0349  0.7291  0.3916
 3332SOL     OW10589   1.505   3.709   2.396  0.4594 -0.1518  0.1661
 3332SOL    HW110590   1.484   3.616   2.401  0.6767 -0.2489 -0.7149
 3332SOL    HW210591   1.435   3.746   2.342 -0.0441  0.3283  1.1331
 3333SOL     OW10592   5.735   6.115   4.546 -0.1423 -0.6467  0.4405
 3333SOL    HW110593   5.668   6.051   4.524  0.9895 -0.4841 -3.8360
 3333SOL    HW210594   5.694   6.200   4.531  0.5159 -0.5126 -0.6068
 3334SOL     OW10595   6.114   2.522   4.833  0.3341  0.0780 -0.3474
 3334SOL    HW110596   6.125   2.508   4.928  1.0547 -1.8666 -0.6877
 3334SOL    HW210597   6.099   2.434   4.798  1.0379  0.6684 -2.1788
 3335SOL     OW10598   5.045   4.996   3.293  0.6900  0.1189 -0.3248
 3335SOL    HW110599   5.136   4.979   3.317  0.5233  0.3347  0.4762
 3335SOL    HW210600   5.049   5.021   3.201  1.3601 -0.5530 -0.4874
 3336SOL     OW10601   1.895   6.110   0.462 -0.6290  0.1322  0.1728
 3336SOL    HW110602   1.812   6.086   0.503 -1.1237 -0.8325 -1.3571
 3336SOL    HW210603   1.898   6.059   0.381  1.0333  0.8498 -0.2486
 3337SOL     OW10604   4.274   4.762   2.156 -0.3132  0.3485  0.2490
 3337SOL    HW110605   4.294   4.729   2.068  1.1192 -0.1761  0.7512
 3337SOL    HW210606   4.270   4.684   2.211  2.7467  0.9164  1.3791
 3338SOL     OW10607   0.798   0.040   2.062 -0.5131 -0.5212 -0.2883
 3338SOL    HW110608   0.709   0.015   2.038 -0.4731  0.8359 -1.9930
 3338SOL    HW210609   0.787   0.122   2.110 -0.1987 -0.4004 -0.4236
 3339SOL     OW10610   0.033   5.071   2.135  0.2557  0.4493 -0.1285
 3339SOL    HW110611   0.044   5.119   2.053 -1.5200  1.3763  0.1527
 3339SOL    HW210612   0.095   4.999   2.129  0.2991  0.6270 -2.2092
 3340SOL     OW10613   6.051   0.151   3.022  0.3666 -0.1207 -0.0959
 3340SOL    HW110614   6.081   0.066   2.990  0.2787  0.1578 -0.9422
 3340SOL    HW210615   6.123   0.211   3.002  1.0660 -0.2623  1.8775
 3341SOL     OW10616   2.013   3.921   1.564  0.1776 -0.3467  0.2770
 3341SOL    HW110617   1.923   3.897   1.544  0.3484 -2.0102  1.3953
 3341SOL    HW210618   2.061   3.838   1.564  1.8604  0.5877 -0.9844
 3342SOL     OW10619   2.181   1.926   6.050  0.1779  0.3606 -0.3817
 3342SOL    HW110620   2.189   1.965   5.962  2.1433  0.6585 -0.0953
 3342SOL    HW210621   2.210   1.995   6.109  2.0639 -0.9524  0.2613
 3343SOL     OW10622   5.400   4.338   2.049  0.1417 -0.5242 -0.0057
 3343SOL    HW110623   5.451   4.365   2.126  0.7233 -2.0559  0.1562
 3343SOL    HW210624   5.401   4.242   2.052 -0.8693 -0.5801 -1.2494
 3344SOL     OW10625   5.039   2.143   6.441 -0.1118 -0.5459  0.0083
 3344SOL    HW110626   5.072   2.053   6.431 -0.4128 -0.4974 -1.4475
 3344SOL    HW210627   4.944   2.133   6.446 -0.0151 -0.5152  2.3513
 3345SOL     OW10628   5.921   4.901   4.979  0.7056 -0.3882 -0.3076
 3345SOL    HW110629   5.975   4.923   5.054  0.5360  1.0377 -0.5955
 3345SOL    HW210630   5.910   4.983   4.931  0.7706 -1.2605 -1.8707
 3346SOL     OW10631   4.673   2.977   5.875 -0.0157 -0.1531 -0.3494
 3346SOL    HW110632   4.724   2.907   5.916 -1.1864 -0.3997  0.6948
 3346SOL    HW210633   4.605   2.931   5.825 -0.1939  0.2251 -0.4534
 3347SOL     OW10634   6.114   4.427   4.425 -0.2457  0.2118  0.4630
 3347SOL    HW110635   6.099   4.443   4.332 -1.3922  0.4504  0.6795
 3347SOL    HW210636   6.069   4.345   4.443  0.3433 -0.0564  0.7169
 3348SOL     OW10637   0.956   2.927   3.429 -0.1238  0.1530 -0.3286
 3348SOL    HW110638   0.877   2.891   3.389  0.4287 -0.5749 -0.7641
 3348SOL    HW210639   1.018   2.854   3.431  0.0243  0.2890  1.4210
 3349SOL     OW10640   1.813   0.525   3.269  0.6176  0.3891  0.3036
 3349SOL    HW110641   1.818   0.559   3.358  0.3156  0.8165  0.1579
 3349SOL    HW210642   1.813   0.603   3.214 -1.1434  0.2045  0.0079
 3350SOL     OW10643   0.584   3.735   4.033 -0.3945  0.4382 -0.4734
 3350SOL    HW110644   0.653   3.795   4.004 -0.2202  0.0048 -0.9699
 3350SOL    HW210645   0.596   3.728   4.127 -0.0624  0.7445 -0.4914
 3351SOL     OW10646   4.567   2.459   4.787 -0.4123 -0.2778  0.2451
 3351SOL    HW110647   4.587   2.415   4.705 -0.3333 -1.8735  1.1068
 3351SOL    HW210648   4.474   2.445   4.800 -0.4354  0.0132  0.3998
 3352SOL     OW10649   0.132   7.016   0.494 -0.7814 -0.0770 -0.0928
 3352SOL    HW110650   0.075   6.944   0.466  0.1074 -1.5420  1.7487
 3352SOL    HW210651   0.211   7.007   0.440 -1.0322  0.0618 -0.4833
 3353SOL     OW10652   3.770   3.320   4.734  0.1941 -0.1433  0.0852
 3353SOL    HW110653   3.687   3.278   4.754  1.4252 -1.7725  1.8881
 3353SOL    HW210654   3.775   3.395   4.794 -0.4687  0.6660 -0.8365
 3354SOL     OW10655   0.306   5.417   3.961  0.6688  0.0425 -0.1169
 3354SOL    HW110656   0.234   5.478   3.949  0.5323 -0.0580  0.1734
 3354SOL    HW210657   0.328   5.425   4.054  1.1440  0.1983 -0.2420
 3355SOL     OW10658   2.981   2.713   5.988 -0.1720 -0.3874 -0.3214
 3355SOL    HW110659   2.969   2.724   6.082  1.0597 -2.9433  0.1802
 3355SOL    HW210660   3.012   2.798   5.958  2.3144 -0.3504  2.1087
 3356SOL     OW10661   5.885   1.873   0.050 -0.3745  0.0263  0.3745
 3356SOL    HW110662   5.964   1.927   0.046 -0.4673  0.1529  0.2706
 3356SOL    HW210663   5.819   1.929   0.089 -0.3429 -0.1641  0.7007
 3357SOL     OW10664   0.548   0.475   2.740  0.1430 -0.5470  0.2537
 3357SOL    HW110665   0.635   0.456   2.706  0.0846 -1.1815  0.4657
 3357SOL    HW210666   0.509   0.534   2.675  1.0646  0.4844  0.6159
 3358SOL     OW10667   1.203   5.258   1.607 -0.0752 -0.3794  0.3260
 3358SOL    HW110668   1.171   5.269   1.697 -0.3889  0.6718  0.0906
 3358SOL    HW210669   1.281   5.314   1.603  0.2559 -0.8609  0.1106
 3359SOL     OW10670   1.314   3.368   2.176 -0.0505 -0.1727  0.5017
 3359SOL    HW110671   1.297   3.316   2.097 -1.3939  1.4813 -0.3363
 3359SOL    HW210672   1.406   3.395   2.167 -0.4335  0.7158 -0.9596
 3360SOL     OW10673   3.022   0.818   0.561  0.1436 -0.6516  0.4212
 3360SOL    HW110674   3.034   0.726   0.535  0.3210 -1.1527  2.1748
 3360SOL    HW210675   3.067   0.824   0.646 -2.0989  0.3787  1.5811
 3361SOL     OW10676   0.435   5.535   5.899 -0.0164 -0.3100  0.6599
 3361SOL    HW110677   0.453   5.506   5.809  1.8924 -0.6950  1.1481
 3361SOL    HW210678   0.381   5.465   5.936 -3.4852  1.3032 -1.1196
 3362SOL     OW10679   6.693   5.298   5.704 -0.3908 -0.2630 -0.1646
 3362SOL    HW110680   6.707   5.367   5.769 -0.9413  0.9304 -1.2889
 3362SOL    HW210681   6.767   5.239   5.715  0.5487  0.9719  0.2460
 3363SOL     OW10682   0.069   4.265   1.247 -0.2798 -0.2231 -0.0619
 3363SOL    HW110683   0.083   4.215   1.167  1.4654 -0.8651  0.6432
 3363SOL    HW210684   0.056   4.355   1.217 -0.2257 -0.5637 -1.1085
 3364SOL     OW10685   3.673   4.649   4.683  0.1590 -0.1062 -0.8830
 3364SOL    HW110686   3.706   4.609   4.603  1.0242 -0.5215 -0.3202
 3364SOL    HW210687   3.666   4.577   4.745 -0.5956  0.1990 -0.6118
 3365SOL     OW10688   6.691   4.151   2.244 -0.5251 -0.0083 -0.1480
 3365SOL    HW110689   6.598   4.132   2.230 -0.4316 -0.3372 -0.3261
 3365SOL    HW210690   6.694   4.246   2.253 -0.6234  0.2164 -2.1198
 3366SOL     OW10691   0.978   5.281   2.235 -0.4298 -0.4563 -0.2054
 3366SOL    HW110692   0.996   5.375   2.237  0.8053 -0.7105  1.1085
 3366SOL    HW210693   1.027   5.249   2.159 -0.1363 -0.1781 -0.1346
 3367SOL     OW10694   0.125   4.155   7.073  0.1090  0.2731  0.1951
 3367SOL    HW110695   0.059   4.125   7.011  0.4446  2.0155 -1.0585
 3367SOL    HW210696   0.147   4.078   7.125 -1.4537 -0.7946 -0.7022
 3368SOL     OW10697   1.677   7.231   2.814 -0.0666 -0.0608  0.1293
 3368SOL    HW110698   1.610   7.255   2.878  0.3774 -1.7069  1.2363
 3368SOL    HW210699   1.633   7.238   2.729 -1.2359  0.2202  0.7498
 3369SOL     OW10700   6.625   1.150   2.905  0.1429  0.0401  0.2673
 3369SOL    HW110701   6.540   1.107   2.903  0.0388  0.2714 -0.9323
 3369SOL    HW210702   6.687   1.082   2.879  0.2352  0.0630  0.4281
 3370SOL     OW10703   3.832   0.063   2.420  0.1356  0.0891  0.0723
 3370SOL    HW110704   3.912   0.013   2.435  0.5342  0.9204  0.7450
 3370SOL    HW210705   3.779   0.049   2.498 -0.0736  0.0994 -0.0669
 3371SOL     OW10706   5.153   6.051   0.680  0.3003  0.0356  0.0552
 3371SOL    HW110707   5.078   6.002   0.647  0.4023 -1.1744  1.5623
 3371SOL    HW210708   5.203   6.075   0.602 -1.8506  1.2240 -1.0122
 3372SOL     OW10709   6.582   2.604   2.241 -0.2154 -0.0598 -0.0337
 3372SOL    HW110710   6.626   2.592   2.325 -3.5259  2.6971  2.2616
 3372SOL    HW210711   6.502   2.552   2.248 -1.6190  1.9604 -0.5262
 3373SOL     OW10712   1.798   6.602   6.190 -0.1374 -0.8202 -0.0328
 3373SOL    HW110713   1.764   6.534   6.132 -0.7548  0.2777 -0.9981
 3373SOL    HW210714   1.785   6.683   6.141  1.5441 -0.1153  0.6759
 3374SOL     OW10715   4.687   0.350   6.192  0.1070  0.1406  0.2426
 3374SOL    HW110716   4.674   0.293   6.269  0.7126 -0.0447  0.2168
 3374SOL    HW210717   4.626   0.317   6.127  1.3052 -1.2935 -0.2032
 3375SOL     OW10718   0.617   6.977   4.174 -0.3947 -0.5697  0.2017
 3375SOL    HW110719   0.541   7.025   4.206 -0.6446 -0.0131 -1.1628
 3375SOL    HW210720   0.690   7.013   4.224 -0.6962  0.6941 -0.2242
 3376SOL     OW10721   0.312   0.286   6.700  0.3232 -0.0075  0.3916
 3376SOL    HW110722   0.333   0.273   6.792 -0.1965 -2.3517  0.2048
 3376SOL    HW210723   0.232   0.339   6.701  0.3652  0.0429  1.2749
 3377SOL     OW10724   1.356   2.926   4.144 -0.0451 -0.4338  0.1149
 3377SOL    HW110725   1.386   2.962   4.227 -0.1133 -0.6475  0.2323
 3377SOL    HW210726   1.288   2.863   4.168 -1.6293  1.0841 -0.2227
 3378SOL     OW10727   6.619   3.281   2.510  0.5193 -0.2046  0.1755
 3378SOL    HW110728   6.603   3.217   2.441  1.5352  0.5173 -0.7447
 3378SOL    HW210729   6.681   3.239   2.569  1.2714 -0.0265 -0.4890
 3379SOL     OW10730   6.417   1.861   0.685  0.1169  0.5319  0.5657
 3379SOL    HW110731   6.418   1.836   0.592 -1.3043 -0.8329  0.8872
 3379SOL    HW210732   6.376   1.947   0.686  2.2487  1.5919 -0.2783
 3380SOL     OW10733   3.954   7.146   1.889  0.6295  0.3319 -1.1601
 3380SOL    HW110734   3.984   7.131   1.800  0.1082  0.8379 -1.4283
 3380SOL    HW210735   3.890   7.217   1.881 -0.1520 -0.2901 -0.5171
 3381SOL     OW10736   0.930   6.653   3.814  0.4362 -0.7016  0.1417
 3381SOL    HW110737   0.966   6.740   3.801  1.3195 -1.1207 -0.2232
 3381SOL    HW210738   0.938   6.637   3.908 -0.5758 -0.0257  0.3517
 3382SOL     OW10739   4.037   4.067   4.104 -0.0091 -0.0311 -0.3931
 3382SOL    HW110740   3.985   4.020   4.039 -1.7707  1.5599 -0.1835
 3382SOL    HW210741   4.073   4.142   4.056  1.2315 -0.5521 -0.2808
 3383SOL     OW10742   2.264   4.679   4.331 -0.2644  0.4885  0.6617
 3383SOL    HW110743   2.234   4.762   4.295  0.2253  1.2175  1.9221
 3383SOL    HW210744   2.191   4.619   4.316  0.5007  0.3328 -2.9571
 3384SOL     OW10745   0.099   6.422   5.566 -0.4215 -0.2376  0.1059
 3384SOL    HW110746   0.083   6.331   5.541 -0.3587 -0.3557  0.5009
 3384SOL    HW210747   0.049   6.473   5.502 -2.2322 -0.5970  1.1958
 3385SOL     OW10748   1.325   6.804   5.767 -0.2814  0.2862  0.3782
 3385SOL    HW110749   1.305   6.717   5.731 -0.0128 -0.3802  1.8047
 3385SOL    HW210750   1.264   6.863   5.723 -2.1783 -1.0028  1.2017
 3386SOL     OW10751   6.278   6.929   0.044 -0.4882  0.1558 -0.8929
 3386SOL    HW110752   6.250   7.014   0.010  0.8019  0.1772 -1.9557
 3386SOL    HW210753   6.373   6.934   0.043 -0.4261 -0.8201  0.2981
 3387SOL     OW10754   1.532   6.230   1.306 -0.8815  0.1766  0.1258
 3387SOL    HW110755   1.488   6.156   1.348  1.5619 -0.9602  0.7470
 3387SOL    HW210756   1.560   6.286   1.379  3.6792 -1.9762  0.1966
 3388SOL     OW10757   3.301   4.676   3.974  0.2648  0.3882  0.2995
 3388SOL    HW110758   3.225   4.734   3.982 -0.1303 -0.0257 -0.3685
 3388SOL    HW210759   3.289   4.611   4.043 -1.2669 -1.0894 -1.3062
 3389SOL     OW10760   1.213   2.955   5.610 -0.1397  0.7216  0.1367
 3389SOL    HW110761   1.156   3.025   5.579 -2.0466 -0.9076 -0.1506
 3389SOL    HW210762   1.231   2.901   5.533  0.0374  0.0279  0.6505
 3390SOL     OW10763   2.263   2.190   3.454 -0.1399  0.0060 -0.7145
 3390SOL    HW110764   2.318   2.137   3.512  1.7525  3.1574  0.5139
 3390SOL    HW210765   2.174   2.174   3.483  0.5312 -1.1051  0.7769
 3391SOL     OW10766   1.047   4.343   6.435  0.1566 -0.1421  0.7366
 3391SOL    HW110767   0.986   4.274   6.408 -0.6545  0.9711 -0.3667
 3391SOL    HW210768   1.039   4.410   6.367  0.9668  1.0172  1.7497
 3392SOL     OW10769   5.835   4.318   1.903  0.5784 -0.0027  0.0222
 3392SOL    HW110770   5.926   4.307   1.928  0.6420  0.1401 -0.1462
 3392SOL    HW210771   5.787   4.321   1.986  0.6493 -0.7275  0.0875
 3393SOL     OW10772   6.986   2.880   5.751 -0.5244  0.2889  0.2402
 3393SOL    HW110773   7.004   2.909   5.841 -1.8814 -0.6667  0.8509
 3393SOL    HW210774   6.899   2.840   5.757 -0.4443 -0.1393 -1.4274
 3394SOL     OW10775   7.009   0.364   3.615 -0.0688  0.2137  0.3611
 3394SOL    HW110776   6.949   0.423   3.661  0.3946  1.6618 -0.8434
 3394SOL    HW210777   6.956   0.288   3.591 -0.7885  0.3397  1.5196
 3395SOL     OW10778   2.018   0.344   2.539 -0.3024  0.1709 -0.2252
 3395SOL    HW110779   2.076   0.269   2.524 -0.8641 -0.5487  1.1505
 3395SOL    HW210780   1.974   0.324   2.621  0.1407  2.4033  0.5901
 3396SOL     OW10781   1.121   1.698   3.859 -0.3760 -0.6445 -0.7604
 3396SOL    HW110782   1.042   1.748   3.882  1.8010  1.9815  1.3330
 3396SOL    HW210783   1.139   1.645   3.936  2.1314  1.8127  0.4356
 3397SOL     OW10784   0.541   3.005   3.707 -0.1091 -0.5779 -0.1474
 3397SOL    HW110785   0.581   3.064   3.643 -0.2248  0.3886  0.6754
 3397SOL    HW210786   0.536   3.056   3.787 -0.7745 -1.5061  0.4042
 3398SOL     OW10787   6.680   3.632   5.498 -0.8761  0.1593 -0.0768
 3398SOL    HW110788   6.681   3.651   5.591  0.8163 -0.7608  0.1133
 3398SOL    HW210789   6.636   3.707   5.458  0.5613  1.7275  1.2069
 3399SOL     OW10790   5.423   2.936   0.839  1.0916  0.0596 -0.0860
 3399SOL    HW110791   5.362   2.995   0.884 -0.4714 -2.0280  0.5832
 3399SOL    HW210792   5.425   2.857   0.893  3.1688 -0.5317 -0.9602
 3400SOL     OW10793   5.371   3.481   1.748  0.0601  0.3726 -0.0231
 3400SOL    HW110794   5.404   3.441   1.829  0.7439 -0.0229 -0.4881
 3400SOL    HW210795   5.305   3.543   1.777  1.5563  1.5368  0.9826
 3401SOL     OW10796   3.215   2.674   2.469  0.0924 -0.1973 -0.2493
 3401SOL    HW110797   3.301   2.648   2.501 -0.1361  0.2507  0.7610
 3401SOL    HW210798   3.162   2.594   2.476  1.1109 -1.2086 -3.4510
 3402SOL     OW10799   3.285   3.185   5.024  0.2233  0.0537  0.2467
 3402SOL    HW110800   3.299   3.186   5.119 -1.5670  0.3979  0.5244
 3402SOL    HW210801   3.258   3.274   5.003  0.6345 -0.0148 -0.6025
 3403SOL     OW10802   3.057   2.415   4.966  0.6040 -0.0932 -0.5626
 3403SOL    HW110803   2.978   2.462   4.939 -0.5106 -0.9815  1.0324
 3403SOL    HW210804   3.073   2.445   5.055  1.7877 -0.2888 -0.7070
 3404SOL     OW10805   0.311   6.406   6.027  0.0398  0.0599  0.2997
 3404SOL    HW110806   0.279   6.468   6.093  1.6091  0.8877  0.2940
 3404SOL    HW210807   0.251   6.417   5.953 -1.1025 -0.1309  1.1709
 3405SOL     OW10808   0.432   6.208   6.174 -0.0007 -0.1239 -0.1262
 3405SOL    HW110809   0.519   6.189   6.138  0.9832  0.7640  1.6707
 3405SOL    HW210810   0.410   6.294   6.139 -0.4081 -0.6050 -1.0455
 3406SOL     OW10811   0.927   5.128   5.558  0.0363  0.0100  0.2670
 3406SOL    HW110812   0.955   5.109   5.469  0.7069  1.1024  0.2252
 3406SOL    HW210813   0.847   5.077   5.571  1.2221 -1.9894 -0.1474
 3407SOL     OW10814   5.290   2.666   6.378 -0.3720 -0.0832 -0.4692
 3407SOL    HW110815   5.370   2.683   6.327 -0.1582 -0.4272 -0.2479
 3407SOL    HW210816   5.232   2.739   6.356  0.7073  1.1835  0.8287
 3408SOL     OW10817   4.279   4.558   3.165  0.2977  0.2280  0.2805
 3408SOL    HW110818   4.327   4.603   3.096  0.2486 -0.8629 -0.4764
 3408SOL    HW210819   4.188   4.583   3.151  0.3135  0.1702  0.0760
 3409SOL     OW10820   5.734   0.298   1.707 -0.1398  0.4070 -0.1188
 3409SOL    HW110821   5.694   0.338   1.784 -0.6227  1.1642 -0.7567
 3409SOL    HW210822   5.672   0.316   1.636  0.0172 -0.7863 -0.5757
 3410SOL     OW10823   1.414   5.779   4.935  0.5285 -0.2669  0.6024
 3410SOL    HW110824   1.449   5.690   4.941  2.0166  0.1380 -1.3193
 3410SOL    HW210825   1.433   5.819   5.020  0.6370 -1.5066  1.1708
 3411SOL     OW10826   6.972   5.801   4.751 -0.4446 -0.4626 -0.0214
 3411SOL    HW110827   6.937   5.761   4.671 -2.0776  1.1666 -0.1407
 3411SOL    HW210828   7.056   5.837   4.725 -1.6343  1.3960 -1.4337
 3412SOL     OW10829   5.003   0.799   6.697  0.3767  0.2076 -0.1823
 3412SOL    HW110830   4.963   0.715   6.675  0.8043 -0.2119  0.6109
 3412SOL    HW210831   4.930   0.852   6.729  0.4158 -0.5302  1.1960
 3413SOL     OW10832   2.713   0.629   2.956  0.6486  0.2052  0.2314
 3413SOL    HW110833   2.757   0.549   2.926  1.8864  0.7321  0.5787
 3413SOL    HW210834   2.779   0.673   3.010 -1.0975 -0.0964  2.6786
 3414SOL     OW10835   2.805   4.705   0.210 -0.5837  0.3937 -0.0304
 3414SOL    HW110836   2.763   4.788   0.232 -0.1344  0.4215  0.7583
 3414SOL    HW210837   2.741   4.659   0.155 -2.6087 -0.5284  2.9788
 3415SOL     OW10838   1.213   1.002   5.163 -0.1438 -0.1178  0.6214
 3415SOL    HW110839   1.194   0.910   5.148  0.2273 -0.0524 -0.2490
 3415SOL    HW210840   1.277   1.002   5.235  0.3378 -0.5676  0.1934
 3416SOL     OW10841   0.663   1.938   5.601  0.0058 -0.4136 -0.3465
 3416SOL    HW110842   0.689   1.846   5.592 -0.8427 -0.6141 -0.8159
 3416SOL    HW210843   0.583   1.945   5.549 -0.8443  0.2104  1.0221
 3417SOL     OW10844   0.322   6.758   2.818  0.2693  0.5883  0.4574
 3417SOL    HW110845   0.390   6.692   2.808 -0.9284 -0.7209  0.7915
 3417SOL    HW210846   0.330   6.787   2.909  0.5097  0.5847  0.4373
 3418SOL     OW10847   0.422   0.706   0.312 -0.0239 -0.1626 -0.0645
 3418SOL    HW110848   0.330   0.680   0.317 -0.4454  1.5711  2.0183
 3418SOL    HW210849   0.441   0.740   0.400  2.7517 -0.9997 -0.3120
 3419SOL     OW10850   1.930   6.325   7.172  0.2248  0.3885  0.2121
 3419SOL    HW110851   1.886   6.409   7.158  2.2195  1.5060  0.6456
 3419SOL    HW210852   1.939   6.317   7.267  0.0935 -0.3137  0.1735
 3420SOL     OW10853   0.855   6.147   3.538 -0.6306  0.0339 -0.4504
 3420SOL    HW110854   0.797   6.072   3.552 -0.7582  0.1589 -0.3185
 3420SOL    HW210855   0.943   6.112   3.550 -0.6995 -0.0526 -0.2148
 3421SOL     OW10856   3.040   2.086   5.791 -0.0428 -0.5855 -0.5471
 3421SOL    HW110857   2.977   2.157   5.794  1.0502  0.3580  0.6863
 3421SOL    HW210858   2.995   2.016   5.744 -0.5315  1.4838 -3.2693
 3422SOL     OW10859   6.627   2.807   6.685  0.4013  0.3619 -0.7423
 3422SOL    HW110860   6.657   2.873   6.623 -1.0652  1.5055 -0.2622
 3422SOL    HW210861   6.555   2.762   6.641  2.1086 -1.7309 -1.5171
 3423SOL     OW10862   6.695   6.482   2.195 -0.2172 -0.4254 -0.1513
 3423SOL    HW110863   6.652   6.396   2.203 -1.7154  0.3734  0.6954
 3423SOL    HW210864   6.672   6.511   2.106 -0.3975 -0.5465 -0.1465
 3424SOL     OW10865   0.340   7.238   6.970 -0.1408  0.3100  0.0363
 3424SOL    HW110866   0.387   7.157   6.992 -0.6887 -0.0847 -0.2570
 3424SOL    HW210867   0.290   7.217   6.892 -0.6497  0.7987  0.2297
 3425SOL     OW10868   5.722   1.966   4.146  0.0903 -0.6838  0.0308
 3425SOL    HW110869   5.642   1.971   4.094  1.2562  0.3197 -1.6967
 3425SOL    HW210870   5.720   2.043   4.203  0.2188 -0.2212 -0.5900
 3426SOL     OW10871   4.786   1.520   5.021  0.7221 -0.0084  0.2226
 3426SOL    HW110872   4.691   1.507   5.023  0.8292 -1.1057 -1.1260
 3426SOL    HW210873   4.815   1.501   5.110 -0.3010  0.1633  0.5945
 3427SOL     OW10874   5.164   6.240   4.705 -0.0939  0.0209 -0.0626
 3427SOL    HW110875   5.215   6.314   4.739  0.2868 -0.5241  0.5676
 3427SOL    HW210876   5.088   6.280   4.663 -0.3589  0.7357  1.0776
 3428SOL     OW10877   3.202   3.286   1.313  0.3155  0.4244  0.3861
 3428SOL    HW110878   3.134   3.342   1.276  1.3795  0.7120 -1.2038
 3428SOL    HW210879   3.264   3.348   1.353 -0.2545  0.1743  1.6839
 3429SOL     OW10880   4.970   6.304   4.274 -1.0107  0.1352 -0.2704
 3429SOL    HW110881   4.956   6.237   4.206 -2.0163 -0.4848  0.5229
 3429SOL    HW210882   4.958   6.387   4.229  0.5197 -0.1883 -1.3358
 3430SOL     OW10883   2.621   1.270   5.513 -0.3180 -0.2639 -0.3439
 3430SOL    HW110884   2.552   1.210   5.541  0.8470 -1.6895 -0.5008
 3430SOL    HW210885   2.588   1.309   5.431 -1.2495 -0.3738 -0.0181
 3431SOL     OW10886   1.922   2.018   6.938  0.5800 -0.0393 -0.1544
 3431SOL    HW110887   1.886   2.101   6.968  1.8813 -0.4310  2.6193
 3431SOL    HW210888   1.845   1.964   6.918 -0.3569  0.3142  2.3677
 3432SOL     OW10889   5.862   1.790   6.785 -0.0668  0.3271  0.2458
 3432SOL    HW110890   5.808   1.740   6.846 -1.7578  2.1571  0.3090
 3432SOL    HW210891   5.949   1.789   6.825 -1.1074  1.3550  2.6599
 3433SOL     OW10892   5.984   4.458   1.104 -0.6236 -0.3264 -0.2708
 3433SOL    HW110893   6.046   4.448   1.176  0.1516 -0.3688 -0.9352
 3433SOL    HW210894   6.026   4.521   1.045 -1.6477  0.3818 -0.2577
 3434SOL     OW10895   5.560   6.417   6.504 -0.0356 -0.2053  0.5638
 3434SOL    HW110896   5.523   6.425   6.416 -0.2982  0.9689  0.7715
 3434SOL    HW210897   5.510   6.347   6.544 -0.3470 -0.3197 -0.0128
 3435SOL     OW10898   0.371   5.888   5.945 -0.5018 -0.6017  0.0618
 3435SOL    HW110899   0.319   5.826   5.893  0.1344  0.0682 -1.4216
 3435SOL    HW210900   0.437   5.833   5.987 -1.9119 -1.3506  1.3452
 3436SOL     OW10901   2.964   7.009   0.317  0.2282  0.3486  0.0636
 3436SOL    HW110902   2.889   7.067   0.326  0.5115  0.7861 -0.3725
 3436SOL    HW210903   2.932   6.936   0.264 -0.3248 -0.2485  1.2064
 3437SOL     OW10904   6.023   1.664   1.654  0.3261  0.3480 -0.0831
 3437SOL    HW110905   6.094   1.720   1.684  0.4817  0.5851 -0.8885
 3437SOL    HW210906   5.948   1.690   1.707  0.5499  0.8874 -0.0305
 3438SOL     OW10907   1.064   4.738   1.190  0.2797 -0.6190  0.0418
 3438SOL    HW110908   1.153   4.745   1.155  0.5337  0.8896  0.9677
 3438SOL    HW210909   1.075   4.747   1.285 -1.4026  5.3841 -0.1913
 3439SOL     OW10910   0.553   2.720   5.437  0.0868 -0.0852 -0.6979
 3439SOL    HW110911   0.611   2.681   5.371  1.1584  0.1213  0.0988
 3439SOL    HW210912   0.465   2.692   5.411  0.4402  0.3606 -2.4555
 3440SOL     OW10913   1.246   5.011   2.366 -0.1409  0.7009 -0.7719
 3440SOL    HW110914   1.271   5.061   2.444 -0.4885 -0.3238  0.0079
 3440SOL    HW210915   1.191   4.941   2.399  0.5187 -0.3287 -1.8309
 3441SOL     OW10916   2.950   3.975   3.338  0.3695 -0.3413 -0.2826
 3441SOL    HW110917   2.902   3.957   3.256 -1.9209 -2.2149  1.4013
 3441SOL    HW210918   3.023   3.913   3.336 -1.0745 -2.1091  0.1920
 3442SOL     OW10919   1.407   2.006   0.093 -0.5160  0.0086  0.1437
 3442SOL    HW110920   1.355   2.060   0.034  0.1349  2.7189  1.9677
 3442SOL    HW210921   1.486   2.057   0.110  1.8021 -3.1001 -0.8753
 3443SOL     OW10922   5.046   6.135   5.265  0.7781 -0.3612  0.2059
 3443SOL    HW110923   5.003   6.093   5.190  2.5460 -0.9264 -0.5178
 3443SOL    HW210924   5.037   6.229   5.248 -0.6427 -0.4496  0.3627
 3444SOL     OW10925   3.437   0.461   4.130 -0.0174 -0.1079 -0.0767
 3444SOL    HW110926   3.457   0.384   4.184  0.3159 -0.0965 -0.1812
 3444SOL    HW210927   3.510   0.466   4.068 -1.4797 -1.3867 -1.9581
 3445SOL     OW10928   4.726   6.595   7.026  0.3338  0.1385 -1.0331
 3445SOL    HW110929   4.668   6.633   6.960  0.6628  1.7090 -0.4655
 3445SOL    HW210930   4.693   6.629   7.109  2.0285  1.0410 -0.7009
 3446SOL     OW10931   2.958   0.354   2.359 -0.0284 -0.4258 -0.1459
 3446SOL    HW110932   2.910   0.305   2.292 -2.0407  1.7038 -0.3144
 3446SOL    HW210933   2.898   0.358   2.433  1.4650 -1.1335  1.1549
 3447SOL     OW10934   2.723   4.356   5.780  0.6705  0.2054  0.4830
 3447SOL    HW110935   2.754   4.378   5.692 -1.5575 -0.3893 -0.4866
 3447SOL    HW210936   2.778   4.282   5.807 -0.1218 -1.0849 -1.3617
 3448SOL     OW10937   1.583   4.604   6.502  0.2453 -0.1708 -0.3474
 3448SOL    HW110938   1.596   4.543   6.429  1.3917 -1.6370  1.0313
 3448SOL    HW210939   1.672   4.623   6.534 -0.2048  0.8998  0.2896
 3449SOL     OW10940   0.348   5.741   4.025  0.2453  0.0892  0.4314
 3449SOL    HW110941   0.364   5.755   4.118 -1.0000 -0.8885  0.8032
 3449SOL    HW210942   0.257   5.712   4.020 -0.0864  1.3399 -1.2229
 3450SOL     OW10943   3.803   6.084   4.317  0.1660  0.4538  0.5702
 3450SOL    HW110944   3.794   6.057   4.408  0.0433  1.4293  0.8443
 3450SOL    HW210945   3.886   6.044   4.289 -0.8689 -1.6908  0.4356
 3451SOL     OW10946   5.325   7.160   6.421 -0.0564 -0.0442 -0.0347
 3451SOL    HW110947   5.266   7.205   6.481 -0.2969  1.5617 -1.4545
 3451SOL    HW210948   5.405   7.211   6.423  0.9465 -1.6233  1.0799
 3452SOL     OW10949   7.200   6.408   6.295  0.5662  0.1521  0.0769
 3452SOL    HW110950   7.174   6.371   6.211  0.9144 -1.0793  0.4922
 3452SOL    HW210951   7.118   6.439   6.334  0.0151 -1.5422  0.3452
 3453SOL     OW10952   3.858   3.278   0.404 -0.1533 -0.0829  0.0648
 3453SOL    HW110953   3.930   3.223   0.372  0.5203  1.7987 -1.7988
 3453SOL    HW210954   3.780   3.243   0.362  0.1231 -0.2672 -0.2980
 3454SOL     OW10955   4.369   0.106   0.493 -0.2761 -0.1172  0.4100
 3454SOL    HW110956   4.381   0.016   0.461  0.8292  0.7724 -1.7623
 3454SOL    HW210957   4.281   0.129   0.465  0.0064  0.0028 -0.4022
 3455SOL     OW10958   4.430   1.306   5.578 -0.1877 -0.1030  0.7901
 3455SOL    HW110959   4.447   1.390   5.619 -2.0173  0.6989 -0.0211
 3455SOL    HW210960   4.347   1.277   5.616  0.9583 -2.0696  1.8575
 3456SOL     OW10961   6.519   0.585   0.332  0.3540  0.4729 -0.5360
 3456SOL    HW110962   6.467   0.529   0.274 -1.3403 -0.6653  1.9869
 3456SOL    HW210963   6.469   0.667   0.336 -0.7491 -0.2654  1.0990
 3457SOL     OW10964   1.388   3.358   0.108  0.4246  0.0784 -0.2248
 3457SOL    HW110965   1.311   3.301   0.107 -0.3264  1.0822 -0.2979
 3457SOL    HW210966   1.409   3.369   0.201 -0.1522  0.6284 -0.1533
 3458SOL     OW10967   2.084   6.276   0.348 -0.7088 -0.6209 -0.1218
 3458SOL    HW110968   2.012   6.328   0.312 -0.5442 -2.8303 -3.8690
 3458SOL    HW210969   2.043   6.195   0.378 -0.2111 -0.5693  0.7198
 3459SOL     OW10970   3.051   2.721   6.684  0.7752 -0.2375 -0.5508
 3459SOL    HW110971   3.054   2.667   6.763  0.8190 -1.9008 -1.6532
 3459SOL    HW210972   3.096   2.802   6.708 -1.4177  0.3401  1.9012
 3460SOL     OW10973   1.832   0.272   4.982 -0.0064  0.0673 -0.0730
 3460SOL    HW110974   1.749   0.311   5.007  0.2341  1.0614 -0.7810
 3460SOL    HW210975   1.883   0.269   5.063 -0.3840  0.3421  0.1746
 3461SOL     OW10976   5.538   4.932   0.309  0.4248 -0.2763  0.1376
 3461SOL    HW110977   5.498   4.981   0.236  1.8222 -0.0733 -0.5083
 3461SOL    HW210978   5.632   4.946   0.298  0.7740 -2.1622  0.6381
 3462SOL     OW10979   0.735   1.145   4.101  0.3695 -0.0185 -0.6113
 3462SOL    HW110980   0.725   1.148   4.006 -1.2830 -0.4528 -0.4636
 3462SOL    HW210981   0.653   1.179   4.136  0.0081 -2.0752  0.6704
 3463SOL     OW10982   1.495   1.954   6.823  0.1701  0.2896  0.0760
 3463SOL    HW110983   1.427   2.021   6.818  0.5238  0.5843 -0.8128
 3463SOL    HW210984   1.468   1.887   6.760  0.4667  0.1905  0.0523
 3464SOL     OW10985   1.319   4.317   5.069 -0.3376 -0.1741  0.0012
 3464SOL    HW110986   1.267   4.244   5.103 -1.4717  0.8499  0.5201
 3464SOL    HW210987   1.317   4.383   5.139 -1.5116  1.3923 -1.4435
 3465SOL     OW10988   6.689   6.535   1.922  0.5271 -0.1026 -0.2450
 3465SOL    HW110989   6.642   6.575   1.850 -2.9687 -1.6314  1.0567
 3465SOL    HW210990   6.774   6.578   1.922 -0.2823  1.7003 -3.6661
 3466SOL     OW10991   5.202   4.857   5.777  0.4952  0.1059  0.3082
 3466SOL    HW110992   5.180   4.925   5.840  2.1609  0.8763  0.0801
 3466SOL    HW210993   5.269   4.804   5.821  2.4018  1.2413 -1.1457
 3467SOL     OW10994   7.184   4.453   5.385  0.1460 -0.5223  0.0439
 3467SOL    HW110995   7.198   4.371   5.431 -1.5728 -1.0495 -0.3699
 3467SOL    HW210996   7.097   4.482   5.412 -0.1724  0.0249 -1.5393
 3468SOL     OW10997   5.104   6.367   2.865 -0.2529  0.1540 -0.2104
 3468SOL    HW110998   5.164   6.343   2.935 -0.6905  0.1102  0.1516
 3468SOL    HW210999   5.022   6.391   2.910  0.1079  2.1374 -0.5547
 3469SOL     OW11000   1.860   4.062   5.851  0.1182  0.5595  0.2082
 3469SOL    HW111001   1.786   4.003   5.863 -1.7688  2.8000  0.0495
 3469SOL    HW211002   1.834   4.119   5.778  1.5628  2.0181  0.7881
 3470SOL     OW11003   6.938   4.298   5.241  0.4778 -0.1817  0.2062
 3470SOL    HW111004   6.939   4.357   5.316  2.1470 -1.0925  0.9096
 3470SOL    HW211005   6.911   4.354   5.168 -1.5349  0.6208  1.5021
 3471SOL     OW11006   7.045   6.965   3.026 -0.8987  0.3239 -0.3276
 3471SOL    HW111007   7.087   6.890   2.984 -0.6507  1.7735 -2.7464
 3471SOL    HW211008   7.044   7.033   2.959 -1.0502  2.5308  1.8413
 3472SOL     OW11009   5.392   4.955   5.193  0.1608  0.1326  0.0672
 3472SOL    HW111010   5.471   4.910   5.163 -0.4710 -1.5478  0.8449
 3472SOL    HW211011   5.343   4.974   5.113  0.5830 -0.3063 -0.2981
 3473SOL     OW11012   0.721   4.655   6.078  0.6612  0.3444  0.5998
 3473SOL    HW111013   0.736   4.744   6.046  0.7070 -0.6327 -2.2605
 3473SOL    HW211014   0.626   4.647   6.085  0.6311  0.4043  0.2475
 3474SOL     OW11015   3.002   3.580   2.323 -0.1353 -0.3605  0.1536
 3474SOL    HW111016   3.055   3.595   2.401  0.0089  0.2576 -0.0579
 3474SOL    HW211017   2.941   3.511   2.348  0.8904 -1.2042  0.3346
 3475SOL     OW11018   0.563   0.826   1.244  0.1084 -0.3368 -0.2342
 3475SOL    HW111019   0.650   0.827   1.283 -0.2864  0.4500  0.6389
 3475SOL    HW211020   0.567   0.889   1.172 -0.4503  1.6004  1.3941
 3476SOL     OW11021   2.501   5.611   0.308 -0.1752  0.3257  0.1480
 3476SOL    HW111022   2.484   5.518   0.321 -0.9797  0.4068 -0.3455
 3476SOL    HW211023   2.418   5.654   0.325 -0.7497  0.6390 -3.0491
 3477SOL     OW11024   0.393   3.682   6.057 -0.2313  0.3375 -0.0734
 3477SOL    HW111025   0.301   3.709   6.064 -0.6209 -0.7805 -0.6789
 3477SOL    HW211026   0.405   3.660   5.965  0.6132  0.3720  0.0251
 3478SOL     OW11027   5.047   2.030   6.976  0.4727 -0.4194  0.1157
 3478SOL    HW111028   5.029   2.047   7.069 -0.8608  1.6860 -0.4844
 3478SOL    HW211029   5.107   2.100   6.951  0.0531 -0.3936 -0.8357
 3479SOL     OW11030   5.808   2.109   5.663 -0.1821  0.9707  0.0434
 3479SOL    HW111031   5.783   2.036   5.606  0.3495  0.6758  0.1753
 3479SOL    HW211032   5.730   2.127   5.715 -0.4809  0.8400 -0.3560
 3480SOL     OW11033   0.105   6.754   5.751 -0.2222  0.3858 -0.4126
 3480SOL    HW111034   0.113   6.775   5.658 -1.5394 -0.9727 -0.8506
 3480SOL    HW211035   0.013   6.774   5.773 -0.6372 -1.7750 -0.0652
 3481SOL     OW11036   0.099   0.598   6.169  0.5321 -0.0087  0.3617
 3481SOL    HW111037   0.053   0.517   6.148  0.4218 -0.2277  1.4205
 3481SOL    HW211038   0.044   0.641   6.234  0.0876  1.4037 -0.9076
 3482SOL     OW11039   2.250   3.184   7.235  0.3813  0.1842 -0.1195
 3482SOL    HW111040   2.243   3.210   7.327 -1.9108  1.5739 -0.6400
 3482SOL    HW211041   2.184   3.115   7.224  0.7951 -0.1288 -0.6788
 3483SOL     OW11042   0.647   2.130   0.072 -0.2425  0.3164 -0.4575
 3483SOL    HW111043   0.558   2.096   0.072 -0.8275  1.7907  0.2404
 3483SOL    HW211044   0.641   2.214   0.118  1.2537  1.0951 -1.6143
 3484SOL     OW11045   0.576   6.551   7.258 -0.1981 -0.0154 -0.1178
 3484SOL    HW111046   0.503   6.585   7.206 -0.0775 -0.3615 -0.5182
 3484SOL    HW211047   0.536   6.490   7.319 -0.2029 -0.4657 -0.5687
 3485SOL     OW11048   3.417   3.422   1.474 -0.3295 -0.0113  0.2740
 3485SOL    HW111049   3.446   3.364   1.403  1.2385  0.3669  0.5700
 3485SOL    HW211050   3.491   3.425   1.534 -0.3585  2.2815  0.2612
 3486SOL     OW11051   6.925   4.400   1.741 -0.6803  0.3462  0.5507
 3486SOL    HW111052   6.951   4.419   1.651  1.8687 -0.7657  1.0171
 3486SOL    HW211053   6.925   4.305   1.747 -2.3742  0.3690  1.3283
 3487SOL     OW11054   4.722   3.906   1.929 -0.1308  0.0813 -0.3953
 3487SOL    HW111055   4.806   3.936   1.965  0.6927 -2.3427 -0.2325
 3487SOL    HW211056   4.685   3.851   1.997 -1.9908  1.2896 -0.3899
 3488SOL     OW11057   5.134   5.877   4.493 -0.3550  0.5276  0.1775
 3488SOL    HW111058   5.188   5.836   4.561 -0.7205 -1.0695 -0.4617
 3488SOL    HW211059   5.050   5.893   4.536 -1.0563 -1.7903 -0.2536
 3489SOL     OW11060   0.862   0.894   6.505  0.3356  0.6928  0.4832
 3489SOL    HW111061   0.874   0.841   6.584 -0.7166 -1.3431 -0.6678
 3489SOL    HW211062   0.771   0.922   6.508 -0.3952 -1.3887 -1.1555
 3490SOL     OW11063   0.590   6.763   0.267  0.0087 -0.6803  0.4829
 3490SOL    HW111064   0.685   6.762   0.258  0.1995 -0.9272  2.4161
 3490SOL    HW211065   0.571   6.694   0.331 -1.3803  0.0518  0.8769
 3491SOL     OW11066   5.676   5.890   3.244 -0.4221 -0.2509  0.1572
 3491SOL    HW111067   5.673   5.978   3.205  1.0685  0.2803  1.1894
 3491SOL    HW211068   5.594   5.849   3.218  0.0832  0.4543 -2.6670
 3492SOL     OW11069   2.756   0.064   3.435  1.0469 -0.3683  0.2467
 3492SOL    HW111070   2.711   0.084   3.353  0.9897  0.4121  0.4642
 3492SOL    HW211071   2.686   0.061   3.500  1.4188  2.0483  0.8042
 3493SOL     OW11072   6.695   2.891   5.667  0.4992  0.0833 -0.4371
 3493SOL    HW111073   6.680   2.822   5.732  2.9076  0.9429  1.1264
 3493SOL    HW211074   6.689   2.847   5.583 -2.2964 -1.1566  0.3372
 3494SOL     OW11075   5.670   5.134   6.852  0.1173 -0.5429  0.3965
 3494SOL    HW111076   5.587   5.142   6.899  0.2675  1.3467  0.3552
 3494SOL    HW211077   5.726   5.085   6.912  0.0451  1.1311  1.8654
 3495SOL     OW11078   0.729   1.156   5.982 -0.0202  0.9418 -0.0871
 3495SOL    HW111079   0.789   1.209   5.929  1.9186  0.5846  1.6791
 3495SOL    HW211080   0.785   1.115   6.048 -1.4713 -3.2366 -1.2969
 3496SOL     OW11081   5.804   2.040   6.930  0.2012 -0.2771  0.0308
 3496SOL    HW111082   5.750   2.088   6.867  1.2591  1.1062  0.1461
 3496SOL    HW211083   5.844   1.970   6.880 -0.7094 -0.5383 -0.3354
 3497SOL     OW11084   1.439   6.031   1.957  0.4728 -0.4709  0.5158
 3497SOL    HW111085   1.416   6.057   1.868  1.6154 -1.1053  0.0158
 3497SOL    HW211086   1.370   6.067   2.012  0.2170  0.6688 -0.5361
 3498SOL     OW11087   1.681   6.795   1.086  0.1829  0.2947 -0.1404
 3498SOL    HW111088   1.639   6.777   1.171 -0.2849 -2.1174 -0.8464
 3498SOL    HW211089   1.609   6.824   1.030  0.2214  0.4165 -0.1258
 3499SOL     OW11090   5.784   6.704   5.570  0.2390  0.4593  0.1595
 3499SOL    HW111091   5.702   6.663   5.599  0.6035  0.5984  1.4156
 3499SOL    HW211092   5.777   6.795   5.602  0.2412  0.8739 -1.0064
 3500SOL     OW11093   4.635   1.346   6.051 -0.3877 -0.2318 -0.9611
 3500SOL    HW111094   4.657   1.411   6.118  0.6221 -1.6091  0.0606
 3500SOL    HW211095   4.563   1.296   6.089  0.8937 -1.7112 -0.4260
 3501SOL     OW11096   6.207   3.504   4.168 -0.4255  0.2823  0.6080
 3501SOL    HW111097   6.149   3.429   4.155  1.5874 -1.5807  2.0602
 3501SOL    HW211098   6.236   3.527   4.079 -0.9325 -0.7475  0.1655
 3502SOL     OW11099   1.356   1.082   1.987 -0.1602 -0.4492 -0.4078
 3502SOL    HW111100   1.423   1.053   2.049 -0.5220 -0.8672 -0.2127
 3502SOL    HW211101   1.405   1.111   1.911  0.2755 -0.1942 -0.0337
 3503SOL     OW11102   7.066   2.469   6.815  0.5895  0.2265 -0.6828
 3503SOL    HW111103   6.991   2.492   6.760  0.3718 -0.6397 -0.7537
 3503SOL    HW211104   7.135   2.530   6.788 -0.5707  2.1242  0.5153
 3504SOL     OW11105   6.507   2.340   4.039  0.1516  0.2968 -0.3714
 3504SOL    HW111106   6.592   2.384   4.046  1.3970 -2.0263 -0.5429
 3504SOL    HW211107   6.449   2.392   4.095  1.9970  1.1781  0.7791
 3505SOL     OW11108   4.263   5.027   5.881  0.4339 -0.7078  0.9549
 3505SOL    HW111109   4.314   5.087   5.936  1.2336 -1.2682  0.8396
 3505SOL    HW211110   4.302   5.035   5.794 -0.8163  0.1562  0.4671
 3506SOL     OW11111   0.420   2.401   1.577 -0.0826  0.6302 -0.6029
 3506SOL    HW111112   0.475   2.480   1.577  0.7883  0.0264 -2.2193
 3506SOL    HW211113   0.472   2.335   1.623 -0.3482  0.6484 -0.2661
 3507SOL     OW11114   2.413   3.321   5.421 -0.2066  0.1946 -0.9250
 3507SOL    HW111115   2.389   3.239   5.463 -0.9044 -0.1256 -1.9186
 3507SOL    HW211116   2.373   3.389   5.476  1.0302 -0.0657  0.3380
 3508SOL     OW11117   6.733   2.082   3.762  0.4135 -0.4468 -0.3070
 3508SOL    HW111118   6.656   2.139   3.766 -1.3877 -2.8245  0.2009
 3508SOL    HW211119   6.762   2.087   3.671 -0.4411  0.3755 -0.5393
 3509SOL     OW11120   2.622   1.049   2.236  0.2554  0.5283  0.5430
 3509SOL    HW111121   2.557   1.099   2.286  0.7962  0.7129  1.0709
 3509SOL    HW211122   2.693   1.111   2.221  0.4386  0.2424  0.2113
 3510SOL     OW11123   4.706   6.159   3.499 -1.0563  0.0890 -0.6216
 3510SOL    HW111124   4.722   6.100   3.572  3.8089  2.3281  0.3240
 3510SOL    HW211125   4.728   6.107   3.421 -2.4463 -1.0916 -0.2468
 3511SOL     OW11126   1.774   2.236   4.786  0.2264 -0.4795  0.2200
 3511SOL    HW111127   1.850   2.241   4.727  0.8527  0.2011  1.0668
 3511SOL    HW211128   1.699   2.253   4.730  0.9598  1.9001 -0.0753
 3512SOL     OW11129   2.702   3.223   0.468  0.5982  0.3447  0.5469
 3512SOL    HW111130   2.661   3.139   0.449  0.4691  0.5403 -0.0380
 3512SOL    HW211131   2.639   3.288   0.437  0.7141  0.6581  0.9599
 3513SOL     OW11132   1.146   2.453   5.287 -0.0893 -0.1971 -0.1973
 3513SOL    HW111133   1.139   2.426   5.379  2.5970 -0.2876  0.0392
 3513SOL    HW211134   1.239   2.440   5.266 -0.6599 -0.1369 -2.9228
 3514SOL     OW11135   0.061   1.483   0.555 -0.2500 -0.0105  0.9630
 3514SOL    HW111136  -0.010   1.422   0.577 -1.5300  0.8748 -0.5536
 3514SOL    HW211137   0.096   1.511   0.640 -3.1858  1.2164  1.8360
 3515SOL     OW11138   0.173   2.017   5.991 -0.1883  0.4191 -0.6714
 3515SOL    HW111139   0.087   2.029   5.951 -0.7688  0.2830  0.5183
 3515SOL    HW211140   0.196   2.103   6.025 -0.8529 -0.0209  0.9501
 3516SOL     OW11141   2.350   2.707   5.485 -0.0833  0.4086  0.4947
 3516SOL    HW111142   2.260   2.679   5.471 -0.0037  1.1523 -1.6130
 3516SOL    HW211143   2.363   2.698   5.580 -2.1327 -0.3610  0.7307
 3517SOL     OW11144   6.800   1.407   0.459  0.3576  0.3949 -0.2073
 3517SOL    HW111145   6.863   1.467   0.499  0.5975  0.5862 -0.8703
 3517SOL    HW211146   6.846   1.323   0.456  0.5276  0.5022 -0.5643
 3518SOL     OW11147   6.704   1.779   5.736  0.1356  0.4947  1.2574
 3518SOL    HW111148   6.700   1.724   5.814  1.0924 -0.9407  0.3174
 3518SOL    HW211149   6.798   1.794   5.723 -0.0407  0.9825  0.5543
 3519SOL     OW11150   0.561   1.701   4.152 -0.4173 -0.1664  0.8480
 3519SOL    HW111151   0.591   1.691   4.062 -1.2836  1.9726  0.2921
 3519SOL    HW211152   0.605   1.631   4.200  1.1808 -0.4332 -0.9642
 3520SOL     OW11153   0.322   3.995   0.977  0.0909 -0.1339  0.0792
 3520SOL    HW111154   0.313   3.930   1.047 -1.4381  1.2067  1.1753
 3520SOL    HW211155   0.296   4.078   1.018  1.4561  1.0828 -1.4421
 3521SOL     OW11156   1.098   6.576   6.705  0.5892 -0.2651 -0.2828
 3521SOL    HW111157   1.173   6.636   6.702 -0.7338  1.4686  0.6073
 3521SOL    HW211158   1.135   6.491   6.683  3.1337  0.2738  1.6340
 3522SOL     OW11159   3.119   5.086   4.628  0.1709  0.6714 -0.4521
 3522SOL    HW111160   3.130   5.158   4.566 -0.8050  0.6534 -0.6623
 3522SOL    HW211161   3.044   5.113   4.683  0.6528  0.4295  0.3386
 3523SOL     OW11162   1.406   3.257   0.905 -0.0390 -0.1346  0.2117
 3523SOL    HW111163   1.335   3.194   0.916 -2.6624  2.3693 -1.2691
 3523SOL    HW211164   1.427   3.286   0.994 -0.6988 -1.1281  0.6949
 3524SOL     OW11165   1.885   0.274   5.731  0.0097  0.2731  0.0081
 3524SOL    HW111166   1.892   0.187   5.768  1.3699  0.4525  0.2140
 3524SOL    HW211167   1.906   0.333   5.804 -0.7028  0.7662 -0.1773
 3525SOL     OW11168   2.789   4.145   4.065 -0.0741 -0.4716  0.4781
 3525SOL    HW111169   2.787   4.197   3.984  2.1452 -1.2378 -0.1068
 3525SOL    HW211170   2.879   4.155   4.097 -0.1770 -2.3715  1.4051
 3526SOL     OW11171   5.148   2.682   5.613 -0.3494  0.1372 -0.4584
 3526SOL    HW111172   5.241   2.676   5.592 -0.2978  0.3014 -0.2859
 3526SOL    HW211173   5.108   2.607   5.569  0.0052 -0.4597  0.2100
 3527SOL     OW11174   0.733   5.818   4.858 -0.3993  0.2029 -0.1207
 3527SOL    HW111175   0.774   5.751   4.803  1.3037  0.0273  1.3137
 3527SOL    HW211176   0.696   5.769   4.932 -0.6232  0.6816  0.0871
 3528SOL     OW11177   4.081   0.350   1.032  0.2598  0.0124  0.1613
 3528SOL    HW111178   4.112   0.436   1.060  0.4134  0.4457 -1.2975
 3528SOL    HW211179   4.109   0.290   1.101 -0.4635  1.2397  1.5311
 3529SOL     OW11180   6.012   4.279   4.034 -0.2345 -0.0234  0.0308
 3529SOL    HW111181   6.001   4.186   4.052 -2.9169  0.5061  1.4994
 3529SOL    HW211182   5.928   4.307   3.998  0.1259  2.0435  0.6966
 3530SOL     OW11183   7.208   4.476   4.988 -0.2293 -0.1462  0.0952
 3530SOL    HW111184   7.145   4.467   4.917  0.6565 -1.5108 -0.5497
 3530SOL    HW211185   7.249   4.562   4.974  0.2432 -0.5855 -1.3037
 3531SOL     OW11186   3.314   3.109   0.770  0.2241 -0.6963 -0.0131
 3531SOL    HW111187   3.326   3.204   0.763  1.0925 -0.8953 -1.2972
 3531SOL    HW211188   3.219   3.097   0.760  0.0957  0.0376  0.2562
 3532SOL     OW11189   6.019   0.513   3.981  0.2237 -0.1943 -0.2339
 3532SOL    HW111190   6.102   0.481   4.018  0.0614 -0.7370 -0.3288
 3532SOL    HW211191   6.044   0.561   3.903  0.6678  1.9122  1.1742
 3533SOL     OW11192   2.215   2.446   2.123  0.6627 -0.4612 -0.2204
 3533SOL    HW111193   2.203   2.475   2.032 -0.3339  0.6561  0.2515
 3533SOL    HW211194   2.194   2.352   2.121  1.3468 -0.6050 -1.2684
 3534SOL     OW11195   2.153   1.583   4.342  0.5471  0.1554  0.4297
 3534SOL    HW111196   2.065   1.612   4.366  0.7636 -0.6000  2.1719
 3534SOL    HW211197   2.200   1.664   4.320 -0.7745  0.4942 -1.1905
 3535SOL     OW11198   1.206   0.727   3.140 -0.1462 -0.1990 -0.1309
 3535SOL    HW111199   1.191   0.797   3.077 -2.7801 -0.2002  0.4559
 3535SOL    HW211200   1.172   0.649   3.098  1.6510 -0.9415 -0.2726
 3536SOL     OW11201   1.485   0.125   1.067  0.1519 -0.2946  0.2707
 3536SOL    HW111202   1.468   0.032   1.076 -1.5382  0.1794  2.5142
 3536SOL    HW211203   1.565   0.130   1.015 -0.1237 -2.9530 -0.4909
 3537SOL     OW11204   0.757   2.065   1.235 -0.6856 -0.0017  0.0165
 3537SOL    HW111205   0.706   2.003   1.287  2.0354 -2.1972  0.2320
 3537SOL    HW211206   0.745   2.036   1.145 -1.0066  0.3979 -0.0696
 3538SOL     OW11207   1.097   4.504   4.274 -0.5943  0.4890 -0.2127
 3538SOL    HW111208   1.052   4.428   4.237  0.0586 -0.0754  0.1452
 3538SOL    HW211209   1.184   4.503   4.232  0.3279 -0.4299  1.6883
 3539SOL     OW11210   3.431   0.545   3.588 -0.3710 -0.3751  0.3695
 3539SOL    HW111211   3.491   0.471   3.579  1.3136  1.0585 -0.5889
 3539SOL    HW211212   3.474   0.603   3.651 -1.6863 -0.2231  1.1320
 3540SOL     OW11213   5.793   1.749   1.794  0.1665 -0.3565 -0.0405
 3540SOL    HW111214   5.730   1.723   1.861 -0.2172  1.6528  0.4103
 3540SOL    HW211215   5.742   1.751   1.713 -0.1595  0.4228  0.1780
 3541SOL     OW11216   3.949   4.488   4.240  0.4189 -0.4917  0.3101
 3541SOL    HW111217   4.014   4.422   4.263 -0.0768 -0.7562  0.9619
 3541SOL    HW211218   3.964   4.558   4.304  0.4119 -0.3209  0.1237
 3542SOL     OW11219   2.893   4.419   2.836  0.3000  1.0692  0.0435
 3542SOL    HW111220   2.872   4.445   2.925 -0.1209  2.3266 -0.4130
 3542SOL    HW211221   2.852   4.486   2.781 -1.6214 -1.0487 -1.1962
 3543SOL     OW11222   2.239   6.509   6.371  0.9995  0.3605 -0.0955
 3543SOL    HW111223   2.188   6.554   6.304  0.0443 -0.6817 -0.0836
 3543SOL    HW211224   2.330   6.518   6.342  0.4951 -1.3551 -2.3455
 3544SOL     OW11225   5.124   7.206   1.194 -1.0219 -0.4962 -0.2189
 3544SOL    HW111226   5.208   7.161   1.185 -0.9540 -0.4183  0.0125
 3544SOL    HW211227   5.088   7.172   1.276 -0.1082  1.2599  0.9421
 3545SOL     OW11228   2.228   3.703   1.569 -0.1543  0.1175 -0.2368
 3545SOL    HW111229   2.258   3.785   1.607 -0.2156  0.5066 -1.0348
 3545SOL    HW211230   2.263   3.636   1.628  0.6048  0.6684 -0.0522
 3546SOL     OW11231   6.337   3.814   0.547  0.7134  0.1767  0.1627
 3546SOL    HW111232   6.339   3.776   0.635 -0.3178  0.2517  0.2281
 3546SOL    HW211233   6.331   3.738   0.489 -0.1272  0.1861  0.2339
 3547SOL     OW11234   1.537   3.711   0.075  0.2534 -0.1585  0.0151
 3547SOL    HW111235   1.448   3.684   0.052  0.7439  0.8284 -3.3272
 3547SOL    HW211236   1.592   3.637   0.049  0.5446 -0.1545  0.6290
 3548SOL     OW11237   0.887   1.057   6.249  0.2877 -0.0748  0.4936
 3548SOL    HW111238   0.855   1.108   6.324 -1.6308 -0.0579 -0.2995
 3548SOL    HW211239   0.856   0.968   6.267 -1.2075  0.1589 -0.8276
 3549SOL     OW11240   1.405   5.074   4.431 -0.3808 -0.1564 -0.1214
 3549SOL    HW111241   1.458   5.076   4.510  0.6506  0.7250 -0.8208
 3549SOL    HW211242   1.352   5.153   4.435  0.2704  0.3130 -0.7105
 3550SOL     OW11243   1.928   6.148   6.231 -0.4761  0.0226  0.4041
 3550SOL    HW111244   2.010   6.179   6.193  0.7240 -2.0629  1.2454
 3550SOL    HW211245   1.923   6.191   6.316 -0.7178  0.8280 -0.0071
 3551SOL     OW11246   4.260   2.631   5.503 -0.5029 -0.0643 -0.3143
 3551SOL    HW111247   4.336   2.638   5.560 -0.7635 -0.1462  0.0432
 3551SOL    HW211248   4.292   2.580   5.428  0.0413  0.6920 -0.6038
 3552SOL     OW11249   6.408   7.026   2.869  0.2931  0.0425 -0.3089
 3552SOL    HW111250   6.409   7.073   2.785  0.7067  1.0047  0.2314
 3552SOL    HW211251   6.330   6.972   2.865 -0.1789  0.7618 -0.9560
 3553SOL     OW11252   2.758   2.339   2.648  0.0453 -0.3309  0.6503
 3553SOL    HW111253   2.815   2.397   2.698  0.5856 -0.0544 -0.2791
 3553SOL    HW211254   2.780   2.251   2.678  1.8353 -0.3113 -0.6092
 3554SOL     OW11255   5.448   3.647   6.236  0.1469  0.1307  0.4658
 3554SOL    HW111256   5.417   3.716   6.178  1.2090  1.8328  1.8842
 3554SOL    HW211257   5.449   3.687   6.323  1.5388 -1.4323  1.1987
 3555SOL     OW11258   6.520   2.413   4.635 -0.5095  0.4375  0.5840
 3555SOL    HW111259   6.494   2.490   4.686 -1.9589  1.0758 -1.0677
 3555SOL    HW211260   6.589   2.445   4.577 -0.2863  0.1894  0.7090
 3556SOL     OW11261   2.660   0.742   2.708  0.4120  0.3350 -0.1857
 3556SOL    HW111262   2.683   0.718   2.798 -1.5092  0.9691  0.4882
 3556SOL    HW211263   2.596   0.676   2.682  1.1208  0.0324 -1.1855
 3557SOL     OW11264   1.187   3.629   6.689 -0.1588  0.3452 -0.8324
 3557SOL    HW111265   1.183   3.711   6.738 -0.5100  1.9437 -3.4887
 3557SOL    HW211266   1.279   3.618   6.667 -0.4054  1.1907 -2.3584
 3558SOL     OW11267   3.590   6.372   2.754  0.3782 -0.0788  0.9148
 3558SOL    HW111268   3.599   6.430   2.678 -4.8596  1.8166  1.5412
 3558SOL    HW211269   3.618   6.426   2.828 -0.4701  0.1882  1.0370
 3559SOL     OW11270   4.389   4.292   1.971  0.1423 -0.2412  0.0706
 3559SOL    HW111271   4.452   4.351   2.012 -1.6290  1.1932  0.8478
 3559SOL    HW211272   4.424   4.204   1.986  1.7630  0.5096  0.7805
 3560SOL     OW11273   0.861   2.989   5.917  0.3023  0.0366  0.5359
 3560SOL    HW111274   0.820   2.914   5.874  1.9972  0.1403 -1.3036
 3560SOL    HW211275   0.851   3.061   5.855  1.5145  0.5403  0.9073
 3561SOL     OW11276   6.512   3.494   6.885 -0.3137  0.1849  0.0820
 3561SOL    HW111277   6.576   3.548   6.932  0.0299 -0.0657 -0.1005
 3561SOL    HW211278   6.481   3.551   6.814 -2.6572  1.4592  2.0512
 3562SOL     OW11279   5.338   6.257   4.367  0.4149  0.1497  0.6608
 3562SOL    HW111280   5.427   6.239   4.398  1.2137  3.2248  0.3534
 3562SOL    HW211281   5.350   6.287   4.277 -1.1149 -1.0476  0.0550
 3563SOL     OW11282   4.549   5.380   6.274 -0.4199  0.1101  0.2099
 3563SOL    HW111283   4.602   5.300   6.266  1.1156  1.0850  0.3466
 3563SOL    HW211284   4.575   5.433   6.199 -1.1348  0.6460  0.3409
 3564SOL     OW11285   3.610   1.756   1.908 -0.1572  0.0700  0.0357
 3564SOL    HW111286   3.669   1.808   1.963  1.2416  0.1610 -1.4873
 3564SOL    HW211287   3.652   1.670   1.904  1.2038  0.8215 -3.0298
 3565SOL     OW11288   0.258   3.947   1.461  0.5449  0.5899 -0.0481
 3565SOL    HW111289   0.208   4.019   1.498 -0.0488  0.2900 -0.2607
 3565SOL    HW211290   0.252   3.877   1.526  2.1554  1.1510  0.7217
 3566SOL     OW11291   7.128   2.515   4.235  0.0887 -0.2378 -0.2728
 3566SOL    HW111292   7.068   2.585   4.256  0.7136  1.5907 -4.0520
 3566SOL    HW211293   7.214   2.557   4.229  0.8786 -1.7849 -0.2227
 3567SOL     OW11294   3.779   4.228   6.877 -0.1654 -0.0821  0.3292
 3567SOL    HW111295   3.861   4.188   6.848 -1.0040 -1.0775 -0.7143
 3567SOL    HW211296   3.753   4.286   6.805 -1.8036 -1.8986 -0.5967
 3568SOL     OW11297   0.354   4.248   5.899 -0.2973 -0.3445  0.0181
 3568SOL    HW111298   0.439   4.224   5.935  1.0931  2.0163 -1.5551
 3568SOL    HW211299   0.309   4.293   5.971  0.4954 -0.0335  0.3276
 3569SOL     OW11300   0.059   7.215   3.480 -0.3245 -0.0055  0.3203
 3569SOL    HW111301   0.113   7.148   3.439 -0.1234  0.1385  0.3461
 3569SOL    HW211302   0.005   7.250   3.410 -0.9703 -0.7229  0.4629
 3570SOL     OW11303   3.857   2.078   1.962  0.3529  0.2381  0.6735
 3570SOL    HW111304   3.869   2.004   2.021 -0.1227  0.8432  1.5304
 3570SOL    HW211305   3.769   2.110   1.981 -0.5518 -0.7042 -1.6568
 3571SOL     OW11306   3.346   3.602   4.104  0.4427 -0.1500  0.3224
 3571SOL    HW111307   3.284   3.559   4.162  0.2724 -1.6265 -0.9389
 3571SOL    HW211308   3.432   3.582   4.142  0.3355 -1.1514  0.0331
 3572SOL     OW11309   0.054   5.041   0.251 -0.3395 -0.1707  0.3276
 3572SOL    HW111310   0.110   4.981   0.300 -0.6953 -0.4777  0.3687
 3572SOL    HW211311   0.088   5.038   0.162  0.1893  0.2401  0.5131
 3573SOL     OW11312   5.608   3.631   6.989  0.1879 -0.3681  0.5670
 3573SOL    HW111313   5.701   3.648   6.975 -0.1174 -1.5532 -3.4623
 3573SOL    HW211314   5.606   3.543   7.028  0.7410 -0.2602  0.8457
 3574SOL     OW11315   4.002   4.090   1.930 -0.0274 -0.3398  0.3915
 3574SOL    HW111316   3.951   4.151   1.984 -0.7850  1.1664 -1.9366
 3574SOL    HW211317   3.980   4.113   1.840  2.2218 -1.8931 -0.6201
 3575SOL     OW11318   1.131   1.267   5.051 -0.4900  0.0856  0.2167
 3575SOL    HW111319   1.077   1.324   4.996 -0.6875 -0.3508 -0.0439
 3575SOL    HW211320   1.220   1.298   5.038 -0.5655  0.1478 -0.1553
 3576SOL     OW11321   4.047   6.711   3.664 -0.3035 -0.1738 -0.1508
 3576SOL    HW111322   3.974   6.706   3.726 -1.2651 -0.5558 -1.2890
 3576SOL    HW211323   4.039   6.797   3.623  0.3234  0.0745  0.2451
 3577SOL     OW11324   0.202   5.982   5.562 -0.2469 -0.0285  0.5064
 3577SOL    HW111325   0.199   6.054   5.498  1.0474 -0.4208 -0.0010
 3577SOL    HW211326   0.216   5.904   5.509 -1.5442 -0.6616  1.0721
 3578SOL     OW11327   0.304   5.695   2.854 -0.4124  0.1875 -0.2489
 3578SOL    HW111328   0.273   5.698   2.945 -1.9987  2.1023 -0.8318
 3578SOL    HW211329   0.233   5.653   2.805  0.6460 -1.2991 -0.5620
 3579SOL     OW11330   7.161   5.839   1.972  0.0588  0.3407  0.1375
 3579SOL    HW111331   7.211   5.875   1.899  0.8587  0.9464  0.9714
 3579SOL    HW211332   7.082   5.893   1.975  0.1801  0.5327 -0.0742
 3580SOL     OW11333   4.232   1.822   4.563 -0.3039  0.5205  0.2200
 3580SOL    HW111334   4.238   1.909   4.601  0.5856  0.0954  1.0889
 3580SOL    HW211335   4.254   1.834   4.470 -1.2575  1.3769  0.1033
 3581SOL     OW11336   6.234   5.186   0.186  1.0488  0.5045 -0.0023
 3581SOL    HW111337   6.325   5.160   0.203  0.4243 -0.4143  2.0976
 3581SOL    HW211338   6.239   5.237   0.106  3.4213  0.3880  0.0173
 3582SOL     OW11339   0.024   0.156   6.657 -0.2282 -0.0267  0.2201
 3582SOL    HW111340   0.055   0.079   6.609  0.1029 -0.3285  0.9116
 3582SOL    HW211341  -0.034   0.121   6.724 -0.3146  0.3501  0.3438
 3583SOL     OW11342   6.934   5.269   3.828  0.6615  0.2077  0.6914
 3583SOL    HW111343   6.965   5.306   3.745 -0.4117 -1.0317 -0.2683
 3583SOL    HW211344   7.005   5.211   3.856  1.2630  1.0466  0.9327
 3584SOL     OW11345   1.932   5.010   5.366 -0.1795  0.5651  0.4061
 3584SOL    HW111346   1.905   5.078   5.427 -0.8552  0.5706  0.0976
 3584SOL    HW211347   1.954   5.057   5.286 -0.5609  0.4234  0.2210
 3585SOL     OW11348   3.650   6.908   1.879 -0.1246 -0.5547  0.3170
 3585SOL    HW111349   3.674   6.869   1.963 -1.0728  0.2789  0.9935
 3585SOL    HW211350   3.689   6.851   1.813  0.4149 -1.3558  1.3263
 3586SOL     OW11351   3.722   1.507   1.974  0.1702  0.4338 -0.4289
 3586SOL    HW111352   3.811   1.518   1.942  0.2287  1.5277  0.0933
 3586SOL    HW211353   3.730   1.445   2.046  0.4068  0.0035 -0.8243
 3587SOL     OW11354   0.982   2.069   3.708 -0.3479  0.6415 -0.7679
 3587SOL    HW111355   0.985   1.978   3.736  0.0637  0.7825 -0.3403
 3587SOL    HW211356   0.990   2.119   3.789  0.5746  1.0583 -1.1098
 3588SOL     OW11357   2.090   6.530   6.608  0.4617  0.5307 -0.0677
 3588SOL    HW111358   2.152   6.521   6.536 -0.9871 -2.2815 -1.0445
 3588SOL    HW211359   2.016   6.578   6.570  1.4669  2.8200  0.7696
 3589SOL     OW11360   0.237   1.393   4.987 -0.0040  0.2058 -0.0937
 3589SOL    HW111361   0.213   1.485   4.971 -0.6680  0.0127 -0.2496
 3589SOL    HW211362   0.190   1.344   4.920 -0.4087 -0.3367  0.5700
 3590SOL     OW11363   3.333   4.285   1.939 -0.0089 -0.5728  0.4021
 3590SOL    HW111364   3.339   4.376   1.909 -0.5641 -0.9746 -1.0020
 3590SOL    HW211365   3.265   4.246   1.883 -1.6852 -1.1633  2.7614
 3591SOL     OW11366   1.313   5.540   5.798  0.0207 -0.0412 -0.4261
 3591SOL    HW111367   1.279   5.528   5.709 -1.5804 -0.1791  0.1927
 3591SOL    HW211368   1.368   5.618   5.792 -0.0459 -0.0732 -1.5559
 3592SOL     OW11369   1.900   2.146   2.538  0.3706  0.3450 -0.2122
 3592SOL    HW111370   1.833   2.081   2.517  0.6903  0.2303 -0.9163
 3592SOL    HW211371   1.855   2.211   2.592  0.1128 -0.5915  0.7141
 3593SOL     OW11372   3.636   1.067   0.365  0.1910 -0.0432 -0.0157
 3593SOL    HW111373   3.563   1.067   0.303 -0.6915  1.2149  1.0132
 3593SOL    HW211374   3.643   1.158   0.394  1.1818 -0.4516  1.0653
 3594SOL     OW11375   1.976   1.396   3.604 -0.0345  0.0412  0.3046
 3594SOL    HW111376   2.006   1.436   3.523 -0.8227 -0.9389 -0.4783
 3594SOL    HW211377   2.056   1.368   3.649  0.3625 -0.0740 -0.4748
 3595SOL     OW11378   0.498   2.382   0.071 -0.4349  0.4851  0.1789
 3595SOL    HW111379   0.409   2.416   0.069 -0.6706 -0.1032  0.6419
 3595SOL    HW211380   0.552   2.458   0.096 -0.8273  0.7840  0.1152
 3596SOL     OW11381   1.323   1.803   5.508 -0.1544 -0.2841 -0.0444
 3596SOL    HW111382   1.357   1.758   5.431 -1.9415 -1.1665 -0.3408
 3596SOL    HW211383   1.384   1.781   5.578  1.7986  0.9913 -1.3143
 3597SOL     OW11384   3.313   2.773   2.094  0.3438 -0.1220 -0.6023
 3597SOL    HW111385   3.231   2.806   2.131  0.4037 -0.8746  0.2412
 3597SOL    HW211386   3.286   2.725   2.016  0.2637  1.9330 -1.8880
 3598SOL     OW11387   0.411   2.701   1.987 -0.5549  0.1276  0.3670
 3598SOL    HW111388   0.365   2.722   1.906 -0.4238 -0.9818  0.0046
 3598SOL    HW211389   0.410   2.783   2.037 -1.7677  0.4642 -0.1967
 3599SOL     OW11390   2.309   3.971   2.671  0.2301  0.0571  0.0450
 3599SOL    HW111391   2.244   4.033   2.639  2.4328  1.7614 -1.2875
 3599SOL    HW211392   2.333   3.919   2.594 -0.1407 -1.1193  0.7119
 3600SOL     OW11393   6.470   3.568   5.987 -0.0939 -0.1269 -0.6780
 3600SOL    HW111394   6.482   3.661   6.001  1.4618 -0.1741 -1.6143
 3600SOL    HW211395   6.553   3.528   6.015 -0.7853 -1.2455 -0.1585
 3601SOL     OW11396   5.315   6.034   0.961 -0.0971 -0.5179 -0.7390
 3601SOL    HW111397   5.291   6.107   1.018  1.0359 -0.6925 -0.0268
 3601SOL    HW211398   5.257   6.043   0.885 -1.8695 -0.4979  0.5930
 3602SOL     OW11399   3.205   6.933   4.665 -0.1119 -0.1452 -0.2773
 3602SOL    HW111400   3.131   6.879   4.694 -0.0845 -0.2337 -0.3715
 3602SOL    HW211401   3.242   6.885   4.590 -0.9649  0.7026 -1.2668
 3603SOL     OW11402   1.033   4.005   3.396 -0.6938 -0.0236 -0.3448
 3603SOL    HW111403   1.043   3.931   3.455  3.5893  0.1572 -0.6610
 3603SOL    HW211404   1.022   4.081   3.453  0.0469 -0.2685  0.1238
 3604SOL     OW11405   2.568   2.901   5.783 -0.0949  0.1069 -0.3010
 3604SOL    HW111406   2.638   2.864   5.837 -1.2508 -1.6022  0.0756
 3604SOL    HW211407   2.553   2.835   5.715  0.7079  1.8232 -2.1820
 3605SOL     OW11408   0.282   3.986   3.423 -0.2381 -0.0252 -0.0909
 3605SOL    HW111409   0.301   4.080   3.415 -1.5456  0.6291  3.5156
 3605SOL    HW211410   0.239   3.963   3.341  0.2445  2.4867 -1.0971
 3606SOL     OW11411   5.034   3.376   3.382  0.0600 -0.6171  0.4953
 3606SOL    HW111412   5.050   3.450   3.323 -0.8181  0.0622  1.0815
 3606SOL    HW211413   4.958   3.331   3.344 -0.1036 -0.5576  0.7511
 3607SOL     OW11414   2.274   5.129   1.450 -0.5520 -0.4832 -0.1235
 3607SOL    HW111415   2.284   5.219   1.419 -0.1136 -0.2493  0.6658
 3607SOL    HW211416   2.341   5.080   1.403  0.7610  0.0527  1.1498
 3608SOL     OW11417   5.500   1.404   4.213  0.3310  0.2929  0.6886
 3608SOL    HW111418   5.457   1.334   4.263 -1.0281  0.0860 -0.7264
 3608SOL    HW211419   5.542   1.359   4.140  0.5342  0.8100  0.4846
 3609SOL     OW11420   7.256   2.182   6.773  0.1285 -0.2946  0.4238
 3609SOL    HW111421   7.332   2.124   6.771  0.2173 -0.1601 -0.0960
 3609SOL    HW211422   7.290   2.268   6.748 -0.4450 -0.5201 -1.1658
 3610SOL     OW11423   5.733   0.849   0.287  0.4580  0.4384  0.6767
 3610SOL    HW111424   5.750   0.913   0.218 -2.2942 -0.1565 -0.6415
 3610SOL    HW211425   5.735   0.765   0.243 -0.1164 -0.0545  1.5759
 3611SOL     OW11426   5.599   5.741   5.329 -0.3827  0.0200 -0.4433
 3611SOL    HW111427   5.612   5.790   5.248 -2.0536  2.3221  0.6447
 3611SOL    HW211428   5.567   5.655   5.300  0.8762  0.1615 -2.2936
 3612SOL     OW11429   5.191   0.688   2.776 -0.4165 -0.0840 -0.1074
 3612SOL    HW111430   5.237   0.604   2.786  0.4497  0.4935  0.7971
 3612SOL    HW211431   5.250   0.742   2.725 -0.6147  0.2510  0.0162
 3613SOL     OW11432   2.416   2.345   3.300  0.0158 -0.0053 -0.3394
 3613SOL    HW111433   2.372   2.373   3.220 -1.4419  2.2790  1.1763
 3613SOL    HW211434   2.354   2.287   3.343  1.0833 -1.7952 -1.1742
 3614SOL     OW11435   6.225   1.058   2.136  0.0904 -0.5520  0.1337
 3614SOL    HW111436   6.307   1.090   2.174 -0.5969  1.7944 -0.2735
 3614SOL    HW211437   6.242   1.054   2.042 -0.5010  0.7092 -0.0320
 3615SOL     OW11438   1.795   1.596   4.089 -0.1987 -0.5725 -0.4359
 3615SOL    HW111439   1.775   1.683   4.121  0.0041 -1.0318  0.9846
 3615SOL    HW211440   1.787   1.602   3.994  0.5332  1.1646 -0.3959
 3616SOL     OW11441   3.327   3.042   1.349  0.1999  0.0469 -0.0233
 3616SOL    HW111442   3.255   2.984   1.323  0.5301  0.7324 -2.6219
 3616SOL    HW211443   3.289   3.130   1.347  0.6076  0.2366  0.5189
 3617SOL     OW11444   6.482   6.652   5.913 -0.0616 -0.1533 -0.6509
 3617SOL    HW111445   6.502   6.561   5.935  0.9614  0.0526 -0.7040
 3617SOL    HW211446   6.398   6.669   5.955  0.1827 -0.8485  0.1256
 3618SOL     OW11447   2.507   0.643   2.151  0.2528 -0.6596 -0.0674
 3618SOL    HW111448   2.438   0.658   2.215 -0.9096 -0.1012 -1.4098
 3618SOL    HW211449   2.587   0.635   2.202 -0.2785  2.2595  1.2895
 3619SOL     OW11450   5.442   1.609   3.312 -0.2157 -0.1011 -0.3578
 3619SOL    HW111451   5.347   1.620   3.315 -0.7034 -3.5259 -0.4393
 3619SOL    HW211452   5.467   1.591   3.403  0.3990  0.9691 -0.3047
 3620SOL     OW11453   0.396   2.806   4.775  0.1745  0.7720 -0.4950
 3620SOL    HW111454   0.321   2.859   4.799  1.0700  0.6566  2.7484
 3620SOL    HW211455   0.470   2.867   4.778  0.8150 -0.0453  0.5702
 3621SOL     OW11456   2.626   4.377   2.306  0.6181 -0.5669 -0.2915
 3621SOL    HW111457   2.709   4.421   2.288  0.2680 -0.2265 -1.1403
 3621SOL    HW211458   2.569   4.403   2.233  0.0118 -1.4191 -0.1324
 3622SOL     OW11459   1.478   1.933   2.110  0.8787 -0.5128  0.1290
 3622SOL    HW111460   1.463   1.843   2.140  0.2536 -0.2788  0.5240
 3622SOL    HW211461   1.558   1.959   2.154 -0.3463  0.0322  2.0890
 3623SOL     OW11462   7.142   2.050   5.555 -0.6458 -0.6256 -0.0772
 3623SOL    HW111463   7.199   2.050   5.479 -0.1095 -0.6379  0.3247
 3623SOL    HW211464   7.082   2.123   5.539 -1.1745 -1.2458 -0.9771
 3624SOL     OW11465   1.192   5.436   6.325 -0.0431 -0.2314  0.3388
 3624SOL    HW111466   1.221   5.469   6.240  1.0958 -0.2275  0.7184
 3624SOL    HW211467   1.117   5.490   6.348  0.6814  0.8892  0.1008
 3625SOL     OW11468   0.692   0.538   7.192 -0.5002  0.2092  0.1046
 3625SOL    HW111469   0.617   0.544   7.251 -0.1808 -1.7543  0.7441
 3625SOL    HW211470   0.658   0.495   7.114 -0.2407  0.0974  0.0520
 3626SOL     OW11471   1.645   2.636   0.102 -0.2737 -0.4434 -0.4617
 3626SOL    HW111472   1.656   2.730   0.092 -0.8192 -0.4472 -1.1145
 3626SOL    HW211473   1.584   2.611   0.033  0.5984 -1.4248 -0.8921
 3627SOL     OW11474   6.631   3.412   3.260  0.1277 -0.6759  0.1674
 3627SOL    HW111475   6.536   3.424   3.253  0.2759 -0.0373 -0.7929
 3627SOL    HW211476   6.644   3.380   3.350 -0.9005  0.1034  0.6067
 3628SOL     OW11477   6.129   6.393   3.735 -0.3523  0.2154  0.0316
 3628SOL    HW111478   6.215   6.415   3.701  0.3405  1.7831  2.6187
 3628SOL    HW211479   6.139   6.307   3.775  0.0877  0.4762  0.4884
 3629SOL     OW11480   5.990   4.725   3.993 -0.9464  0.2675  0.1024
 3629SOL    HW111481   6.044   4.793   3.953  0.1911  0.5981  2.0763
 3629SOL    HW211482   5.924   4.773   4.043 -1.4236 -0.1051 -0.1696
 3630SOL     OW11483   5.532   5.443   3.501  0.2055  0.2751 -0.1071
 3630SOL    HW111484   5.512   5.368   3.557  0.7834  0.6912  0.6518
 3630SOL    HW211485   5.446   5.476   3.475 -0.0581 -0.2775  0.0478
 3631SOL     OW11486   1.041   6.155   4.378 -0.3625 -0.2324 -0.1828
 3631SOL    HW111487   1.078   6.202   4.304  0.2580  0.6492  0.6799
 3631SOL    HW211488   1.105   6.086   4.396  0.3724  0.6634  0.6632
 3632SOL     OW11489   1.582   5.116   5.128  0.3112  0.5053  0.2529
 3632SOL    HW111490   1.521   5.126   5.055  1.4734  1.6832 -0.5710
 3632SOL    HW211491   1.599   5.205   5.158 -0.3478  0.0210  2.1448
 3633SOL     OW11492   0.289   0.802   4.867  0.3303  0.1637  0.7312
 3633SOL    HW111493   0.382   0.782   4.863  0.7554  2.3307 -1.2603
 3633SOL    HW211494   0.284   0.897   4.857 -2.1579 -0.0840 -1.0949
 3634SOL     OW11495   5.894   6.254   6.873 -0.1869  0.1655 -0.3080
 3634SOL    HW111496   5.853   6.189   6.815 -1.8357  0.3947  0.5621
 3634SOL    HW211497   5.873   6.223   6.961  0.6613  0.8578  0.1320
 3635SOL     OW11498   0.249   2.714   3.121  0.0617  0.2774 -0.4875
 3635SOL    HW111499   0.235   2.717   3.215 -0.0422  0.0182 -0.4929
 3635SOL    HW211500   0.341   2.736   3.109  0.6790 -2.0054 -0.1589
 3636SOL     OW11501   3.087   4.405   0.650  0.0761 -0.2293 -0.8348
 3636SOL    HW111502   3.063   4.326   0.698  2.4753  0.4655  1.6235
 3636SOL    HW211503   3.012   4.463   0.660 -0.3488 -0.9436  0.2038
 3637SOL     OW11504   4.441   4.582   5.234  0.0690 -0.2002  0.5438
 3637SOL    HW111505   4.418   4.644   5.165  0.4060  0.5272  1.0908
 3637SOL    HW211506   4.460   4.501   5.187  0.9238  0.4662 -0.2655
 3638SOL     OW11507   1.433   4.554   4.584 -0.1380  0.0878 -0.2114
 3638SOL    HW111508   1.447   4.540   4.678  0.2939 -0.8195 -0.4052
 3638SOL    HW211509   1.512   4.520   4.542 -0.4520  0.2266 -0.9284
 3639SOL     OW11510   2.118   3.840   2.826 -0.4572 -0.0016 -0.5152
 3639SOL    HW111511   2.172   3.901   2.777 -1.1685  0.0061 -1.3156
 3639SOL    HW211512   2.171   3.815   2.901 -0.2362  1.7205 -0.0908
 3640SOL     OW11513   4.691   4.637   0.884  0.3051 -0.9253  0.0879
 3640SOL    HW111514   4.662   4.546   0.892  0.1928 -0.8480  0.6262
 3640SOL    HW211515   4.686   4.671   0.974  0.5359 -0.4477 -0.0793
 3641SOL     OW11516   5.157   5.906   1.283 -0.0267  0.2311 -0.3127
 3641SOL    HW111517   5.251   5.923   1.285  0.2277 -0.4699 -3.4507
 3641SOL    HW211518   5.149   5.816   1.316  0.1053  1.1587  2.3585
 3642SOL     OW11519   5.824   6.279   3.585 -0.0968 -0.5725  0.0766
 3642SOL    HW111520   5.882   6.317   3.519  0.7849 -3.1484 -0.6502
 3642SOL    HW211521   5.771   6.215   3.537 -1.8347 -0.0489  1.2170
 3643SOL     OW11522   1.188   6.707   2.810  0.2307 -0.3215 -0.0881
 3643SOL    HW111523   1.148   6.680   2.893  0.5302 -1.9238 -0.4332
 3643SOL    HW211524   1.282   6.694   2.823  0.5154  1.8690  0.1711
 3644SOL     OW11525   1.694   0.334   2.549  0.0077 -0.1316 -0.4409
 3644SOL    HW111526   1.748   0.318   2.627 -1.7070 -2.2712  0.3728
 3644SOL    HW211527   1.623   0.389   2.580  0.5767  0.9343 -1.0294
 3645SOL     OW11528   6.451   5.155   0.352  0.1445 -0.2293 -0.0208
 3645SOL    HW111529   6.545   5.173   0.350  0.4029 -1.5899 -0.7087
 3645SOL    HW211530   6.429   5.150   0.445  0.8479 -0.3895  0.1394
 3646SOL     OW11531   2.415   4.052   3.899 -0.6450  0.1305  0.3361
 3646SOL    HW111532   2.404   4.124   3.836 -0.8145  0.2148  0.4602
 3646SOL    HW211533   2.494   4.006   3.870  0.4736  1.4136  1.2826
 3647SOL     OW11534   3.450   1.237   2.333 -0.2267  0.2662  0.3645
 3647SOL    HW111535   3.385   1.169   2.317 -1.3746  1.4836 -0.1712
 3647SOL    HW211536   3.484   1.217   2.421 -1.2354 -0.4206  0.6040
 3648SOL     OW11537   3.690   1.206   0.681  0.2115  0.0961 -0.3983
 3648SOL    HW111538   3.612   1.238   0.637  0.9900  1.3844 -0.8721
 3648SOL    HW211539   3.657   1.158   0.757 -1.0719 -0.3825 -1.2348
 3649SOL     OW11540   5.224   1.658   1.368  0.0216  0.1851  0.1598
 3649SOL    HW111541   5.314   1.690   1.371 -0.0959  0.5493 -0.1725
 3649SOL    HW211542   5.232   1.565   1.348  0.3524  0.0655  0.8426
 3650SOL     OW11543   0.734   4.419   1.770 -0.3641 -0.5517 -0.3494
 3650SOL    HW111544   0.729   4.357   1.698 -1.6977 -0.7833 -0.0756
 3650SOL    HW211545   0.788   4.375   1.836  0.6721 -0.4269 -1.1068
 3651SOL     OW11546   5.259   0.464   6.971 -0.3727 -0.0865 -0.2964
 3651SOL    HW111547   5.338   0.463   6.917 -0.1013  0.1425  0.0947
 3651SOL    HW211548   5.235   0.556   6.976 -0.1122 -0.0525  0.3851
 3652SOL     OW11549   1.307   0.893   2.966 -0.3364 -0.9707 -0.0169
 3652SOL    HW111550   1.218   0.894   2.931 -0.9559  2.3161  1.4765
 3652SOL    HW211551   1.357   0.949   2.906 -0.1460  0.1570  1.1644
 3653SOL     OW11552   2.097   3.565   7.081 -0.9158  0.2664 -0.7214
 3653SOL    HW111553   2.144   3.517   7.013 -0.4719 -0.6339  0.2024
 3653SOL    HW211554   2.029   3.613   7.034 -0.1019  0.2955 -1.8878
 3654SOL     OW11555   2.881   6.486   2.594 -0.5210 -0.1390  0.1925
 3654SOL    HW111556   2.862   6.426   2.667 -0.3610 -0.5002 -0.0590
 3654SOL    HW211557   2.971   6.464   2.569 -0.4224  0.2910  0.1777
 3655SOL     OW11558   5.178   0.872   1.304  0.4822  0.2910  0.1515
 3655SOL    HW111559   5.133   0.795   1.269  0.1259  1.1254 -1.2398
 3655SOL    HW211560   5.139   0.885   1.391  0.6854 -1.2059  0.4693
 3656SOL     OW11561   0.581   1.637   5.097  0.2456  0.0289  0.6905
 3656SOL    HW111562   0.610   1.707   5.156  0.4165 -0.1265  0.7903
 3656SOL    HW211563   0.583   1.677   5.010 -0.9668  0.5632  0.8955
 3657SOL     OW11564   1.829   1.468   4.965 -0.1195 -0.1843  0.1011
 3657SOL    HW111565   1.867   1.551   4.937 -0.5585  0.5283  1.5558
 3657SOL    HW211566   1.779   1.437   4.890  0.5498  0.5718 -0.6571
 3658SOL     OW11567   3.846   7.146   4.075 -0.0027  0.2032 -0.0149
 3658SOL    HW111568   3.815   7.227   4.034  0.3253  0.3974  0.1164
 3658SOL    HW211569   3.780   7.081   4.054  0.0100  0.3780 -0.5974
 3659SOL     OW11570   0.524   6.051   0.998 -0.1807  0.1892 -0.3700
 3659SOL    HW111571   0.591   6.094   1.051  1.7597 -3.1403  0.0268
 3659SOL    HW211572   0.477   5.995   1.060 -0.7111 -0.4545 -1.3426
 3660SOL     OW11573   6.903   6.704   0.502  0.0327  0.5246  0.4432
 3660SOL    HW111574   6.873   6.622   0.541 -0.1651  0.5225  0.2901
 3660SOL    HW211575   6.996   6.709   0.524  0.1012  0.1360  0.2389
 3661SOL     OW11576   2.430   5.572   1.668  0.1114 -0.2953 -0.1947
 3661SOL    HW111577   2.415   5.528   1.752  0.2995 -1.4038 -0.7214
 3661SOL    HW211578   2.525   5.574   1.659  0.1115  0.6816  0.0620
 3662SOL     OW11579   2.469   1.906   3.189  0.2005 -0.0951 -0.2786
 3662SOL    HW111580   2.505   1.835   3.136 -0.7400 -0.6184 -0.2364
 3662SOL    HW211581   2.476   1.984   3.134  1.6770 -0.1258 -0.1409
 3663SOL     OW11582   2.216   5.519   6.737  0.2291 -0.6416  0.0642
 3663SOL    HW111583   2.182   5.607   6.723  0.7589 -0.2473  1.2266
 3663SOL    HW211584   2.175   5.489   6.818  0.5740 -1.2050  0.0380
 3664SOL     OW11585   0.245   0.385   3.037 -0.1830  0.5305 -0.9017
 3664SOL    HW111586   0.276   0.466   2.997  0.5782 -0.1425 -1.6851
 3664SOL    HW211587   0.284   0.384   3.124 -2.1476  2.1867  0.0496
 3665SOL     OW11588   3.895   4.225   6.617 -0.3346  0.2402  0.2982
 3665SOL    HW111589   3.947   4.147   6.599 -0.3079  0.8354 -2.4329
 3665SOL    HW211590   3.817   4.215   6.562 -1.7752  0.7151  2.2115
 3666SOL     OW11591   6.904   5.939   4.009  0.1421  0.3381  0.2689
 3666SOL    HW111592   6.898   6.020   3.959 -0.0646  1.1569  1.6035
 3666SOL    HW211593   6.991   5.941   4.049  0.3907 -0.4159 -0.2249
 3667SOL     OW11594   5.698   3.087   3.844 -0.0261 -0.1211  0.3521
 3667SOL    HW111595   5.614   3.071   3.800  0.6158  1.3048 -1.4257
 3667SOL    HW211596   5.750   3.009   3.825 -1.6201 -1.9611  3.1988
 3668SOL     OW11597   4.746   3.586   2.027 -0.2721 -0.3846  0.9243
 3668SOL    HW111598   4.712   3.499   2.007  1.0836 -0.4528 -1.1999
 3668SOL    HW211599   4.771   3.582   2.119 -0.6838 -2.0685  0.9667
 3669SOL     OW11600   2.752   4.591   6.493  0.8706 -0.0961 -0.0815
 3669SOL    HW111601   2.844   4.601   6.516  1.0539  0.9298 -1.2090
 3669SOL    HW211602   2.710   4.669   6.527  0.6153 -0.0268 -0.5516
 3670SOL     OW11603   1.414   1.979   0.757 -0.2677  0.0211 -0.1027
 3670SOL    HW111604   1.336   1.998   0.705 -0.3556  0.4644  0.1883
 3670SOL    HW211605   1.381   1.952   0.842 -0.1278 -0.9126 -0.3357
 3671SOL     OW11606   3.289   4.894   6.704  0.1905  0.6258  0.3844
 3671SOL    HW111607   3.328   4.806   6.709  0.5429  0.6159 -2.0033
 3671SOL    HW211608   3.227   4.896   6.776 -0.8410 -2.1045 -0.3477
 3672SOL     OW11609   6.056   4.319   2.059 -0.2401  0.0067  0.7689
 3672SOL    HW111610   6.100   4.240   2.091  0.4101 -0.4510 -1.2270
 3672SOL    HW211611   6.123   4.365   2.008 -1.9318 -0.5174 -2.0402
 3673SOL     OW11612   5.836   6.097   5.974  0.0379  0.0099 -0.2095
 3673SOL    HW111613   5.863   6.008   5.953  0.7287  0.1334  0.1190
 3673SOL    HW211614   5.765   6.116   5.912  0.2849 -0.5567 -0.6770
 3674SOL     OW11615   5.489   1.142   4.842  0.1231  0.5607 -0.2766
 3674SOL    HW111616   5.413   1.154   4.900 -1.0859 -2.1583 -1.1909
 3674SOL    HW211617   5.489   1.220   4.787 -0.6962  1.6164  1.1644
 3675SOL     OW11618   0.174   6.610   3.402  0.2961  0.3460 -0.5449
 3675SOL    HW111619   0.211   6.521   3.401 -1.1427 -0.2621 -1.0945
 3675SOL    HW211620   0.080   6.597   3.392  0.0267  1.9283 -0.2245
 3676SOL     OW11621   4.124   2.939   6.940  0.1350 -0.3133  0.0830
 3676SOL    HW111622   4.058   2.971   6.879  0.1328 -1.5009 -0.5395
 3676SOL    HW211623   4.077   2.932   7.024 -0.0183  0.7124  0.0928
 3677SOL     OW11624   4.520   0.416   6.740 -0.3983  0.3518  0.1333
 3677SOL    HW111625   4.608   0.417   6.778 -0.8438  1.0896  1.1762
 3677SOL    HW211626   4.463   0.445   6.811 -1.7189 -1.8500  0.0064
 3678SOL     OW11627   4.055   4.739   2.500  0.5403  0.0083  0.5617
 3678SOL    HW111628   3.998   4.688   2.558  0.7979  0.2690  1.0439
 3678SOL    HW211629   4.008   4.742   2.417 -0.0219 -0.0115  0.8781
 3679SOL     OW11630   4.110   6.188   5.709  0.3104  0.4655  0.4017
 3679SOL    HW111631   4.203   6.196   5.685  0.4508 -0.8378  0.4682
 3679SOL    HW211632   4.064   6.238   5.642  1.0938  1.5636  0.6626
 3680SOL     OW11633   4.052   1.446   7.202 -0.0342 -0.0318  0.0909
 3680SOL    HW111634   4.105   1.406   7.271  0.6025  1.3367  0.4186
 3680SOL    HW211635   3.962   1.421   7.223  0.0417  1.1479  1.9967
 3681SOL     OW11636   3.606   1.229   6.043  0.5829 -0.9536 -0.1648
 3681SOL    HW111637   3.657   1.159   6.001 -0.8934 -1.2773 -1.4838
 3681SOL    HW211638   3.581   1.286   5.971 -1.1774 -0.9831  0.4120
 3682SOL     OW11639   2.025   2.393   7.163  0.1819 -0.3339 -0.3485
 3682SOL    HW111640   1.992   2.376   7.251  0.1569 -1.7757 -0.6217
 3682SOL    HW211641   2.115   2.361   7.165  0.2896 -0.0553 -0.7458
 3683SOL     OW11642   5.226   7.148   7.155 -0.1696 -0.1972 -0.6187
 3683SOL    HW111643   5.204   7.240   7.163 -1.9444 -0.6321 -0.2914
 3683SOL    HW211644   5.255   7.123   7.243  0.2896  0.0338 -0.7025
 3684SOL     OW11645   4.378   3.597   3.798  0.2164 -0.6427  0.3140
 3684SOL    HW111646   4.447   3.660   3.778 -1.3790  1.7254  2.0442
 3684SOL    HW211647   4.403   3.560   3.883 -0.9617  0.7316  1.2785
 3685SOL     OW11648   2.249   5.796   4.477 -0.1902  0.0833  0.5190
 3685SOL    HW111649   2.201   5.878   4.482  0.4291  0.5174 -0.6392
 3685SOL    HW211650   2.185   5.729   4.503 -0.9157  0.8336  0.6772
 3686SOL     OW11651   6.394   1.513   6.315  0.8308  0.0024 -0.1288
 3686SOL    HW111652   6.367   1.442   6.256  1.5124  0.5709 -1.1374
 3686SOL    HW211653   6.423   1.468   6.394  0.2589 -0.7922 -0.3589
 3687SOL     OW11654   5.257   1.555   4.243  0.3596 -0.1503 -0.7868
 3687SOL    HW111655   5.307   1.635   4.259  1.7564 -0.9474 -1.0814
 3687SOL    HW211656   5.315   1.485   4.271 -0.8613 -1.0640 -0.5276
 3688SOL     OW11657   1.629   0.202   2.329 -0.1896 -0.4071 -0.0858
 3688SOL    HW111658   1.648   0.261   2.401 -0.5841  0.9685 -1.0859
 3688SOL    HW211659   1.540   0.224   2.302  0.2628 -0.3051 -1.5365
 3689SOL     OW11660   4.655   1.990   1.414 -0.0418  0.4805  0.5289
 3689SOL    HW111661   4.641   1.907   1.458 -0.6591  1.5061  2.3412
 3689SOL    HW211662   4.585   1.995   1.349 -0.5504 -0.0099  1.0339
 3690SOL     OW11663   2.930   6.117   6.923  0.1236  0.0389  0.2535
 3690SOL    HW111664   2.987   6.040   6.921 -2.8168 -2.2752  0.5858
 3690SOL    HW211665   2.955   6.164   7.002  3.6248  0.8199 -1.2312
 3691SOL     OW11666   0.450   0.597   6.425  0.2870  0.7151 -1.0707
 3691SOL    HW111667   0.361   0.573   6.450  0.0863  0.8278 -1.6786
 3691SOL    HW211668   0.441   0.639   6.340  0.7539  2.0371 -0.4873
 3692SOL     OW11669   2.782   5.485   3.912 -0.1199  0.7504 -0.0009
 3692SOL    HW111670   2.816   5.414   3.966 -2.4812 -0.4049  0.0323
 3692SOL    HW211671   2.765   5.444   3.827 -2.3292  1.0199  0.2762
 3693SOL     OW11672   6.675   0.551   5.481 -0.4605 -0.1908  0.0236
 3693SOL    HW111673   6.609   0.538   5.550 -1.2328  1.1476 -0.4478
 3693SOL    HW211674   6.632   0.522   5.401  0.5645 -2.0836  0.1331
 3694SOL     OW11675   0.873   0.688   6.722 -0.3665 -0.0108 -0.4698
 3694SOL    HW111676   0.848   0.641   6.642 -0.2754  0.5507 -0.8351
 3694SOL    HW211677   0.960   0.656   6.742 -0.8602 -1.0333  0.0829
 3695SOL     OW11678   1.500   4.807   3.973 -0.0228  0.0234  0.5235
 3695SOL    HW111679   1.509   4.712   3.967 -0.7081 -0.0494  0.6051
 3695SOL    HW211680   1.454   4.822   4.056 -0.9311  0.3471 -0.0237
 3696SOL     OW11681   5.369   3.570   4.435 -0.1565  0.1651  0.1089
 3696SOL    HW111682   5.422   3.588   4.358 -0.7284  0.0799 -0.3062
 3696SOL    HW211683   5.292   3.626   4.426 -1.3215 -1.5013 -0.5368
 3697SOL     OW11684   2.335   5.790   7.256 -0.2891  0.4463  0.0922
 3697SOL    HW111685   2.418   5.817   7.217  0.3566 -0.9953  0.4221
 3697SOL    HW211686   2.357   5.769   7.347 -0.1062 -3.9122 -0.8329
 3698SOL     OW11687   2.523   4.645   4.274  0.0652 -0.1982  0.4952
 3698SOL    HW111688   2.432   4.651   4.303 -1.1889 -1.7166 -2.9212
 3698SOL    HW211689   2.537   4.553   4.254  1.6702  0.3594 -1.1276
 3699SOL     OW11690   4.461   3.784   1.047 -0.3295 -0.4748  0.4332
 3699SOL    HW111691   4.388   3.819   0.996  0.1293 -0.2499 -0.0751
 3699SOL    HW211692   4.462   3.837   1.127  0.0262  0.3099 -0.0938
 3700SOL     OW11693   2.514   0.615   1.092 -0.2914 -0.6503 -0.2242
 3700SOL    HW111694   2.549   0.532   1.060 -0.3496  0.0428 -2.1359
 3700SOL    HW211695   2.551   0.681   1.034 -0.6879  0.6184  0.9371
 3701SOL     OW11696   1.112   2.887   2.624  0.2027  0.3098 -0.0414
 3701SOL    HW111697   1.188   2.844   2.663  0.0234  0.1970  0.1935
 3701SOL    HW211698   1.105   2.850   2.536  0.1743  0.0124  0.0853
 3702SOL     OW11699   1.194   0.095   1.193 -0.1501 -0.6081  0.1161
 3702SOL    HW111700   1.180   0.180   1.152 -1.6790 -0.4624  0.9302
 3702SOL    HW211701   1.199   0.113   1.287  2.3157 -1.0742  0.1252
 3703SOL     OW11702   0.371   2.955   4.471  0.6088  0.3742 -0.3416
 3703SOL    HW111703   0.443   2.922   4.417  0.3446 -0.0787 -0.4301
 3703SOL    HW211704   0.412   3.012   4.535  0.8982  1.1541 -1.2132
 3704SOL     OW11705   1.473   0.177   3.722 -0.2328  0.0296 -0.1347
 3704SOL    HW111706   1.480   0.092   3.679 -0.8483 -0.5005  0.8124
 3704SOL    HW211707   1.379   0.196   3.724 -0.2664 -0.3064  1.6723
 3705SOL     OW11708   4.279   0.161   4.085  0.0080 -0.2850 -0.6703
 3705SOL    HW111709   4.233   0.189   4.164 -0.1853 -1.8030 -0.2448
 3705SOL    HW211710   4.280   0.239   4.029 -0.8030  0.4842  0.3765
 3706SOL     OW11711   0.025   5.007   1.679  0.1954  0.6456  0.0631
 3706SOL    HW111712   0.105   4.955   1.689 -0.0708  0.4834  1.3828
 3706SOL    HW211713   0.022   5.028   1.585  1.9357  0.9078  0.0498
 3707SOL     OW11714   1.853   5.006   6.293 -0.3721  0.1335  0.2119
 3707SOL    HW111715   1.761   5.028   6.313 -0.5392 -1.3851  1.1835
 3707SOL    HW211716   1.847   4.944   6.221 -0.1631 -0.6610  0.8718
 3708SOL     OW11717   7.135   0.978   0.685 -0.0007 -0.6275 -0.9985
 3708SOL    HW111718   7.227   0.984   0.658  0.2441  1.0232  0.1478
 3708SOL    HW211719   7.136   0.921   0.762  0.1183 -0.2083 -0.6924
 3709SOL     OW11720   1.047   6.610   7.067 -0.0090 -0.1820  0.2607
 3709SOL    HW111721   1.077   6.520   7.058  3.5872  1.0414 -1.1249
 3709SOL    HW211722   0.970   6.617   7.011  1.2923 -1.7317 -1.7738
 3710SOL     OW11723   1.167   2.294   6.139  0.5599 -0.0596  0.7861
 3710SOL    HW111724   1.190   2.223   6.199  1.6588  0.4108  0.9419
 3710SOL    HW211725   1.183   2.258   6.052 -0.1212 -0.4298  0.8153
 3711SOL     OW11726   7.194   2.846   5.596 -0.2167 -0.0261  0.1422
 3711SOL    HW111727   7.228   2.934   5.586 -1.6237  0.3320 -2.0281
 3711SOL    HW211728   7.111   2.857   5.641 -0.2417 -0.2679  0.1571
 3712SOL     OW11729   5.461   1.473   5.617  0.2581 -0.6685  0.3593
 3712SOL    HW111730   5.398   1.405   5.641  0.0390 -0.8192 -0.6429
 3712SOL    HW211731   5.499   1.443   5.534  1.3639 -0.3867  0.7502
 3713SOL     OW11732   5.905   1.781   0.508  0.2065  0.1059 -0.1021
 3713SOL    HW111733   5.919   1.856   0.566 -1.9378  0.9029 -0.5629
 3713SOL    HW211734   5.810   1.769   0.508  0.3042 -0.7968 -2.3065
 3714SOL     OW11735   2.258   5.922   0.545 -0.0396  0.2391 -0.7875
 3714SOL    HW111736   2.215   6.001   0.579  0.3261 -0.2514  0.8464
 3714SOL    HW211737   2.191   5.854   0.550  0.6110 -0.3175  0.9402
 3715SOL     OW11738   3.630   3.327   3.215 -0.0660 -0.6776 -0.1070
 3715SOL    HW111739   3.669   3.359   3.134 -1.6704 -0.5616 -0.8671
 3715SOL    HW211740   3.703   3.320   3.276  1.2896 -1.4792 -1.7801
 3716SOL     OW11741   1.831   1.128   0.989  0.5555 -0.4187  0.4449
 3716SOL    HW111742   1.842   1.127   0.894 -2.6041  0.4649  0.0167
 3716SOL    HW211743   1.796   1.042   1.010 -3.0453  0.9001  0.1624
 3717SOL     OW11744   1.162   1.971   4.077  0.3726 -0.2488  0.3055
 3717SOL    HW111745   1.067   1.971   4.089  0.4206 -2.3265  0.8907
 3717SOL    HW211746   1.197   2.003   4.161  0.1705  0.8449 -0.0327
 3718SOL     OW11747   0.034   2.062   1.624  0.0575 -0.2210  0.8032
 3718SOL    HW111748  -0.026   2.131   1.596  0.6262 -0.0012  0.0904
 3718SOL    HW211749   0.081   2.038   1.544  0.7391 -0.5580  1.2963
 3719SOL     OW11750   0.135   2.018   2.314  0.0014 -0.2675  0.0349
 3719SOL    HW111751   0.148   2.088   2.378  1.9000  0.7153 -1.3707
 3719SOL    HW211752   0.223   1.989   2.292 -0.5687  0.0134 -2.7794
 3720SOL     OW11753   6.459   2.179   5.255 -0.2572 -0.3121  0.5133
 3720SOL    HW111754   6.514   2.199   5.331 -1.5259  0.0093  1.3579
 3720SOL    HW211755   6.482   2.245   5.190 -0.4301  0.4819  1.2635
 3721SOL     OW11756   5.057   0.949   4.481  0.2861  0.7985 -0.0422
 3721SOL    HW111757   5.006   1.001   4.419 -1.6813  0.8676  1.5898
 3721SOL    HW211758   5.005   0.950   4.562  1.8393 -0.9315  1.0128
 3722SOL     OW11759   0.124   0.541   2.317  0.0337 -0.1481 -0.0243
 3722SOL    HW111760   0.042   0.502   2.287  1.6348 -3.6796 -0.1556
 3722SOL    HW211761   0.114   0.549   2.412 -0.9566  0.7122 -0.1986
 3723SOL     OW11762   7.175   0.219   2.963 -0.1058  0.2109  1.2970
 3723SOL    HW111763   7.085   0.207   2.992 -0.2184 -1.2736  0.3970
 3723SOL    HW211764   7.214   0.132   2.970  0.1791  0.0197 -1.8835
 3724SOL     OW11765   5.479   6.952   5.057 -0.2215 -0.3969 -0.3003
 3724SOL    HW111766   5.536   6.877   5.075 -2.3992 -1.8761  0.5645
 3724SOL    HW211767   5.535   7.013   5.008  1.4634 -2.7514 -1.3960
 3725SOL     OW11768   2.894   6.754   1.286  0.4906  0.5510 -0.2519
 3725SOL    HW111769   2.917   6.734   1.195  2.3164  2.8089 -0.3298
 3725SOL    HW211770   2.977   6.779   1.327 -0.6755  1.7991  1.4113
 3726SOL     OW11771   1.374   6.126   6.952  0.0327 -0.5252 -0.3978
 3726SOL    HW111772   1.316   6.181   7.004  0.7364 -0.2562  0.1035
 3726SOL    HW211773   1.453   6.115   7.006  1.3294  0.8660 -1.9418
 3727SOL     OW11774   4.550   6.346   7.195 -0.0990 -0.3448  0.2672
 3727SOL    HW111775   4.535   6.276   7.258  2.0513 -0.8753  0.2427
 3727SOL    HW211776   4.625   6.395   7.231  0.2488  0.2019 -1.1431
 3728SOL     OW11777   5.474   0.969   1.511 -0.5365  0.3368 -0.3150
 3728SOL    HW111778   5.403   0.905   1.521 -0.1384  0.2742  2.4919
 3728SOL    HW211779   5.448   1.042   1.568  0.5448  1.3377 -1.0775
 3729SOL     OW11780   0.464   6.022   7.078  0.3942 -0.1129  0.0099
 3729SOL    HW111781   0.417   6.072   7.012 -1.5783  0.0683  1.4965
 3729SOL    HW211782   0.478   6.084   7.150 -0.3501 -1.1511  1.0793
 3730SOL     OW11783   5.939   5.971   4.884  0.0838 -0.3801  0.1738
 3730SOL    HW111784   5.964   5.896   4.831  0.8977  0.7587 -1.0974
 3730SOL    HW211785   5.848   5.990   4.859  0.2050 -0.3373 -0.2431
 3731SOL     OW11786   2.725   5.330   3.313  0.0009 -0.1944  0.2028
 3731SOL    HW111787   2.689   5.261   3.256  2.2879  0.6370 -2.3460
 3731SOL    HW211788   2.814   5.342   3.282  0.6656  1.7058  2.7431
 3732SOL     OW11789   1.801   1.075   4.577 -0.3700  0.0189 -0.0531
 3732SOL    HW111790   1.779   1.020   4.502  0.4067  0.1046 -0.3470
 3732SOL    HW211791   1.845   1.016   4.638 -1.2473 -0.1109  0.4525
 3733SOL     OW11792   2.878   5.218   6.467 -1.2547 -0.0739 -0.8059
 3733SOL    HW111793   2.907   5.266   6.544 -0.8820 -1.0215 -0.3417
 3733SOL    HW211794   2.896   5.277   6.394 -0.5430  0.3796 -0.2712
 3734SOL     OW11795   5.013   1.088   6.287 -0.0758 -0.3965  0.1579
 3734SOL    HW111796   4.959   1.122   6.215  2.1206 -1.4667 -2.0851
 3734SOL    HW211797   5.046   1.167   6.330 -1.9051  0.2671  0.4022
 3735SOL     OW11798   3.579   6.038   2.478 -0.3102  0.0469 -0.3179
 3735SOL    HW111799   3.637   6.098   2.526 -0.8863  2.6751 -2.7923
 3735SOL    HW211800   3.494   6.049   2.520 -0.0278 -0.4053  0.3862
 3736SOL     OW11801   0.326   5.142   5.867  0.4339  0.4239  0.1080
 3736SOL    HW111802   0.274   5.205   5.918  0.5027  1.5345 -1.1765
 3736SOL    HW211803   0.403   5.191   5.840  2.4358 -1.3501  2.4031
 3737SOL     OW11804   2.646   2.288   1.209 -0.1641  0.3637  0.2697
 3737SOL    HW111805   2.624   2.204   1.167 -0.2430  0.9798 -0.9574
 3737SOL    HW211806   2.641   2.270   1.303  1.3435 -1.4319  0.0622
 3738SOL     OW11807   0.993   2.163   3.975 -0.0354  0.1809  0.0542
 3738SOL    HW111808   1.017   2.242   4.024  0.4309 -0.0888  0.2538
 3738SOL    HW211809   0.901   2.148   3.998 -0.0071  0.4331  0.3288
 3739SOL     OW11810   3.699   6.943   0.434 -0.2496 -0.2004 -0.1374
 3739SOL    HW111811   3.743   6.947   0.349 -1.4329 -1.0938 -0.8071
 3739SOL    HW211812   3.664   7.032   0.446  1.0179  0.2862  0.0249
 3740SOL     OW11813   4.498   5.706   3.461 -0.7281  0.5229 -0.7050
 3740SOL    HW111814   4.469   5.797   3.451 -0.0996  0.8191  0.0781
 3740SOL    HW211815   4.425   5.662   3.503  0.0227  1.3317  1.5395
 3741SOL     OW11816   5.791   5.071   5.822 -0.7489 -0.3173  0.4326
 3741SOL    HW111817   5.827   4.982   5.821 -0.1818 -0.0839 -0.2244
 3741SOL    HW211818   5.842   5.118   5.756 -2.2331  0.0242 -0.5010
 3742SOL     OW11819   2.380   6.669   3.789  0.1287 -0.4775  0.1148
 3742SOL    HW111820   2.326   6.630   3.720  0.0076  1.3512 -0.8487
 3742SOL    HW211821   2.317   6.695   3.857  0.2817 -2.6047  1.1206
 3743SOL     OW11822   3.566   2.065   4.776  0.7497 -0.1939  0.4964
 3743SOL    HW111823   3.521   2.140   4.817  0.0213 -0.1238 -0.4229
 3743SOL    HW211824   3.635   2.104   4.723  1.1520 -0.2406  0.9837
 3744SOL     OW11825   0.414   3.299   4.242  0.7552 -0.1683 -0.4058
 3744SOL    HW111826   0.394   3.209   4.215  2.4951  0.0672 -2.6772
 3744SOL    HW211827   0.361   3.354   4.184 -0.1243  0.2900  0.8176
 3745SOL     OW11828   4.585   1.001   4.975 -0.1399 -0.1747  0.1897
 3745SOL    HW111829   4.602   1.041   4.890  3.0133 -0.2534  0.7319
 3745SOL    HW211830   4.517   1.057   5.014 -0.8369  0.4882 -1.9057
 3746SOL     OW11831   4.878   3.144   7.000  0.8247  0.5331  0.2371
 3746SOL    HW111832   4.934   3.212   7.037  1.7474 -0.4960  0.7536
 3746SOL    HW211833   4.879   3.073   7.065 -1.1523  0.5216  0.3127
 3747SOL     OW11834   3.119   2.488   0.335 -0.2138 -0.7395  0.7082
 3747SOL    HW111835   3.063   2.538   0.275  0.4598 -0.7869  0.0314
 3747SOL    HW211836   3.095   2.520   0.422  2.2219  2.9467  0.1675
 3748SOL     OW11837   7.233   0.982   2.909  0.1996  0.2454 -0.1402
 3748SOL    HW111838   7.183   1.017   2.983  1.3027 -1.5507  1.4967
 3748SOL    HW211839   7.306   0.935   2.949  1.7185  0.5769 -2.4323
 3749SOL     OW11840   0.496   6.374   5.531  0.3528  0.4140  0.5296
 3749SOL    HW111841   0.478   6.447   5.591  1.5101  1.1122  0.0428
 3749SOL    HW211842   0.445   6.395   5.452 -1.7715 -0.8853  1.5129
 3750SOL     OW11843   4.283   0.793   3.348 -0.3539 -0.7540  0.1398
 3750SOL    HW111844   4.310   0.872   3.395 -1.9255  0.0473 -0.2912
 3750SOL    HW211845   4.307   0.809   3.257 -3.1273  0.3876 -0.4275
 3751SOL     OW11846   1.138   0.802   6.110 -0.5117  0.3391  0.2240
 3751SOL    HW111847   1.056   0.775   6.068  0.2194  0.9610 -1.6588
 3751SOL    HW211848   1.189   0.722   6.117  1.1661  0.8459 -4.2530
 3752SOL     OW11849   4.612   3.745   0.449  0.4385 -0.3841 -0.1812
 3752SOL    HW111850   4.581   3.800   0.377  0.7870  0.7567  0.5208
 3752SOL    HW211851   4.536   3.736   0.507  0.7552  0.5041  0.3863
 3753SOL     OW11852   1.502   4.393   2.975 -0.1096  0.1404  0.0939
 3753SOL    HW111853   1.429   4.455   2.970  1.3390  1.9357  0.7402
 3753SOL    HW211854   1.564   4.424   2.908  1.9856  1.2269  2.4596
 3754SOL     OW11855   4.170   1.062   7.056 -0.1411 -0.5296  0.1878
 3754SOL    HW111856   4.088   1.108   7.072 -0.7400 -0.7550 -2.0585
 3754SOL    HW211857   4.144   0.981   7.011  1.2891 -0.7920 -0.1876
 3755SOL     OW11858   3.333   3.651   5.952 -0.4773 -0.1762  0.1096
 3755SOL    HW111859   3.378   3.692   6.026 -0.0756  0.2605 -0.3645
 3755SOL    HW211860   3.344   3.557   5.966 -0.2530 -0.0931  0.5122
 3756SOL     OW11861   3.916   1.343   1.220 -0.0204 -0.1091  0.1665
 3756SOL    HW111862   3.936   1.353   1.313  1.6105  0.8053 -0.2654
 3756SOL    HW211863   3.998   1.361   1.175 -1.0869  0.7201 -1.5220
 3757SOL     OW11864   1.591   2.860   6.159 -0.2703 -0.4283  0.0107
 3757SOL    HW111865   1.563   2.951   6.154 -1.7493 -0.8909 -0.6915
 3757SOL    HW211866   1.628   2.851   6.246  1.3715  1.2332 -0.5012
 3758SOL     OW11867   2.882   5.956   0.053 -0.6124  0.1194  0.3946
 3758SOL    HW111868   2.801   5.917   0.085 -1.6364  0.1299 -2.0336
 3758SOL    HW211869   2.914   6.009   0.126 -2.4954 -0.3436  1.5866
 3759SOL     OW11870   6.602   2.392   0.607  0.3846 -0.5442 -0.4804
 3759SOL    HW111871   6.606   2.348   0.692  0.1931 -0.9356 -0.6693
 3759SOL    HW211872   6.659   2.468   0.616  0.2460 -0.5017  0.0479
 3760SOL     OW11873   1.442   0.911   3.481 -0.0934 -0.3942 -0.1086
 3760SOL    HW111874   1.397   0.984   3.439  0.9839 -0.1100 -0.7711
 3760SOL    HW211875   1.436   0.839   3.418  0.2307 -0.4096 -0.1220
 3761SOL     OW11876   2.949   6.378   4.721  0.0626 -0.1138 -0.0587
 3761SOL    HW111877   2.960   6.300   4.667  1.6943 -0.8651  1.3243
 3761SOL    HW211878   2.932   6.345   4.809  0.9527  1.0743  0.5748
 3762SOL     OW11879   5.227   5.174   3.696 -0.5618 -0.2068 -0.2053
 3762SOL    HW111880   5.211   5.252   3.749 -0.1066 -1.2003  1.4346
 3762SOL    HW211881   5.228   5.206   3.606  1.4382  1.9978  0.5405
 3763SOL     OW11882   0.875   5.625   3.450 -0.3125  0.0623  0.3039
 3763SOL    HW111883   0.919   5.542   3.433  1.2037  0.5054  1.9360
 3763SOL    HW211884   0.945   5.690   3.453 -1.3388  1.1894  0.4230
 3764SOL     OW11885   4.761   1.514   0.735 -0.1480 -0.5949 -0.4724
 3764SOL    HW111886   4.734   1.606   0.734  0.2662 -0.4542  0.4074
 3764SOL    HW211887   4.848   1.516   0.776 -0.4584 -1.4619  0.2349
 3765SOL     OW11888   1.593   4.742   2.705 -0.0813 -0.4275 -0.7409
 3765SOL    HW111889   1.520   4.733   2.643 -0.2308 -0.5528 -0.5464
 3765SOL    HW211890   1.639   4.821   2.676 -1.1934  0.5395  0.0470
 3766SOL     OW11891   0.888   1.478   3.682 -0.5048  0.4200 -0.7545
 3766SOL    HW111892   0.939   1.537   3.627 -0.8271  0.1676 -1.3260
 3766SOL    HW211893   0.953   1.434   3.737 -0.2805  1.4988 -0.1221
 3767SOL     OW11894   2.413   3.128   4.642  0.1967 -0.1375  0.1760
 3767SOL    HW111895   2.402   3.040   4.605 -0.0002 -0.8607  1.8887
 3767SOL    HW211896   2.404   3.187   4.567  0.4914 -1.5832 -1.0206
 3768SOL     OW11897   0.599   4.285   6.654  0.2189 -0.7033  0.3346
 3768SOL    HW111898   0.581   4.339   6.731 -0.6195 -0.1772 -0.2251
 3768SOL    HW211899   0.650   4.341   6.596 -0.4214 -0.6008 -0.1301
 3769SOL     OW11900   5.213   5.867   6.432  0.5396  0.0135 -0.4782
 3769SOL    HW111901   5.298   5.828   6.411  0.9328 -0.4292  1.8320
 3769SOL    HW211902   5.156   5.839   6.360  1.5941 -2.2417 -0.4955
 3770SOL     OW11903   0.028   0.414   3.562  0.1909  0.4561 -0.2208
 3770SOL    HW111904   0.064   0.330   3.592 -0.8748 -0.5318 -1.6790
 3770SOL    HW211905  -0.065   0.409   3.582  0.2014  1.5026  0.1248
 3771SOL     OW11906   4.136   5.577   6.458 -0.0330  0.0908  1.0271
 3771SOL    HW111907   4.087   5.628   6.395 -0.4299 -1.5266 -0.0150
 3771SOL    HW211908   4.203   5.532   6.406 -1.2946 -2.4232  1.4771
 3772SOL     OW11909   4.193   1.306   0.154  0.6626  0.7092 -0.0389
 3772SOL    HW111910   4.246   1.238   0.110 -2.6308 -1.1728 -1.3140
 3772SOL    HW211911   4.177   1.271   0.241  0.1192  0.4565 -0.2347
 3773SOL     OW11912   1.200   1.476   1.704  0.5616 -0.1565  0.7794
 3773SOL    HW111913   1.167   1.386   1.704  0.2860 -0.0565  0.6131
 3773SOL    HW211914   1.124   1.530   1.725  1.0677 -0.0769  2.4483
 3774SOL     OW11915   2.339   3.683   1.075 -0.1062 -1.0213  0.0103
 3774SOL    HW111916   2.435   3.683   1.085 -0.1990  1.4946  1.3020
 3774SOL    HW211917   2.323   3.733   0.996 -0.3817 -1.3432 -0.1394
 3775SOL     OW11918   1.774   3.251   0.849  0.6610 -0.0181  0.8119
 3775SOL    HW111919   1.796   3.217   0.936  1.6085  1.8986  1.3546
 3775SOL    HW211920   1.702   3.313   0.865  2.7404  2.5128  0.6718
 3776SOL     OW11921   5.475   3.977   4.970  0.1012  0.3568  0.2500
 3776SOL    HW111922   5.379   3.975   4.969  0.0508  1.2175  2.0733
 3776SOL    HW211923   5.500   3.903   5.024  0.3867  1.3470  1.5035
 3777SOL     OW11924   0.362   2.523   1.048  0.0033 -0.3432  0.9319
 3777SOL    HW111925   0.280   2.486   1.080 -0.2054 -0.3509  0.4000
 3777SOL    HW211926   0.426   2.452   1.057 -0.7363 -1.3600 -1.5074
 3778SOL     OW11927   4.327   4.746   3.820  0.7199  0.2814  0.1905
 3778SOL    HW111928   4.401   4.806   3.817  1.9625 -1.2604 -1.3101
 3778SOL    HW211929   4.261   4.784   3.762  1.1052  0.6807  0.0216
 3779SOL     OW11930   3.642   6.263   3.572 -0.2758 -0.1078 -0.9339
 3779SOL    HW111931   3.644   6.222   3.486  0.9471 -0.2903 -0.8226
 3779SOL    HW211932   3.559   6.310   3.574 -0.7164 -0.8289 -1.8718
 3780SOL     OW11933   1.678   3.685   2.976 -0.3888 -0.1417  0.2719
 3780SOL    HW111934   1.636   3.600   2.968  1.5287 -0.9727 -1.3780
 3780SOL    HW211935   1.623   3.733   3.038 -1.5645 -2.5183  1.1345
 3781SOL     OW11936   7.220   4.742   1.825  0.6283 -0.3280  0.4546
 3781SOL    HW111937   7.254   4.826   1.797 -1.8836  0.1689 -1.2852
 3781SOL    HW211938   7.293   4.700   1.870  2.6811  1.7065 -0.8965
 3782SOL     OW11939   1.520   4.249   1.383  0.0493 -0.0413 -0.7834
 3782SOL    HW111940   1.592   4.188   1.402  0.7063  0.5768 -1.2972
 3782SOL    HW211941   1.471   4.254   1.465 -0.1730 -1.4768 -0.8103
 3783SOL     OW11942   1.006   2.289   1.601  0.0364 -0.0810  0.6641
 3783SOL    HW111943   0.959   2.206   1.593  0.6792 -0.2241 -1.9594
 3783SOL    HW211944   1.087   2.267   1.648 -0.7658 -0.5198  1.8669
 3784SOL     OW11945   3.528   7.109   2.016  0.1017  0.1568  0.2358
 3784SOL    HW111946   3.542   7.020   1.985  0.2903  0.0487  0.6283
 3784SOL    HW211947   3.553   7.107   2.108  0.0617  0.6051  0.2596
 3785SOL     OW11948   3.048   0.181   4.424 -0.0967  0.2513 -0.0357
 3785SOL    HW111949   3.051   0.258   4.480 -3.0899 -1.4275  2.5696
 3785SOL    HW211950   3.117   0.124   4.459  0.8853  0.9527 -0.8020
 3786SOL     OW11951   2.227   0.339   1.026 -0.5878  0.2595  0.4116
 3786SOL    HW111952   2.228   0.266   0.963 -0.3928  0.4472  0.1965
 3786SOL    HW211953   2.318   0.368   1.030 -0.6343  0.3709  0.6397
 3787SOL     OW11954   2.698   2.072   7.153 -0.2765 -0.6227  0.3088
 3787SOL    HW111955   2.735   1.997   7.199 -2.1145 -0.8950  1.3947
 3787SOL    HW211956   2.772   2.112   7.108  0.8642 -2.6087  0.3826
 3788SOL     OW11957   3.406   7.124   5.041 -0.5230 -0.5355 -0.0756
 3788SOL    HW111958   3.328   7.158   4.998  0.4833  0.6715 -1.0204
 3788SOL    HW211959   3.382   7.115   5.133 -0.8635  2.8239  0.2343
 3789SOL     OW11960   2.396   1.450   2.158  0.7343  0.0456 -0.4670
 3789SOL    HW111961   2.350   1.494   2.087  1.2808  0.8879 -0.3181
 3789SOL    HW211962   2.484   1.489   2.157  0.1188  1.6624  1.9985
 3790SOL     OW11963   4.810   6.694   6.617  0.1006 -0.0663 -0.3393
 3790SOL    HW111964   4.824   6.738   6.534 -1.0902 -0.1838 -0.6090
 3790SOL    HW211965   4.852   6.750   6.682  0.1783  0.5246 -0.9015
 3791SOL     OW11966   6.764   4.216   3.284 -0.4941 -0.9346  0.4335
 3791SOL    HW111967   6.732   4.219   3.374 -0.0337 -0.5469  0.5850
 3791SOL    HW211968   6.785   4.124   3.269 -2.5077 -1.3703  0.0323
 3792SOL     OW11969   5.437   0.386   1.140  0.4391 -0.3526  0.1407
 3792SOL    HW111970   5.443   0.325   1.213 -0.5444 -0.7802 -0.1347
 3792SOL    HW211971   5.361   0.441   1.160 -1.8745 -2.5870 -2.1333
 3793SOL     OW11972   1.747   0.898   7.139  0.2723 -0.0928 -0.1544
 3793SOL    HW111973   1.725   0.812   7.174 -1.8293  1.2565  1.9684
 3793SOL    HW211974   1.668   0.926   7.092  1.6013 -0.0855 -2.4670
 3794SOL     OW11975   3.123   2.234   2.452  0.1460 -0.1804 -0.4106
 3794SOL    HW111976   3.184   2.176   2.406  0.3639 -0.1039 -0.2188
 3794SOL    HW211977   3.113   2.195   2.539  0.2597  0.0422 -0.2959
 3795SOL     OW11978   5.911   6.262   5.214 -0.5465 -0.3532 -0.3731
 3795SOL    HW111979   5.918   6.331   5.147 -1.8884 -0.9115 -1.1130
 3795SOL    HW211980   5.938   6.305   5.295  0.1174  0.6203 -1.0945
 3796SOL     OW11981   5.940   1.732   1.129 -0.1055 -0.1880  0.0759
 3796SOL    HW111982   6.016   1.712   1.183  0.6861 -2.5773 -1.7975
 3796SOL    HW211983   5.874   1.669   1.156 -0.5517  0.2244 -0.0445
 3797SOL     OW11984   2.759   6.543   2.051  0.2733 -0.4914  0.0688
 3797SOL    HW111985   2.751   6.448   2.054 -1.3895 -0.4265 -1.4448
 3797SOL    HW211986   2.849   6.559   2.021  0.6382 -1.5782  0.5923
 3798SOL     OW11987   7.098   1.181   0.356  0.0201  0.3659 -0.1044
 3798SOL    HW111988   7.087   1.122   0.430 -0.4342  0.4475 -0.1039
 3798SOL    HW211989   7.169   1.239   0.382  0.7955 -0.4780 -0.3027
 3799SOL     OW11990   5.366   1.713   4.536  0.3925  0.2995 -0.7856
 3799SOL    HW111991   5.437   1.681   4.481  0.2741  0.4494 -1.0230
 3799SOL    HW211992   5.341   1.797   4.497  0.1837  0.3156 -0.6167
 3800SOL     OW11993   4.880   6.967   1.538 -0.2489  0.6186 -0.3891
 3800SOL    HW111994   4.886   6.953   1.444 -1.4184 -1.0828 -0.2417
 3800SOL    HW211995   4.924   7.051   1.553  0.8900  0.3912 -2.2980
 3801SOL     OW11996   5.913   0.140   6.693 -0.1097 -0.0362 -0.1067
 3801SOL    HW111997   5.889   0.061   6.644  1.8787 -0.3594 -0.6361
 3801SOL    HW211998   5.854   0.141   6.768 -0.1283 -2.0607 -0.0651
 3802SOL     OW11999   2.604   1.834   4.944  0.4099 -0.0472 -0.2445
 3802SOL    HW112000   2.696   1.856   4.957  0.6231 -0.0506 -1.6504
 3802SOL    HW212001   2.584   1.769   5.011  1.3313  0.2268  0.2956
 3803SOL     OW12002   5.788   5.602   6.792  0.3232  0.3682 -0.2887
 3803SOL    HW112003   5.881   5.625   6.791  0.0704  1.4365 -1.3649
 3803SOL    HW212004   5.786   5.509   6.770  1.1429  0.3306 -0.2167
 3804SOL     OW12005   6.699   0.047   5.284  0.2058  0.4493 -0.4098
 3804SOL    HW112006   6.751  -0.001   5.220 -1.5179 -0.4042 -1.2063
 3804SOL    HW212007   6.687  -0.014   5.356 -0.2301  0.4036 -0.5174
 3805SOL     OW12008   4.002   1.268   6.355  0.3493 -0.9334 -0.3841
 3805SOL    HW112009   3.987   1.217   6.275  0.4831 -0.0859 -0.9609
 3805SOL    HW212010   4.045   1.348   6.324 -0.1449 -0.3340  0.4584
 3806SOL     OW12011   6.371   6.700   1.479  0.0908 -0.2266 -0.0683
 3806SOL    HW112012   6.391   6.788   1.449  1.4446 -0.6425 -0.3918
 3806SOL    HW212013   6.296   6.711   1.538  0.7369  1.2305  0.4973
 3807SOL     OW12014   4.842   4.316   0.546  0.3238 -0.3240  0.1746
 3807SOL    HW112015   4.932   4.344   0.527 -0.3060  0.9059 -1.0746
 3807SOL    HW212016   4.827   4.243   0.486  0.6504 -0.8353  0.7150
 3808SOL     OW12017   5.558   2.052   6.709  0.4404 -0.7320  0.0827
 3808SOL    HW112018   5.585   2.060   6.617 -2.1279  0.7052 -0.5822
 3808SOL    HW212019   5.546   2.142   6.738  1.0880 -1.1922  1.8010
 3809SOL     OW12020   5.960   0.963   1.420 -0.3356 -0.3371  0.1541
 3809SOL    HW112021   5.960   1.028   1.350 -3.0323 -0.9883 -0.4968
 3809SOL    HW212022   5.918   1.006   1.494  1.9409  0.1364  1.2008
 3810SOL     OW12023   1.843   6.436   3.753 -0.1156  0.4263  0.3663
 3810SOL    HW112024   1.844   6.342   3.739 -1.0100  0.5276 -0.4138
 3810SOL    HW212025   1.897   6.472   3.683  0.2393  0.5008  0.6731
 3811SOL     OW12026   1.736   3.948   5.191 -1.1356  0.0917 -0.3205
 3811SOL    HW112027   1.694   4.029   5.222 -2.4754 -1.3570  1.7834
 3811SOL    HW212028   1.772   3.908   5.270  1.6359 -0.2205 -1.6706
 3812SOL     OW12029   6.270   6.277   6.821 -0.3180  0.4189 -0.0465
 3812SOL    HW112030   6.240   6.189   6.840  1.6687  0.2858  2.6938
 3812SOL    HW212031   6.220   6.333   6.880  1.2624  0.6911  1.0574
 3813SOL     OW12032   5.997   4.144   5.521 -0.2082  0.2048 -0.1395
 3813SOL    HW112033   6.035   4.174   5.604  0.3537 -2.1681  0.5307
 3813SOL    HW212034   6.029   4.205   5.455  0.5366  1.2738  1.1944
 3814SOL     OW12035   0.302   2.282   4.521  0.0346 -0.0414 -0.2207
 3814SOL    HW112036   0.324   2.225   4.447  0.9696 -0.8936  0.7012
 3814SOL    HW212037   0.218   2.320   4.497  0.4880 -0.0360 -1.8851
 3815SOL     OW12038   1.625   4.761   0.266  0.0049  0.0994 -0.3806
 3815SOL    HW112039   1.538   4.799   0.282  0.2844  1.9605 -2.9897
 3815SOL    HW212040   1.612   4.667   0.281 -2.7238  0.2149 -1.6344
 3816SOL     OW12041   2.095   5.034   2.423  0.1272  0.4557 -0.3051
 3816SOL    HW112042   2.169   5.094   2.423  1.4746 -1.1234  1.1308
 3816SOL    HW212043   2.064   5.034   2.514  0.9542 -1.9064  0.0251
 3817SOL     OW12044   0.612   0.718   4.898  0.1048 -0.5658 -0.3727
 3817SOL    HW112045   0.648   0.776   4.831 -0.7508  0.2160 -0.1712
 3817SOL    HW212046   0.640   0.630   4.872 -0.4222 -0.2975 -1.9001
 3818SOL     OW12047   3.350   6.019   1.000  0.8536 -0.3402  0.6707
 3818SOL    HW112048   3.285   6.023   1.071  0.1531 -1.0199  0.0727
 3818SOL    HW212049   3.401   5.941   1.019  2.5307  1.0183  2.0038
 3819SOL     OW12050   3.622   2.259   2.383  0.1020  0.4925 -0.0776
 3819SOL    HW112051   3.648   2.283   2.472  1.2455 -1.5128  0.1636
 3819SOL    HW212052   3.526   2.258   2.386  0.0928 -3.5287  2.3110
 3820SOL     OW12053   0.282   2.581   0.551  0.1675 -0.0386 -0.0722
 3820SOL    HW112054   0.268   2.602   0.643  0.6735  0.5466 -0.1297
 3820SOL    HW212055   0.375   2.561   0.545  0.0088 -0.7370 -0.3314
 3821SOL     OW12056   2.239   7.008   0.782 -0.3197 -0.2294  0.0925
 3821SOL    HW112057   2.150   6.977   0.795 -0.0827 -0.2890  1.6409
 3821SOL    HW212058   2.229   7.101   0.760 -0.7634 -0.2106  0.3656
 3822SOL     OW12059   0.365   6.906   6.785  0.5318 -0.0294  0.3746
 3822SOL    HW112060   0.316   6.831   6.819  0.5042 -0.3613 -0.3962
 3822SOL    HW212061   0.392   6.954   6.864  2.1790 -1.8691  0.9814
 3823SOL     OW12062   2.492   4.968   1.345  0.0509 -0.3292  0.3298
 3823SOL    HW112063   2.484   4.905   1.417 -0.3833 -1.2257 -0.4951
 3823SOL    HW212064   2.559   5.030   1.374 -0.2140 -0.6142  1.5556
 3824SOL     OW12065   2.761   6.464   5.792  0.3748  0.5164  0.2593
 3824SOL    HW112066   2.785   6.516   5.716 -1.0473  1.3339  0.3407
 3824SOL    HW212067   2.794   6.514   5.867  1.7803 -0.2910  0.2000
 3825SOL     OW12068   0.247   1.054   2.488  0.4226 -0.2447 -0.2042
 3825SOL    HW112069   0.214   0.965   2.475 -0.7873  0.1511  0.0153
 3825SOL    HW212070   0.214   1.079   2.575  1.0423  0.2912 -0.1201
 3826SOL     OW12071   5.203   5.886   1.640  0.1744 -0.6626 -0.3265
 3826SOL    HW112072   5.164   5.958   1.590 -2.6216 -0.5124  1.9356
 3826SOL    HW212073   5.291   5.916   1.662 -0.3604  1.3192 -0.8609
 3827SOL     OW12074   3.906   4.657   4.973 -0.4443  0.5514 -0.3204
 3827SOL    HW112075   3.908   4.730   5.034  1.7647  1.4869 -1.4378
 3827SOL    HW212076   3.983   4.605   4.996  0.0706  0.5879 -1.9020
 3828SOL     OW12077   0.504   1.534   2.402 -0.2192  0.5361  0.3253
 3828SOL    HW112078   0.475   1.612   2.353  0.1089  1.0108  0.8762
 3828SOL    HW212079   0.569   1.493   2.346 -0.0436  0.9294  0.2390
 3829SOL     OW12080   3.633   0.473   2.709 -0.2456  0.3994  0.1864
 3829SOL    HW112081   3.666   0.558   2.739  0.0920  0.1308  0.5799
 3829SOL    HW212082   3.661   0.467   2.618  1.0628  0.0391  0.6060
 3830SOL     OW12083   4.878   6.185   2.371  0.0841  0.1187  0.1572
 3830SOL    HW112084   4.881   6.245   2.446  0.9022  1.5835 -0.9924
 3830SOL    HW212085   4.801   6.131   2.385 -0.9348  1.7657  1.0167
 3831SOL     OW12086   0.423   2.286   4.177 -0.0171  0.3222  0.0479
 3831SOL    HW112087   0.408   2.270   4.084  0.3479 -0.0533  0.0548
 3831SOL    HW212088   0.402   2.379   4.189 -1.2675  0.0805 -0.1674
 3832SOL     OW12089   2.673   5.156   1.397 -0.1535 -0.0508 -0.7377
 3832SOL    HW112090   2.737   5.190   1.459 -0.2852  1.1834 -1.2784
 3832SOL    HW212091   2.681   5.212   1.320 -1.9700  0.1754 -0.7746
 3833SOL     OW12092   5.640   5.259   5.987 -0.6025  0.2516 -0.1573
 3833SOL    HW112093   5.659   5.186   5.928  0.1230 -0.0670  0.4515
 3833SOL    HW212094   5.622   5.217   6.071 -0.4073  0.7536  0.1424
 3834SOL     OW12095   5.672   5.877   2.609 -0.1104  0.6167 -0.3087
 3834SOL    HW112096   5.599   5.815   2.608  0.5751 -0.2646  2.1661
 3834SOL    HW212097   5.659   5.929   2.529 -0.7696 -2.5755 -2.3998
 3835SOL     OW12098   0.908   1.899   4.261 -0.5706 -0.0745  0.2162
 3835SOL    HW112099   0.949   1.853   4.188  0.3621 -0.4797  0.9880
 3835SOL    HW212100   0.981   1.934   4.312 -1.2432  1.3766  0.2204
 3836SOL     OW12101   4.199   6.536   0.153 -0.3447 -0.0375  0.1418
 3836SOL    HW112102   4.203   6.445   0.125 -1.9714  0.4593 -1.8345
 3836SOL    HW212103   4.114   6.543   0.197 -1.1874  0.9845 -1.5824
 3837SOL     OW12104   2.829   1.312   6.177  0.0480  0.5634  0.2325
 3837SOL    HW112105   2.788   1.374   6.117 -2.2648 -0.0635  1.0937
 3837SOL    HW212106   2.755   1.263   6.215  1.7494 -2.2916  0.0337
 3838SOL     OW12107   5.172   4.476   4.113 -0.2432  0.1482  0.1140
 3838SOL    HW112108   5.266   4.459   4.108 -0.4517 -0.6926 -1.2223
 3838SOL    HW212109   5.155   4.535   4.039 -1.3540 -2.6683 -1.9925
 3839SOL     OW12110   1.377   0.359   5.538  0.3510  0.1061  0.3637
 3839SOL    HW112111   1.363   0.451   5.562 -1.9577 -0.0048 -0.3882
 3839SOL    HW212112   1.357   0.310   5.618 -2.1139  0.0620 -0.2415
 3840SOL     OW12113   5.363   2.484   2.812 -0.6573 -0.1093 -0.0824
 3840SOL    HW112114   5.449   2.490   2.769 -1.3810  0.6604 -1.4356
 3840SOL    HW212115   5.371   2.539   2.890 -0.0298  0.2466 -0.3939
 3841SOL     OW12116   0.184   1.301   1.857  0.0386  0.2508  0.1604
 3841SOL    HW112117   0.157   1.370   1.797 -0.7335 -0.8082 -0.7491
 3841SOL    HW212118   0.271   1.276   1.827  0.1100  0.4787  0.1754
 3842SOL     OW12119   5.197   6.138   0.419  0.1457 -0.3139 -0.4708
 3842SOL    HW112120   5.256   6.182   0.358 -0.6106  0.5471 -0.5985
 3842SOL    HW212121   5.152   6.072   0.365 -0.3058  0.2452 -0.7788
 3843SOL     OW12122   0.428   6.300   0.640  0.4040  0.0401 -0.1363
 3843SOL    HW112123   0.476   6.250   0.573  0.9224  0.8838 -0.3999
 3843SOL    HW212124   0.494   6.319   0.707  0.5552  1.5768 -0.7083
 3844SOL     OW12125   5.897   2.795   2.928  0.4944  0.0972  0.4210
 3844SOL    HW112126   5.959   2.854   2.887  0.4404  0.0830  0.3198
 3844SOL    HW212127   5.897   2.821   3.020  0.0351  0.6383  0.2734
 3845SOL     OW12128   6.472   6.391   0.575 -0.4109 -0.4846  0.4141
 3845SOL    HW112129   6.526   6.336   0.518  1.1514 -1.5149  2.7482
 3845SOL    HW212130   6.386   6.348   0.576  0.3140 -1.9566  0.8708
 3846SOL     OW12131   4.118   0.120   6.139  0.4738 -0.3882 -0.7904
 3846SOL    HW112132   4.121   0.058   6.212 -1.2924  1.3492  0.8243
 3846SOL    HW212133   4.169   0.195   6.168  0.2396  0.0907 -1.5903
 3847SOL     OW12134   4.698   3.894   5.835  0.5699 -0.0784  0.1858
 3847SOL    HW112135   4.646   3.828   5.789 -0.5916  0.4989  0.6597
 3847SOL    HW212136   4.751   3.844   5.896 -0.2535 -0.5868  0.4970
 3848SOL     OW12137   5.485   1.523   2.340  0.1149  0.0206 -0.2757
 3848SOL    HW112138   5.453   1.477   2.262  0.4560 -2.2874  0.8981
 3848SOL    HW212139   5.420   1.504   2.408  1.6396 -0.9826  0.9388
 3849SOL     OW12140   5.906   2.642   4.688 -0.7105  1.0483  0.0853
 3849SOL    HW112141   6.000   2.626   4.701 -0.8647 -0.8666 -0.9606
 3849SOL    HW212142   5.869   2.632   4.776  0.0339  1.6825  0.4864
 3850SOL     OW12143   7.147   6.657   0.874 -0.0383  0.0746  0.1977
 3850SOL    HW112144   7.242   6.668   0.869  0.1105 -1.1735  0.2071
 3850SOL    HW212145   7.115   6.686   0.789  0.1509  2.3635  0.8625
 3851SOL     OW12146   4.742   7.179   3.475 -0.4022  0.9937 -0.5526
 3851SOL    HW112147   4.685   7.115   3.518 -0.6600  0.8475 -1.1148
 3851SOL    HW212148   4.718   7.262   3.516 -0.7427  0.8738 -0.5021
 3852SOL     OW12149   2.524   3.588   0.702  0.5222 -0.0499 -0.3720
 3852SOL    HW112150   2.472   3.523   0.655  2.7329  0.0048 -2.9878
 3852SOL    HW212151   2.500   3.672   0.661 -2.3188  0.9037  2.9766
 3853SOL     OW12152   2.430   5.925   1.103 -0.1314  0.5488 -0.3966
 3853SOL    HW112153   2.362   5.931   1.036  1.5514 -0.0024 -2.1748
 3853SOL    HW212154   2.493   5.993   1.080 -0.4832  1.6783  1.7737
 3854SOL     OW12155   2.284   2.360   2.543 -0.0780 -0.3726 -0.2550
 3854SOL    HW112156   2.345   2.374   2.615 -2.4576  1.5831  1.4914
 3854SOL    HW212157   2.252   2.271   2.556  0.2001 -0.3564  0.5904
 3855SOL     OW12158   0.080   6.057   6.427 -0.6907  0.2929  0.1944
 3855SOL    HW112159  -0.003   6.011   6.429 -0.6085  0.0321 -1.6218
 3855SOL    HW212160   0.115   6.040   6.339  2.2928 -1.4335  1.6273
 3856SOL     OW12161   5.659   3.521   5.595  0.7761  0.3297 -0.1665
 3856SOL    HW112162   5.685   3.429   5.585  1.6732  0.5937 -0.3500
 3856SOL    HW212163   5.608   3.523   5.676  1.2144 -0.2465  0.1312
 3857SOL     OW12164   0.458   1.421   2.119 -0.2672  0.1990 -0.3074
 3857SOL    HW112165   0.511   1.358   2.167  0.3447 -0.6290 -2.0599
 3857SOL    HW212166   0.371   1.414   2.159  0.3031 -0.2235  0.8997
 3858SOL     OW12167   2.856   4.465   3.099 -0.0592  0.3288  0.5839
 3858SOL    HW112168   2.897   4.389   3.140 -0.8948  0.4744  1.7037
 3858SOL    HW212169   2.866   4.535   3.164 -0.3232  0.8742  0.0416
 3859SOL     OW12170   6.322   2.917   5.601  0.0193 -0.3906  0.9023
 3859SOL    HW112171   6.334   2.881   5.689  1.1092 -0.1525  0.8532
 3859SOL    HW212172   6.369   3.000   5.602  1.7268 -1.3071 -0.5041
 3860SOL     OW12173   2.502   1.972   6.505  0.1871 -0.0617 -0.1456
 3860SOL    HW112174   2.550   1.896   6.536  0.9849  0.5236  0.0759
 3860SOL    HW212175   2.428   1.979   6.565 -0.8382 -1.6490 -1.1925
 3861SOL     OW12176   4.655   3.211   4.184 -0.1252 -0.2247 -0.4728
 3861SOL    HW112177   4.593   3.279   4.211 -1.3160 -1.8169  0.9241
 3861SOL    HW212178   4.724   3.214   4.251  0.0127 -0.1607 -0.6177
 3862SOL     OW12179   2.359   1.993   5.008  0.3628 -0.1669 -0.0311
 3862SOL    HW112180   2.442   1.952   4.986  0.4534  0.3584 -0.6955
 3862SOL    HW212181   2.375   2.039   5.090  0.5039 -0.7238  0.2540
 3863SOL     OW12182   6.976   6.045   0.986  0.3162  0.2779 -0.0225
 3863SOL    HW112183   7.019   6.093   0.915 -1.8775  3.2086  0.5020
 3863SOL    HW212184   6.890   6.022   0.951  0.0691 -0.2782  0.9246
 3864SOL     OW12185   0.164   6.979   0.160 -0.2741 -0.3041  0.3510
 3864SOL    HW112186   0.251   7.012   0.185  0.3524 -1.3023 -0.4509
 3864SOL    HW212187   0.166   6.978   0.064 -0.9070 -1.0117  0.3427
 3865SOL     OW12188   6.051   2.833   1.782  0.2248 -0.1858 -0.4843
 3865SOL    HW112189   6.136   2.829   1.736  1.4743  0.1006  1.7400
 3865SOL    HW212190   6.049   2.753   1.835  0.3943  1.2330  1.6739
 3866SOL     OW12191   3.327   1.961   2.006  0.5493 -0.4371 -0.0010
 3866SOL    HW112192   3.367   1.877   2.026  0.7145 -0.1638  0.8427
 3866SOL    HW212193   3.381   2.025   2.054  1.0818  0.2546 -1.4884
 3867SOL     OW12194   5.855   5.511   4.683  0.3990  0.0404  0.6279
 3867SOL    HW112195   5.936   5.555   4.708  0.1489 -0.1453  1.7949
 3867SOL    HW212196   5.843   5.443   4.750 -0.3651 -0.3689  0.0844
 3868SOL     OW12197   3.289   1.033   2.648 -0.0269 -0.2370  0.1824
 3868SOL    HW112198   3.325   0.945   2.658  0.9132 -0.0417 -1.3634
 3868SOL    HW212199   3.365   1.090   2.644 -0.6464  0.7639  1.9600
 3869SOL     OW12200   3.739   4.231   2.225  0.3646  0.4924  0.0125
 3869SOL    HW112201   3.741   4.158   2.288  1.1805  1.0385  0.6198
 3869SOL    HW212202   3.706   4.191   2.145 -2.2930  0.1194  1.2230
 3870SOL     OW12203   2.744   4.717   5.801 -0.1409  0.1565  0.4151
 3870SOL    HW112204   2.686   4.666   5.744 -0.3820  0.5529  0.3044
 3870SOL    HW212205   2.823   4.731   5.749  0.1337 -0.5472  0.6350
 3871SOL     OW12206   2.024   1.136   5.572 -0.0318  0.4434 -0.3721
 3871SOL    HW112207   1.936   1.123   5.536  0.2415  0.3513 -1.0165
 3871SOL    HW212208   2.080   1.080   5.518  0.0321 -1.6149  1.7911
 3872SOL     OW12209   3.672   2.696   4.487  0.4855  0.2251  0.3604
 3872SOL    HW112210   3.689   2.789   4.501  2.8855  0.1232 -1.6157
 3872SOL    HW212211   3.616   2.693   4.409 -0.5719  0.0368  1.1065
 3873SOL     OW12212   6.115   5.654   5.836 -0.0106 -0.0100 -0.4527
 3873SOL    HW112213   6.169   5.595   5.888 -0.9832  0.0827  0.7001
 3873SOL    HW212214   6.172   5.683   5.765  1.2064 -0.4810  0.3166
 3874SOL     OW12215   4.230   3.886   4.212 -0.1101 -0.4588  0.1056
 3874SOL    HW112216   4.179   3.966   4.208 -0.5816 -0.6829  1.4128
 3874SOL    HW212217   4.236   3.865   4.305 -0.1254 -2.0218 -0.2205
 3875SOL     OW12218   3.403   1.319   6.405  0.8110 -0.1539  0.3851
 3875SOL    HW112219   3.435   1.234   6.375  0.6868 -0.1067  0.1163
 3875SOL    HW212220   3.482   1.370   6.423  0.8920  0.1909 -0.9215
 3876SOL     OW12221   4.166   0.818   6.888  0.0470  0.0039 -0.3919
 3876SOL    HW112222   4.187   0.806   6.795 -0.3602 -1.5917 -0.2899
 3876SOL    HW212223   4.073   0.797   6.894  0.1608 -0.2586  0.4566
 3877SOL     OW12224   1.836   5.177   4.696 -0.3935 -0.1946 -0.0079
 3877SOL    HW112225   1.825   5.154   4.788  0.4194  0.4845  0.2578
 3877SOL    HW212226   1.928   5.200   4.687 -0.7990  1.2042 -0.6654
 3878SOL     OW12227   3.876   2.708   0.702 -0.0173  0.1404  0.2529
 3878SOL    HW112228   3.933   2.782   0.722 -0.6342  1.0912 -1.3566
 3878SOL    HW212229   3.919   2.632   0.741  2.0446  0.9352 -0.4426
 3879SOL     OW12230   2.572   2.269   5.899  0.3063 -0.3632  1.1498
 3879SOL    HW112231   2.575   2.173   5.895  1.5430 -0.2714 -0.6252
 3879SOL    HW212232   2.616   2.297   5.819 -0.1872  1.6958  1.5940
 3880SOL     OW12233   5.020   0.373   4.868  0.2180 -0.0447  0.1561
 3880SOL    HW112234   4.984   0.296   4.912  0.6969 -0.4427 -0.1406
 3880SOL    HW212235   5.112   0.352   4.853 -0.2387 -0.5020 -2.2583
 3881SOL     OW12236   6.244   3.646   1.573  0.2437  0.0658  0.9519
 3881SOL    HW112237   6.278   3.586   1.508 -0.7733 -0.2418  0.6997
 3881SOL    HW212238   6.276   3.612   1.657  0.1670 -0.4795  0.7568
 3882SOL     OW12239   0.545   5.702   2.215  0.2116 -0.7811 -0.6065
 3882SOL    HW112240   0.454   5.690   2.241 -0.0580  1.4138 -0.4326
 3882SOL    HW212241   0.544   5.696   2.120 -0.3626  0.5533 -0.7016
 3883SOL     OW12242   6.506   5.735   3.398  0.2774 -0.0610  0.2819
 3883SOL    HW112243   6.496   5.811   3.341  1.2323 -0.3462 -0.2700
 3883SOL    HW212244   6.424   5.686   3.387  0.5123 -0.1774 -0.9295
 3884SOL     OW12245   6.305   1.372   6.056  0.6067 -0.1681  0.5510
 3884SOL    HW112246   6.395   1.350   6.079  0.2040 -0.4965  1.8112
 3884SOL    HW212247   6.310   1.461   6.023  1.5273 -0.4904 -0.2130
 3885SOL     OW12248   0.913   1.145   4.703 -0.6716 -0.6194  0.4309
 3885SOL    HW112249   0.906   1.124   4.610  0.3877 -0.0903  0.2172
 3885SOL    HW212250   0.981   1.213   4.707 -1.3759  0.0386  1.4884
 3886SOL     OW12251   4.396   2.412   1.728  0.9465 -0.2011 -0.8615
 3886SOL    HW112252   4.454   2.338   1.747  2.0983  0.7174 -0.7170
 3886SOL    HW212253   4.456   2.487   1.718 -0.2700  0.9185  0.0965
 3887SOL     OW12254   1.734   0.739   6.115 -0.0289  0.5114 -0.4208
 3887SOL    HW112255   1.725   0.819   6.166 -0.3177 -0.7360  1.5181
 3887SOL    HW212256   1.711   0.669   6.175 -1.3162 -0.9446 -2.5390
 3888SOL     OW12257   4.908   5.116   4.487  0.3410 -0.7851 -0.7682
 3888SOL    HW112258   4.963   5.116   4.409 -0.4412 -2.3382 -1.3446
 3888SOL    HW212259   4.831   5.167   4.462  0.6673 -0.1873 -0.5730
 3889SOL     OW12260   1.890   4.198   3.706 -0.1153 -0.0457  0.3111
 3889SOL    HW112261   1.949   4.240   3.643 -1.2100 -0.8592 -1.2852
 3889SOL    HW212262   1.941   4.126   3.743  0.7915  0.8991  0.9629
 3890SOL     OW12263   4.702   3.622   0.698  0.2345  0.0495  0.2906
 3890SOL    HW112264   4.779   3.673   0.724  0.3089 -0.3013  0.7556
 3890SOL    HW212265   4.702   3.626   0.602  2.2454 -1.9750  0.1592
 3891SOL     OW12266   3.094   0.572   0.079  0.1856 -0.1350  0.2344
 3891SOL    HW112267   3.145   0.568  -0.002  0.3852  2.6252  0.1802
 3891SOL    HW212268   3.158   0.563   0.149  0.4238  0.7309  0.1287
 3892SOL     OW12269   1.127   2.354   1.075 -0.2415 -0.3076 -0.0483
 3892SOL    HW112270   1.217   2.384   1.068 -0.6542  0.4510 -2.6813
 3892SOL    HW212271   1.113   2.341   1.168  2.5250 -0.2667  0.4033
 3893SOL     OW12272   5.916   5.516   6.002  0.3998  0.4089 -0.0071
 3893SOL    HW112273   5.918   5.546   5.911 -0.8956 -0.6892 -0.4173
 3893SOL    HW212274   5.852   5.572   6.045 -0.3995 -0.3321 -0.2366
 3894SOL     OW12275   0.635   5.687   3.532  0.5627 -0.1132 -0.0579
 3894SOL    HW112276   0.636   5.635   3.613 -0.1637 -0.7138 -0.4251
 3894SOL    HW212277   0.719   5.667   3.490  0.3129 -0.9604 -0.1687
 3895SOL     OW12278   5.610   5.223   3.664 -0.0470  0.3942 -0.1123
 3895SOL    HW112279   5.583   5.135   3.639  1.8018 -0.1237 -0.3532
 3895SOL    HW212280   5.705   5.223   3.654 -0.0917  2.6464 -0.8616
 3896SOL     OW12281   1.347   0.101   3.199  0.3490  0.0808 -0.1690
 3896SOL    HW112282   1.273   0.142   3.154 -2.1916 -1.7056  2.1764
 3896SOL    HW212283   1.368   0.162   3.269 -0.8713 -0.7413  0.9413
 3897SOL     OW12284   5.627   7.044   3.203  0.3175 -0.0995 -0.2654
 3897SOL    HW112285   5.553   7.055   3.262 -0.0849 -0.8243 -0.6287
 3897SOL    HW212286   5.656   7.134   3.184 -1.1911  0.2352 -1.0301
 3898SOL     OW12287   3.526   2.006   6.863 -0.3372 -0.1177  0.3054
 3898SOL    HW112288   3.477   1.926   6.882  0.5301 -0.8094 -0.3170
 3898SOL    HW212289   3.484   2.043   6.785  0.1679 -0.7546 -0.2780
 3899SOL     OW12290   4.971   5.154   1.254  0.4236  0.2727  0.5291
 3899SOL    HW112291   4.883   5.147   1.291  0.1512  0.1450 -0.1466
 3899SOL    HW212292   4.967   5.105   1.172  1.6124 -1.2861  1.3674
 3900SOL     OW12293   3.013   2.533   7.171 -0.4726  0.1722 -0.2168
 3900SOL    HW112294   2.941   2.573   7.219  0.2599  1.5153 -0.2220
 3900SOL    HW212295   3.053   2.472   7.233 -1.2555 -0.1733 -0.0452
 3901SOL     OW12296   2.333   5.882   4.847 -0.0102  0.3251  0.2546
 3901SOL    HW112297   2.332   5.863   4.753 -0.1483  0.6271  0.1930
 3901SOL    HW212298   2.421   5.915   4.864  0.0633  0.1294  0.2617
 3902SOL     OW12299   5.545   0.796   6.516  0.3725 -0.3022  0.0819
 3902SOL    HW112300   5.482   0.846   6.464  1.7582  1.4510  0.0230
 3902SOL    HW212301   5.492   0.737   6.569 -1.3448  1.5762  0.4935
 3903SOL     OW12302   0.857   2.223   5.956  0.2433  0.1393 -0.5335
 3903SOL    HW112303   0.812   2.142   5.931  0.8920  0.5734 -3.2078
 3903SOL    HW212304   0.788   2.290   5.957  0.1609  0.0600 -0.8871
 3904SOL     OW12305   1.055   3.944   4.291  0.0852  0.4432  0.1337
 3904SOL    HW112306   1.056   4.033   4.327  0.9966  0.4293  0.1396
 3904SOL    HW212307   1.083   3.888   4.363  0.2209  0.2264 -0.0873
 3905SOL     OW12308   1.314   2.455   1.419 -0.4020  0.3421 -0.2651
 3905SOL    HW112309   1.324   2.435   1.512 -0.5516 -0.8874 -0.4968
 3905SOL    HW212310   1.375   2.526   1.402  1.4038 -1.0480  0.2597
 3906SOL     OW12311   0.938   6.637   4.961  0.5747 -0.1477  0.0748
 3906SOL    HW112312   0.983   6.618   5.044  1.1429  0.4382 -0.0983
 3906SOL    HW212313   0.993   6.597   4.894  1.4999  1.6094 -0.2462
 3907SOL     OW12314   2.497   0.683   3.479  0.4545 -0.1635  0.0281
 3907SOL    HW112315   2.441   0.695   3.403  1.0533 -1.7118 -0.6802
 3907SOL    HW212316   2.496   0.589   3.495  1.6926 -0.0459  0.8930
 3908SOL     OW12317   3.983   4.036   5.261  0.3593 -0.8555 -0.1687
 3908SOL    HW112318   4.016   3.947   5.272  0.1528 -0.7923  1.0604
 3908SOL    HW212319   4.031   4.087   5.326  0.3286 -0.1139 -0.7302
 3909SOL     OW12320   0.996   4.310   4.136 -0.1656  0.0928  0.0443
 3909SOL    HW112321   1.030   4.224   4.109  0.4454  0.4954 -0.4868
 3909SOL    HW212322   0.914   4.319   4.088 -1.3014 -1.0950  1.6987
 3910SOL     OW12323   1.844   2.135   2.990  0.4119  0.2604 -0.5126
 3910SOL    HW112324   1.849   2.140   3.085 -1.5491  0.6545 -0.4176
 3910SOL    HW212325   1.868   2.223   2.960  0.2767  0.3501 -0.3581
 3911SOL     OW12326   6.182   2.645   5.692  0.0278  0.1682 -0.0078
 3911SOL    HW112327   6.256   2.701   5.715  0.5001 -0.4648  0.0087
 3911SOL    HW212328   6.200   2.561   5.735 -1.8891  0.7443  2.0429
 3912SOL     OW12329   0.349   0.341   5.207 -0.2279 -0.8531 -0.2318
 3912SOL    HW112330   0.254   0.330   5.210 -0.5341  1.4569 -0.4543
 3912SOL    HW212331   0.375   0.358   5.297 -0.1895 -0.3107 -0.3427
 3913SOL     OW12332   0.218   5.394   4.647  0.2124  0.5366  0.4350
 3913SOL    HW112333   0.127   5.385   4.674  0.1941  1.4896  0.7055
 3913SOL    HW212334   0.223   5.480   4.607  1.4016  1.2658  2.1041
 3914SOL     OW12335   6.585   1.000   1.082  0.2038 -0.2841  1.1304
 3914SOL    HW112336   6.679   0.982   1.076  0.3883  0.9522  0.1016
 3914SOL    HW212337   6.563   1.040   0.998 -1.3460 -0.9927  1.1972
 3915SOL     OW12338   1.015   2.397   7.014 -0.1663  0.2337  0.0527
 3915SOL    HW112339   1.016   2.436   6.927 -1.6365 -0.0310 -0.1030
 3915SOL    HW212340   0.925   2.413   7.046 -0.4530 -2.0473  0.4193
 3916SOL     OW12341   1.795   1.598   2.262  0.4534 -0.3811 -0.5482
 3916SOL    HW112342   1.814   1.504   2.269  1.0771 -0.2039  0.1609
 3916SOL    HW212343   1.700   1.603   2.274  0.6223 -0.7609  1.2113
 3917SOL     OW12344   7.178   0.308   6.437  0.0270 -0.1401  0.2906
 3917SOL    HW112345   7.124   0.286   6.513 -1.3197 -0.8786 -0.8402
 3917SOL    HW212346   7.268   0.309   6.470 -0.4969 -0.9615  1.7716
 3918SOL     OW12347   2.919   5.674   6.855  0.3182 -0.2871 -0.0996
 3918SOL    HW112348   2.955   5.616   6.922  0.5420  0.3000  0.2940
 3918SOL    HW212349   2.826   5.682   6.878 -0.1798 -2.1385 -1.3602
 3919SOL     OW12350   6.520   5.417   5.474  0.0634 -0.0455 -0.8440
 3919SOL    HW112351   6.515   5.332   5.431 -2.8437 -0.5017  0.3152
 3919SOL    HW212352   6.577   5.403   5.549 -0.4657 -1.0005 -0.6176
 3920SOL     OW12353   2.875   2.495   3.616  0.1751 -0.2751  0.0414
 3920SOL    HW112354   2.882   2.400   3.616  0.2366 -0.2864 -1.3672
 3920SOL    HW212355   2.851   2.518   3.705  2.3971 -1.4355  0.9803
 3921SOL     OW12356   6.186   3.347   4.733  0.4194  0.8139  0.3349
 3921SOL    HW112357   6.130   3.270   4.720 -0.1399  0.9408  1.8434
 3921SOL    HW212358   6.138   3.399   4.798  0.8432  2.3829 -0.6002
 3922SOL     OW12359   4.261   4.008   7.124  0.6099  0.1000  0.4299
 3922SOL    HW112360   4.242   4.091   7.167  1.7585 -1.0512  3.2917
 3922SOL    HW212361   4.176   3.965   7.114 -0.2877  2.4504 -3.0759
 3923SOL     OW12362   4.718   5.266   3.004 -0.9036  0.6540 -0.0205
 3923SOL    HW112363   4.622   5.265   3.013 -0.9135 -0.5983 -0.0644
 3923SOL    HW212364   4.737   5.192   2.945 -0.0019  1.7029 -1.0620
 3924SOL     OW12365   0.466   1.297   1.865  0.6006 -0.2539 -0.1638
 3924SOL    HW112366   0.420   1.340   1.937  1.5208 -2.0736  1.5727
 3924SOL    HW212367   0.545   1.349   1.851  0.3704  0.1612  0.0754
 3925SOL     OW12368   5.448   0.584   4.982 -0.0337  0.1077  0.2159
 3925SOL    HW112369   5.493   0.504   4.955  0.8449  0.3365  0.9852
 3925SOL    HW212370   5.404   0.615   4.903 -0.3389 -1.1048 -0.0998
 3926SOL     OW12371   3.162   1.981   6.021  0.3441 -0.2406  0.3323
 3926SOL    HW112372   3.125   1.997   5.935 -0.6674  0.6687  0.9109
 3926SOL    HW212373   3.237   1.924   6.006  0.1886 -0.0629 -1.1412
 3927SOL     OW12374   2.657   3.204   2.535 -0.5793  0.5867 -0.6383
 3927SOL    HW112375   2.650   3.112   2.564 -0.5330  0.5881 -0.6220
 3927SOL    HW212376   2.657   3.199   2.440  0.2349  0.5073 -0.6331
 3928SOL     OW12377   6.589   6.890   5.141  0.2170  0.1697  0.1340
 3928SOL    HW112378   6.603   6.797   5.158  0.9213  0.6169  2.0776
 3928SOL    HW212379   6.550   6.893   5.054  0.8835 -1.8948 -0.2443
 3929SOL     OW12380   6.631   4.433   6.056 -0.1778 -0.1887  0.1185
 3929SOL    HW112381   6.556   4.445   6.113  0.3413  0.6235  0.6336
 3929SOL    HW212382   6.693   4.381   6.109 -0.7252 -1.6267 -0.6179
 3930SOL     OW12383   2.801   1.104   5.207 -0.8007 -0.0895 -0.5437
 3930SOL    HW112384   2.726   1.135   5.257 -0.3187 -0.8765  0.6826
 3930SOL    HW212385   2.777   1.014   5.182 -1.0565  0.3080 -1.7771
 3931SOL     OW12386   6.994   1.893   6.607  0.1701  0.0528  0.1717
 3931SOL    HW112387   7.084   1.872   6.582 -0.0257  0.4784 -0.9639
 3931SOL    HW212388   7.001   1.977   6.652  0.4778 -0.4951  1.1610
 3932SOL     OW12389   3.857   1.543   2.462  0.3720  0.2550  0.4913
 3932SOL    HW112390   3.892   1.456   2.484 -0.5234 -0.2357 -0.0334
 3932SOL    HW212391   3.906   1.603   2.519  0.5301 -0.6583  1.3378
 3933SOL     OW12392   5.679   3.285   7.249  0.3743  0.4706  0.2390
 3933SOL    HW112393   5.682   3.222   7.177  0.8686 -1.0833  1.5801
 3933SOL    HW212394   5.585   3.301   7.263  0.2738  0.6673 -0.6540
 3934SOL     OW12395   3.701   3.919   4.678 -0.3158  0.1936 -0.4807
 3934SOL    HW112396   3.712   3.975   4.601  0.4995  0.3731 -0.2365
 3934SOL    HW212397   3.611   3.937   4.708  0.0433  1.6271 -0.2039
 3935SOL     OW12398   3.028   5.887   2.649  0.3628  0.3740  0.4151
 3935SOL    HW112399   3.047   5.860   2.739  3.0481 -0.5498 -0.3712
 3935SOL    HW212400   3.033   5.982   2.651  2.3640  0.2846  0.8817
 3936SOL     OW12401   4.224   3.270   0.498 -0.0589  0.2185 -0.3522
 3936SOL    HW112402   4.219   3.352   0.547 -2.2099 -1.3737  2.2404
 3936SOL    HW212403   4.270   3.210   0.556 -1.5504 -1.3514 -0.7418
 3937SOL     OW12404   3.764   1.920   0.414  0.4635 -0.0749 -0.3745
 3937SOL    HW112405   3.823   1.885   0.348  0.7980  0.1403 -0.1940
 3937SOL    HW212406   3.682   1.873   0.401  0.8630 -0.8153 -0.2305
 3938SOL     OW12407   2.936   5.612   4.599 -0.2107  0.0131 -0.0064
 3938SOL    HW112408   2.873   5.675   4.565 -0.2126  0.0021 -0.0229
 3938SOL    HW212409   2.933   5.539   4.537 -0.6091 -0.2403  0.3152
 3939SOL     OW12410   0.722   0.903   2.893 -0.1471 -0.0433  0.9568
 3939SOL    HW112411   0.699   0.876   2.804  0.0024 -0.8440  1.1603
 3939SOL    HW212412   0.741   0.821   2.939  0.5805  0.4274  1.4996
 3940SOL     OW12413   5.261   4.260   2.417 -0.8730 -0.4072  0.0911
 3940SOL    HW112414   5.242   4.222   2.503 -1.3144 -1.0281 -0.2706
 3940SOL    HW212415   5.213   4.204   2.356 -0.8562  0.2470 -0.5268
 3941SOL     OW12416   2.187   4.810   4.086  0.2348  0.1174 -0.0249
 3941SOL    HW112417   2.108   4.814   4.031 -0.0829 -3.3786  0.0557
 3941SOL    HW212418   2.257   4.788   4.024  0.6391  0.4885  0.3083
 3942SOL     OW12419   1.028   3.959   0.240 -0.5652  0.1280  0.5165
 3942SOL    HW112420   1.037   4.045   0.280 -0.4708  0.9778 -1.3141
 3942SOL    HW212421   0.940   3.930   0.263 -0.5309  0.6230  1.2868
 3943SOL     OW12422   0.963   1.431   4.891 -0.0130  0.2819  0.2885
 3943SOL    HW112423   0.872   1.460   4.893 -0.1748 -0.1523 -0.6087
 3943SOL    HW212424   0.981   1.415   4.798  0.8761  0.0573  0.4971
 3944SOL     OW12425   4.287   1.864   6.834 -0.3329  0.4275 -0.1792
 3944SOL    HW112426   4.318   1.952   6.813 -1.1590  0.5460 -0.9402
 3944SOL    HW212427   4.224   1.876   6.904 -0.9040  0.5213 -0.6990
 3945SOL     OW12428   1.595   5.591   0.376  0.9260  0.3434 -0.0279
 3945SOL    HW112429   1.577   5.684   0.365  2.9796  0.4752 -2.6623
 3945SOL    HW212430   1.534   5.563   0.444 -0.8064  3.2607 -0.2935
 3946SOL     OW12431   6.501   2.567   5.317 -0.2240  0.1093 -0.4009
 3946SOL    HW112432   6.443   2.643   5.313 -0.1769  0.1436 -0.4225
 3946SOL    HW212433   6.543   2.564   5.232 -0.2940  0.0056 -0.4314
 3947SOL     OW12434   5.619   4.954   3.463 -0.2800  0.1965  0.4298
 3947SOL    HW112435   5.548   4.930   3.524 -0.3374 -1.3313 -0.2225
 3947SOL    HW212436   5.639   4.873   3.417  1.7752  0.6708  0.4646
 3948SOL     OW12437   7.033   2.013   4.900  0.7873 -0.1246  0.6539
 3948SOL    HW112438   6.943   2.009   4.932  0.4339  0.9901 -0.1324
 3948SOL    HW212439   7.067   2.095   4.935  1.5916 -0.6730  1.1694
 3949SOL     OW12440   1.309   5.042   6.386 -0.9186 -0.1999 -0.1416
 3949SOL    HW112441   1.400   5.019   6.367 -0.8961  1.4788 -2.2436
 3949SOL    HW212442   1.269   4.959   6.415  0.7088 -1.4590 -1.4046
 3950SOL     OW12443   6.447   3.678   6.688  0.3025 -0.1623  0.2851
 3950SOL    HW112444   6.453   3.770   6.664  1.8501 -0.2694  0.1621
 3950SOL    HW212445   6.369   3.646   6.642 -0.2018  1.0597  0.2687
 3951SOL     OW12446   2.581   1.156   1.177 -0.0135 -0.1823 -0.1031
 3951SOL    HW112447   2.621   1.218   1.116 -1.9428  0.3521 -0.8546
 3951SOL    HW212448   2.559   1.209   1.254 -0.0769 -0.2853 -0.0502
 3952SOL     OW12449   3.734   5.889   5.582  0.2051  0.1445  0.5459
 3952SOL    HW112450   3.775   5.968   5.617  0.0213 -0.1515  1.4368
 3952SOL    HW212451   3.646   5.888   5.620  0.5335 -0.9840  1.2973
 3953SOL     OW12452   6.654   5.919   6.064  0.0461 -0.4807 -0.2128
 3953SOL    HW112453   6.667   5.848   6.127 -0.2372 -0.1875  0.1777
 3953SOL    HW212454   6.648   5.875   5.980  0.8856 -0.8430 -0.0918
 3954SOL     OW12455   7.058   4.270   5.755  0.1897  0.7551 -0.0078
 3954SOL    HW112456   7.091   4.287   5.667  1.0132  1.6661  0.4707
 3954SOL    HW212457   6.990   4.336   5.769 -2.6085 -1.7161 -1.3604
 3955SOL     OW12458   0.302   0.784   5.527 -0.0224  0.1871 -0.3267
 3955SOL    HW112459   0.373   0.842   5.556 -1.0926  1.2779  0.1285
 3955SOL    HW212460   0.304   0.790   5.432  0.1414  0.6569 -0.2991
 3956SOL     OW12461   3.624   0.543   3.189  0.0977 -0.1735 -0.3399
 3956SOL    HW112462   3.701   0.582   3.146  0.1331  0.8954  0.6725
 3956SOL    HW212463   3.640   0.449   3.185  0.7154 -0.0337 -1.5235
 3957SOL     OW12464   4.892   5.364   6.924  0.2342  0.1852 -0.1794
 3957SOL    HW112465   4.895   5.440   6.865  0.9689 -0.1945 -0.6334
 3957SOL    HW212466   4.939   5.392   7.002 -1.4100  0.9649  0.5719
 3958SOL     OW12467   3.015   3.437   5.601 -0.4773  0.7780 -0.6707
 3958SOL    HW112468   2.937   3.488   5.576 -1.1891  0.7328  1.3547
 3958SOL    HW212469   3.019   3.367   5.536 -2.0138  0.9087 -0.9273
 3959SOL     OW12470   3.978   5.381   5.790  0.2462 -0.2771 -0.5066
 3959SOL    HW112471   4.074   5.383   5.797  0.2449 -1.0646 -0.1822
 3959SOL    HW212472   3.950   5.332   5.867 -0.3908 -0.5203 -0.8914
 3960SOL     OW12473   4.051   1.090   4.612 -0.8580 -0.4846  0.7112
 3960SOL    HW112474   4.029   1.171   4.567  0.3857 -0.2379  0.5379
 3960SOL    HW212475   4.028   1.106   4.704 -1.7076 -0.3632  0.4855
 3961SOL     OW12476   3.362   0.832   6.438  0.1568 -0.0893  0.1721
 3961SOL    HW112477   3.329   0.863   6.354  1.0224  0.6411  0.0950
 3961SOL    HW212478   3.429   0.768   6.415 -0.2399 -0.5556  0.3146
 3962SOL     OW12479   0.520   2.752   2.977 -0.0386 -0.6334  0.6734
 3962SOL    HW112480   0.558   2.690   3.039  1.5011 -0.7281 -0.3447
 3962SOL    HW212481   0.564   2.735   2.894 -0.0232  1.3897  0.2182
 3963SOL     OW12482   3.587   3.118   2.584 -0.6803  0.4663  0.4271
 3963SOL    HW112483   3.635   3.036   2.586 -1.0122  0.2495 -0.4403
 3963SOL    HW212484   3.496   3.093   2.570 -0.7818  0.9790  0.1389
 3964SOL     OW12485   4.683   6.782   2.263  0.3371 -0.2158  0.1596
 3964SOL    HW112486   4.658   6.723   2.334  0.9553 -1.0650 -0.3275
 3964SOL    HW212487   4.725   6.726   2.198  0.8263  0.7378 -0.3622
 3965SOL     OW12488   0.044   3.860   6.835 -0.2656  0.3362 -0.5773
 3965SOL    HW112489   0.099   3.819   6.902  2.3333  2.2250 -1.4830
 3965SOL    HW212490   0.054   3.804   6.758 -1.1031 -0.3316 -0.2115
 3966SOL     OW12491   6.015   3.726   6.220  0.4058  0.4409 -0.5568
 3966SOL    HW112492   6.050   3.734   6.309 -0.2880 -1.0444 -0.1354
 3966SOL    HW212493   5.971   3.641   6.219 -2.4021  1.8553 -1.3554
 3967SOL     OW12494   5.797   2.545   0.052  0.0032 -0.2570  0.0665
 3967SOL    HW112495   5.880   2.552   0.099 -0.8389  3.2201  1.1811
 3967SOL    HW212496   5.810   2.597  -0.028 -0.1452 -2.1496 -1.2033
 3968SOL     OW12497   4.152   0.331   4.427 -0.1603  1.1351 -0.3656
 3968SOL    HW112498   4.248   0.332   4.423 -0.0391  0.8021  1.7556
 3968SOL    HW212499   4.127   0.248   4.386  0.7523 -0.9143  2.9959
 3969SOL     OW12500   2.453   1.060   7.249  0.2286 -0.1304 -0.0086
 3969SOL    HW112501   2.367   1.102   7.243  0.2320  0.0871  1.3255
 3969SOL    HW212502   2.460   1.033   7.341  2.0052  0.7404  0.1300
 3970SOL     OW12503   4.997   4.404   1.795 -0.1946 -0.0361 -0.1262
 3970SOL    HW112504   4.970   4.312   1.792 -0.1462 -0.0531 -0.0437
 3970SOL    HW212505   4.929   4.446   1.848 -0.8903  0.2142 -1.2162
 3971SOL     OW12506   5.554   3.899   4.156 -0.0151  0.5951  0.2593
 3971SOL    HW112507   5.512   3.934   4.078  1.4416  0.5809 -0.5565
 3971SOL    HW212508   5.626   3.960   4.174  0.9749 -0.5646  0.3207
 3972SOL     OW12509   6.304   0.133   2.490  0.1927  0.3266 -0.8903
 3972SOL    HW112510   6.364   0.058   2.482 -1.1973 -0.6609 -2.6182
 3972SOL    HW212511   6.314   0.180   2.407  0.6195  1.7361 -0.0470
 3973SOL     OW12512   6.117   6.590   3.930  0.6854  0.4858 -0.4148
 3973SOL    HW112513   6.210   6.583   3.952  0.6253  0.8192 -0.0480
 3973SOL    HW212514   6.101   6.518   3.869  1.0353  0.0251  0.0302
 3974SOL     OW12515   4.123   3.218   6.511  0.2522  0.0107  0.0805
 3974SOL    HW112516   4.189   3.157   6.546 -0.4740  1.0647  3.4914
 3974SOL    HW212517   4.039   3.181   6.539 -0.4372  0.3993 -1.4316
 3975SOL     OW12518   0.780   6.752   4.125 -0.1832 -0.1125  0.3853
 3975SOL    HW112519   0.847   6.742   4.192  0.3548 -0.5168 -0.2125
 3975SOL    HW212520   0.757   6.845   4.129 -1.7422 -0.5397  2.6334
 3976SOL     OW12521   3.449   3.177   3.484 -0.3423 -0.1750  0.5860
 3976SOL    HW112522   3.532   3.224   3.492  0.0496 -0.5992 -0.8129
 3976SOL    HW212523   3.394   3.235   3.432 -0.3594 -0.6125  0.1146
 3977SOL     OW12524   4.740   3.797   3.256  0.0089 -0.0764  0.2897
 3977SOL    HW112525   4.687   3.724   3.226 -0.7973 -0.2687  2.1013
 3977SOL    HW212526   4.689   3.837   3.326  1.0260  1.4274  0.2031
 3978SOL     OW12527   6.953   6.723   6.048 -0.1106  0.2124  0.1232
 3978SOL    HW112528   6.885   6.661   6.023 -0.0244 -0.6603  1.9189
 3978SOL    HW212529   6.921   6.762   6.129  0.6073  1.3003 -0.1054
 3979SOL     OW12530   2.418   2.036   1.661 -0.1813  0.1127  0.3581
 3979SOL    HW112531   2.461   2.119   1.678  0.0458 -0.1570  1.0958
 3979SOL    HW212532   2.333   2.043   1.704  0.0621 -0.2522  0.8943
 3980SOL     OW12533   3.949   3.775   2.728 -0.3153 -0.2555 -0.1875
 3980SOL    HW112534   3.860   3.741   2.737 -0.0034 -1.5685 -1.9231
 3980SOL    HW212535   3.986   3.770   2.816 -1.7447 -0.2686  0.4225
 3981SOL     OW12536   3.572   6.485   1.584 -0.1396  0.1262 -0.0304
 3981SOL    HW112537   3.625   6.416   1.543  0.7593  1.6998 -1.6209
 3981SOL    HW212538   3.632   6.528   1.645 -0.1948  0.5381 -0.2600
 3982SOL     OW12539   2.073   1.628   2.520 -0.1311 -0.3468  0.7245
 3982SOL    HW112540   2.002   1.565   2.527  0.1640 -0.8211 -0.3887
 3982SOL    HW212541   2.030   1.712   2.502 -0.4681 -0.3790  1.3419
 3983SOL     OW12542   7.130   2.795   6.463 -0.3181 -0.1812 -0.0606
 3983SOL    HW112543   7.158   2.876   6.420 -0.1306  0.1851  0.7280
 3983SOL    HW212544   7.209   2.740   6.464 -0.7606 -0.8828 -1.7042
 3984SOL     OW12545   4.568   0.384   4.838 -0.3375  0.1269  0.1167
 3984SOL    HW112546   4.560   0.417   4.928 -3.5860  1.7598 -0.6989
 3984SOL    HW212547   4.520   0.301   4.839 -1.5637  0.8113 -0.3883
 3985SOL     OW12548   4.853   2.669   3.014  0.0099  0.2231  0.4008
 3985SOL    HW112549   4.864   2.755   2.976  0.7416  1.7388  3.8587
 3985SOL    HW212550   4.941   2.639   3.036 -0.2952 -1.0453 -0.0346
 3986SOL     OW12551   4.959   1.637   6.233 -0.0650 -0.3008  0.5655
 3986SOL    HW112552   5.038   1.609   6.187  1.0251  3.8048 -0.2877
 3986SOL    HW212553   4.983   1.635   6.325  0.2198 -1.3709  0.4741
 3987SOL     OW12554   3.151   0.204   0.933 -0.4964  0.3883  0.1454
 3987SOL    HW112555   3.202   0.230   0.856 -2.1104 -0.7412 -1.3596
 3987SOL    HW212556   3.135   0.111   0.922 -0.8827  0.2374  1.7968
 3988SOL     OW12557   4.843   6.746   3.456  0.4878 -0.5625 -0.3510
 3988SOL    HW112558   4.820   6.670   3.510  0.6226  0.9213  1.8588
 3988SOL    HW212559   4.938   6.757   3.469  0.6081 -0.4901 -1.2808
 3989SOL     OW12560   2.074   5.644   5.345 -0.0576 -0.3117 -0.1887
 3989SOL    HW112561   2.117   5.567   5.382  0.2101 -0.7387 -1.3606
 3989SOL    HW212562   2.114   5.718   5.390 -0.9128 -0.8924  1.5500
 3990SOL     OW12563   0.618   6.608   1.515  0.0153 -0.0281 -0.4327
 3990SOL    HW112564   0.597   6.682   1.572  0.0799 -0.8015  0.6181
 3990SOL    HW212565   0.678   6.644   1.450  0.0698  0.8374  0.0856
 3991SOL     OW12566   5.587   0.757   1.316  0.1677  0.4322  0.2613
 3991SOL    HW112567   5.535   0.820   1.366 -0.1878 -0.5843  1.1932
 3991SOL    HW212568   5.533   0.736   1.240 -0.5211 -0.1597  0.9104
 3992SOL     OW12569   1.914   2.903   4.823 -0.3134  0.4174  0.2896
 3992SOL    HW112570   1.998   2.877   4.783 -0.3113 -1.8026  1.6929
 3992SOL    HW212571   1.934   2.986   4.867  0.2358  1.7524 -2.2988
 3993SOL     OW12572   4.312   4.803   2.538 -0.4177  0.1929 -0.7162
 3993SOL    HW112573   4.223   4.776   2.515 -1.1496  1.0920  0.9760
 3993SOL    HW212574   4.343   4.737   2.599 -0.1305  0.1681 -0.8897
 3994SOL     OW12575   3.441   2.705   3.231  0.4150  0.2480  0.3653
 3994SOL    HW112576   3.452   2.788   3.279 -0.6112  0.1799  0.7375
 3994SOL    HW212577   3.427   2.640   3.300 -1.5022  0.2177 -0.0201
 3995SOL     OW12578   5.861   3.107   5.363 -0.7132 -0.4238 -0.4526
 3995SOL    HW112579   5.910   3.073   5.438  0.2231  1.1473 -0.3189
 3995SOL    HW212580   5.901   3.192   5.344 -0.8424 -0.8454 -2.8331
 3996SOL     OW12581   7.035   0.975   4.018 -0.1108  0.2259  0.4040
 3996SOL    HW112582   7.032   1.007   3.928 -0.2430 -1.6010 -0.2428
 3996SOL    HW212583   7.052   1.054   4.070  0.5464  1.2067 -1.2520
 3997SOL     OW12584   2.339   3.930   1.710  0.0568 -0.2550 -0.3321
 3997SOL    HW112585   2.320   4.024   1.709 -1.3250 -0.4825  1.4259
 3997SOL    HW212586   2.428   3.923   1.677  1.1114  1.9208  1.8636
 3998SOL     OW12587   5.533   0.346   3.470  0.3660  0.0224  0.6845
 3998SOL    HW112588   5.610   0.403   3.472  0.4726 -0.1424  1.4049
 3998SOL    HW212589   5.565   0.261   3.498 -0.1458  0.0365  1.3190
 3999SOL     OW12590   4.218   3.556   6.970  0.3149 -0.1449  0.0500
 3999SOL    HW112591   4.160   3.503   7.025  2.1148  0.6128  2.7495
 3999SOL    HW212592   4.165   3.632   6.945 -0.1733  0.0488  1.6463
 4000SOL     OW12593   6.340   1.309   0.036 -0.3459  0.2013  0.0014
 4000SOL    HW112594   6.258   1.358   0.037 -0.5088 -0.0824  1.4221
 4000SOL    HW212595   6.399   1.360   0.092 -0.1401 -0.5747  0.5001
 4001SOL     OW12596   6.915   5.771   2.712  0.1752  0.0447  0.1455
 4001SOL    HW112597   7.008   5.794   2.702  0.0777  0.2216 -0.3498
 4001SOL    HW212598   6.907   5.687   2.666  0.3609 -0.6073  1.2732
 4002SOL     OW12599   0.690   6.763   3.724  0.1592  0.1349  0.0695
 4002SOL    HW112600   0.760   6.703   3.749  0.5971  0.7018  0.2059
 4002SOL    HW212601   0.635   6.771   3.802  1.7503  2.2243  1.0188
 4003SOL     OW12602   6.288   5.237   2.437 -0.0662 -0.0869 -0.0325
 4003SOL    HW112603   6.276   5.238   2.532  0.0891  1.0083 -0.0228
 4003SOL    HW212604   6.319   5.148   2.418 -2.1171 -0.9732  0.6754
 4004SOL     OW12605   6.349   0.697   1.718  0.3200 -0.4810  0.4968
 4004SOL    HW112606   6.289   0.722   1.788  0.7675  0.7462  0.4468
 4004SOL    HW212607   6.325   0.606   1.697 -0.9078 -0.2995  1.0964
 4005SOL     OW12608   5.245   5.430   2.301 -0.2493 -0.1914 -0.5323
 4005SOL    HW112609   5.263   5.518   2.336 -0.6447  0.7435 -2.6068
 4005SOL    HW212610   5.292   5.371   2.360  0.2087  1.4261  0.7630
 4006SOL     OW12611   4.623   4.938   6.052  0.9847  0.0258  0.3015
 4006SOL    HW112612   4.562   4.881   6.100 -2.5773  2.7308 -0.7315
 4006SOL    HW212613   4.628   5.018   6.105 -0.8204  1.9752 -2.2816
 4007SOL     OW12614   4.177   3.399   3.895  0.2722 -0.3260  0.3257
 4007SOL    HW112615   4.223   3.445   3.826 -1.0929 -0.4324 -0.6852
 4007SOL    HW212616   4.153   3.467   3.958 -0.5396  0.1433 -0.4792
 4008SOL     OW12617   3.073   7.060   2.214  0.5085  0.0888 -0.3898
 4008SOL    HW112618   3.095   7.132   2.154 -0.1956  0.3809 -0.3026
 4008SOL    HW212619   3.050   6.987   2.157 -0.1265  0.3565 -0.4788
 4009SOL     OW12620   2.757   1.874   5.974 -0.1567 -0.2511  0.3677
 4009SOL    HW112621   2.685   1.937   5.979  0.4780  0.4336  0.8815
 4009SOL    HW212622   2.809   1.891   6.053  0.7613 -0.5098 -0.1831
 4010SOL     OW12623   0.770   1.833   4.634  0.7293 -0.2460  0.5592
 4010SOL    HW112624   0.713   1.910   4.631  2.0994  0.7430 -2.9563
 4010SOL    HW212625   0.719   1.763   4.594  1.3267  0.2317 -1.0991
 4011SOL     OW12626   5.904   1.297   0.438  0.0201  0.0059  0.0052
 4011SOL    HW112627   5.993   1.284   0.407  0.4359  0.3412  1.0360
 4011SOL    HW212628   5.854   1.225   0.400  0.8549 -0.5416 -0.0678
 4012SOL     OW12629   4.188   5.875   0.363  0.5192 -0.1150  0.1825
 4012SOL    HW112630   4.238   5.884   0.444  1.3095  2.3498 -0.5315
 4012SOL    HW212631   4.097   5.887   0.390  0.5173 -2.0252  1.0940
 4013SOL     OW12632   2.220   5.543   7.253 -0.6764  0.1419 -0.0104
 4013SOL    HW112633   2.230   5.525   7.159 -0.2719 -0.7849  0.2062
 4013SOL    HW212634   2.251   5.634   7.263 -0.4094  0.1341 -0.7203
 4014SOL     OW12635   4.078   2.876   4.037  0.0982 -0.1281 -0.2618
 4014SOL    HW112636   4.088   2.924   3.955 -0.5900  0.1136 -0.2008
 4014SOL    HW212637   4.103   2.786   4.015 -3.1912 -0.7973 -1.5403
 4015SOL     OW12638   6.112   0.840   2.826 -0.1966 -0.0536  0.1313
 4015SOL    HW112639   6.023   0.817   2.852 -0.7530  0.1342 -1.5053
 4015SOL    HW212640   6.159   0.757   2.823 -0.8271 -0.3845 -0.7987
 4016SOL     OW12641   3.333   1.493   1.032 -0.1452 -0.1781  0.0024
 4016SOL    HW112642   3.401   1.427   1.045 -0.5955 -0.3448  1.5928
 4016SOL    HW212643   3.301   1.513   1.120 -1.4736  0.6163 -0.6388
 4017SOL     OW12644   3.250   1.261   5.710  0.1938  0.5831  0.5524
 4017SOL    HW112645   3.278   1.226   5.626 -2.1844  1.8717 -0.8057
 4017SOL    HW212646   3.322   1.317   5.738  0.4969  1.0823 -1.1999
 4018SOL     OW12647   1.739   2.145   3.655 -0.1624 -0.1620 -0.4364
 4018SOL    HW112648   1.658   2.096   3.643 -1.2111  1.3792  0.1976
 4018SOL    HW212649   1.749   2.153   3.750 -0.6117  1.7565 -0.5123
 4019SOL     OW12650   2.621   2.669   0.657  0.5312  0.3709 -0.1945
 4019SOL    HW112651   2.617   2.602   0.725  2.1486 -0.8849 -1.3114
 4019SOL    HW212652   2.591   2.625   0.577  0.5548  1.2760 -0.7107
 4020SOL     OW12653   3.329   5.935   3.225  0.0621  0.3251 -0.2967
 4020SOL    HW112654   3.375   5.990   3.160  1.9975 -0.7131  0.1581
 4020SOL    HW212655   3.346   5.978   3.308  0.1376 -0.0073 -0.1397
 4021SOL     OW12656   7.101   0.610   2.585 -0.1209  0.1444  0.3887
 4021SOL    HW112657   7.130   0.690   2.629 -0.6206 -0.3202  1.5904
 4021SOL    HW212658   7.124   0.540   2.647  0.7844 -0.6903 -0.8797
 4022SOL     OW12659   6.769   3.327   1.703 -0.2968  0.1441 -0.3225
 4022SOL    HW112660   6.720   3.391   1.651 -1.9669 -0.4811  0.4510
 4022SOL    HW212661   6.813   3.272   1.638 -0.1428  1.0652 -1.0191
 4023SOL     OW12662   3.672   4.682   7.081  0.2245  0.0900  0.3002
 4023SOL    HW112663   3.719   4.599   7.072  0.1736  0.1679 -0.8323
 4023SOL    HW212664   3.738   4.743   7.112  0.7637  0.0796 -0.8007
 4024SOL     OW12665   2.514   0.521   2.673 -0.2565  0.3609 -0.2030
 4024SOL    HW112666   2.484   0.464   2.744 -1.4724  2.1538  0.7644
 4024SOL    HW212667   2.467   0.491   2.596 -2.4672  1.3423  0.7246
 4025SOL     OW12668   5.271   3.783   4.715  0.4399 -0.0868  0.3071
 4025SOL    HW112669   5.244   3.803   4.805 -0.7538 -0.2371 -0.0079
 4025SOL    HW212670   5.278   3.868   4.672 -0.7291 -0.1189  0.0563
 4026SOL     OW12671   0.530   4.948   3.691  0.1012 -0.0625  0.4606
 4026SOL    HW112672   0.551   5.023   3.748 -0.4036  0.8159 -0.4874
 4026SOL    HW212673   0.584   4.963   3.613  0.0424 -0.7272  0.2947
 4027SOL     OW12674   3.392   4.703   7.247 -0.2711  0.0121 -0.3345
 4027SOL    HW112675   3.482   4.677   7.226 -0.0937  0.4615 -0.1429
 4027SOL    HW212676   3.381   4.680   7.339  0.0557  1.0456 -0.0209
 4028SOL     OW12677   2.372   6.453   3.155 -0.3245 -0.6894  0.0561
 4028SOL    HW112678   2.296   6.510   3.152 -0.7400 -1.2800 -0.9393
 4028SOL    HW212679   2.378   6.416   3.067  1.9141  0.4092 -0.2878
 4029SOL     OW12680   4.962   5.527   4.989 -0.2384 -0.1195 -0.0848
 4029SOL    HW112681   4.938   5.584   5.062  3.0059 -1.8901  2.5265
 4029SOL    HW212682   4.895   5.459   4.988  1.1596 -1.6783  3.2372
 4030SOL     OW12683   0.143   2.125   3.889 -0.2294 -0.0311  0.0958
 4030SOL    HW112684   0.195   2.105   3.811  0.4406  0.3570  0.4402
 4030SOL    HW212685   0.202   2.176   3.945 -1.1839  0.9915  0.2036
 4031SOL     OW12686   3.303   1.169   4.520 -0.1055 -0.4190  0.2981
 4031SOL    HW112687   3.225   1.138   4.474 -0.4423  1.7431 -0.6475
 4031SOL    HW212688   3.270   1.232   4.584  0.9193  1.2049 -0.7380
 4032SOL     OW12689   1.785   4.702   7.217 -0.2778 -0.1150 -0.1883
 4032SOL    HW112690   1.830   4.760   7.156 -0.0379  0.7885  0.8289
 4032SOL    HW212691   1.696   4.696   7.184  0.0509 -0.2585 -1.0541
 4033SOL     OW12692   6.553   0.281   5.354  0.1645  0.2550  0.3696
 4033SOL    HW112693   6.469   0.258   5.393  0.2523 -1.7149 -0.5298
 4033SOL    HW212694   6.593   0.197   5.331  0.9785  1.2649 -2.1045
 4034SOL     OW12695   5.442   7.237   0.406  0.5402 -0.3651  0.2913
 4034SOL    HW112696   5.373   7.211   0.467 -0.2563 -1.5946 -1.0985
 4034SOL    HW212697   5.428   7.331   0.393 -0.8281 -0.5754  0.1280
 4035SOL     OW12698   5.734   0.099   6.933  0.4300 -0.7755 -0.0981
 4035SOL    HW112699   5.695   0.183   6.956 -0.5259 -1.5945  1.3038
 4035SOL    HW212700   5.667   0.056   6.879  0.6298 -0.9395 -0.2156
 4036SOL     OW12701   0.279   2.249   0.471 -0.1376  0.4657 -0.5557
 4036SOL    HW112702   0.321   2.222   0.389  2.1582 -1.3293  1.1312
 4036SOL    HW212703   0.342   2.309   0.511 -0.2840 -0.3040  0.8581
 4037SOL     OW12704   5.944   3.521   1.051  0.0149  0.2561  0.6278
 4037SOL    HW112705   5.965   3.613   1.065  0.1968  0.1692  0.9344
 4037SOL    HW212706   5.849   3.517   1.048 -0.0427  0.2483  2.0476
 4038SOL     OW12707   1.924   5.945   4.678 -0.5069  0.3870 -0.0130
 4038SOL    HW112708   1.954   5.987   4.597  1.6850 -0.1546  0.4804
 4038SOL    HW212709   1.871   5.871   4.648 -1.2133  1.2505 -0.9281
 4039SOL     OW12710   5.610   5.150   3.272  0.1474 -0.4614 -0.0867
 4039SOL    HW112711   5.603   5.088   3.344 -0.4154 -0.1918  0.1020
 4039SOL    HW212712   5.519   5.178   3.256  0.2672 -0.5576 -0.9299
 4040SOL     OW12713   1.189   6.988   7.115 -0.5423  0.1326  0.3530
 4040SOL    HW112714   1.118   6.996   7.178  0.3094  0.7657  1.2519
 4040SOL    HW212715   1.262   7.035   7.155  0.9928 -2.1630  0.3594
 4041SOL     OW12716   4.473   2.727   4.136  0.5984  0.6611  0.0185
 4041SOL    HW112717   4.482   2.818   4.108 -2.5189  1.1810  0.4461
 4041SOL    HW212718   4.494   2.675   4.059  2.2624  1.7401 -0.2761
 4042SOL     OW12719   6.087   4.564   6.457 -0.4449  0.3047  0.4178
 4042SOL    HW112720   6.119   4.611   6.381  1.4201  0.1999  1.1227
 4042SOL    HW212721   6.160   4.564   6.519 -2.1663  1.0566  2.5242
 4043SOL     OW12722   3.273   5.480   6.788  0.6512  0.2552 -0.6749
 4043SOL    HW112723   3.309   5.481   6.876  0.0463  0.7665 -0.4230
 4043SOL    HW212724   3.303   5.398   6.749  0.1091 -0.4359  0.3525
 4044SOL     OW12725   3.472   1.248   1.079 -0.2120  0.2919 -0.4271
 4044SOL    HW112726   3.495   1.194   1.003 -0.9797 -1.7368  0.7364
 4044SOL    HW212727   3.547   1.241   1.138 -0.3882  0.3448 -0.1932
 4045SOL     OW12728   5.799   1.652   4.464 -0.2036  0.5523  0.8880
 4045SOL    HW112729   5.828   1.573   4.510 -1.8597 -0.2034  0.6845
 4045SOL    HW212730   5.766   1.709   4.534  0.6563  0.9191  0.9982
 4046SOL     OW12731   6.987   1.075   1.311  0.1522  0.1489  0.6526
 4046SOL    HW112732   7.024   1.064   1.399 -0.4464 -2.9500  0.5782
 4046SOL    HW212733   6.894   1.054   1.321 -0.3881  1.9688 -0.3262
 4047SOL     OW12734   2.892   5.620   5.577 -0.5220  0.1568 -0.1208
 4047SOL    HW112735   2.894   5.716   5.572  1.0704  0.2152  1.2664
 4047SOL    HW212736   2.924   5.600   5.665  2.4662 -1.7602 -1.5617
 4048SOL     OW12737   5.209   7.201   3.081  0.9692  0.0043 -0.3196
 4048SOL    HW112738   5.293   7.158   3.098  1.7765  1.7319  0.2220
 4048SOL    HW212739   5.194   7.188   2.988  2.2911  0.4128 -0.6149
 4049SOL     OW12740   0.195   1.251   5.243 -0.3800  0.3724 -0.3520
 4049SOL    HW112741   0.261   1.187   5.215  0.8665  0.1326  2.9146
 4049SOL    HW212742   0.172   1.299   5.163  1.4615 -1.6232 -2.1237
 4050SOL     OW12743   5.421   3.442   7.210  0.3368  0.2101  0.0580
 4050SOL    HW112744   5.425   3.422   7.303 -0.7588  0.6795  0.2116
 4050SOL    HW212745   5.361   3.516   7.203 -0.1016 -0.2319 -1.0817
 4051SOL     OW12746   1.617   3.014   4.619 -0.4495 -0.1117  0.5839
 4051SOL    HW112747   1.708   2.986   4.629 -1.0956 -2.2300  0.6184
 4051SOL    HW212748   1.612   3.096   4.667  0.5529 -1.7774  3.6295
 4052SOL     OW12749   2.384   2.423   6.041  0.2993  0.2757 -0.6141
 4052SOL    HW112750   2.458   2.378   5.999  0.2328  0.2960 -0.7559
 4052SOL    HW212751   2.423   2.493   6.092  0.4148 -0.0155 -0.2983
 4053SOL     OW12752   4.316   5.077   5.624  0.0384  0.7666 -0.4653
 4053SOL    HW112753   4.254   5.051   5.555 -1.2893 -0.1606  1.0399
 4053SOL    HW212754   4.401   5.050   5.591 -0.8599 -1.9340 -0.6962
 4054SOL     OW12755   5.572   6.497   2.295 -0.2618  0.2058 -0.1016
 4054SOL    HW112756   5.642   6.452   2.247  0.2085 -0.6524  1.3426
 4054SOL    HW212757   5.616   6.570   2.338 -0.9364  1.7807 -2.0442
 4055SOL     OW12758   0.078   2.008   1.885 -0.0289 -0.5054  0.3244
 4055SOL    HW112759   0.170   1.985   1.890 -0.0293 -0.3812  1.0451
 4055SOL    HW212760   0.064   2.036   1.795  0.3548 -1.7066 -0.1056
 4056SOL     OW12761   5.029   3.649   4.670  0.1884 -0.2004  0.2284
 4056SOL    HW112762   5.123   3.667   4.660  0.0692  0.0899 -0.3567
 4056SOL    HW212763   5.007   3.594   4.595  0.1319 -1.1942  0.9625
 4057SOL     OW12764   6.506   4.354   6.870  0.4758  0.3022  0.3061
 4057SOL    HW112765   6.478   4.282   6.927 -0.2078 -0.7597 -1.3472
 4057SOL    HW212766   6.601   4.357   6.882  0.4701 -0.6406  0.6704
 4058SOL     OW12767   4.525   6.126   2.205  0.2008 -0.1144 -0.2249
 4058SOL    HW112768   4.567   6.213   2.206  0.8910 -0.4432  0.7892
 4058SOL    HW212769   4.583   6.072   2.151 -0.5552  0.1998 -1.3708
 4059SOL     OW12770   5.166   2.834   2.496 -0.2085 -0.1160 -0.6396
 4059SOL    HW112771   5.124   2.750   2.477  2.8232 -2.0023  0.6044
 4059SOL    HW212772   5.168   2.838   2.592 -1.6351  2.1190 -0.6555
 4060SOL     OW12773   0.590   0.427   2.228 -0.0845 -0.0300  0.4194
 4060SOL    HW112774   0.544   0.479   2.294 -0.7136 -1.6112  1.2711
 4060SOL    HW212775   0.563   0.464   2.144 -0.0958  1.3337  1.0159
 4061SOL     OW12776   2.968   6.436   5.255 -0.1995  0.6352  0.1101
 4061SOL    HW112777   2.925   6.405   5.175 -0.2441  2.2488 -0.5220
 4061SOL    HW212778   3.061   6.440   5.233 -0.1453  0.5513  0.3220
 4062SOL     OW12779   3.529   2.014   5.534  0.3525  0.2218  0.3284
 4062SOL    HW112780   3.460   1.991   5.473  0.4767  0.1002  0.2340
 4062SOL    HW212781   3.607   2.024   5.480  0.6260 -0.6145  0.5524
 4063SOL     OW12782   6.616   2.420   3.481  0.2954 -0.0498  0.2929
 4063SOL    HW112783   6.653   2.473   3.552  0.2670  0.9584 -0.4297
 4063SOL    HW212784   6.537   2.466   3.455  0.5836 -0.1165 -0.7435
 4064SOL     OW12785   1.936   0.067   2.853  0.1154  0.3365  0.2891
 4064SOL    HW112786   1.986  -0.007   2.890  0.4128  1.3762  2.0438
 4064SOL    HW212787   1.847   0.032   2.841  0.2409 -0.3142  1.1700
 4065SOL     OW12788   5.297   6.001   4.738  0.2782  0.3884  0.3276
 4065SOL    HW112789   5.246   6.070   4.696  3.7809  1.2495 -2.7455
 4065SOL    HW212790   5.331   6.041   4.818 -2.1858  0.4095  1.3999
 4066SOL     OW12791   1.614   6.350   1.735 -0.0637  0.0022 -0.1617
 4066SOL    HW112792   1.535   6.312   1.697 -0.2438 -0.6650  0.8626
 4066SOL    HW212793   1.655   6.397   1.663 -0.6753 -0.8080 -1.0450
 4067SOL     OW12794   3.388   3.188   4.105  0.2517 -0.3996 -0.4352
 4067SOL    HW112795   3.411   3.131   4.033  3.5393  0.8268 -0.4753
 4067SOL    HW212796   3.327   3.252   4.068 -0.9822 -1.9918 -1.1557
 4068SOL     OW12797   2.300   2.801   0.527  0.0564 -0.0193  0.1100
 4068SOL    HW112798   2.322   2.715   0.489  0.0658  0.1391 -0.2502
 4068SOL    HW212799   2.376   2.824   0.580 -0.6472 -0.9970  1.5573
 4069SOL     OW12800   2.328   0.788   3.760 -0.7610  0.1881  0.1987
 4069SOL    HW112801   2.404   0.745   3.720  0.3352  1.9384  0.3365
 4069SOL    HW212802   2.340   0.775   3.854 -1.8385 -1.4655  0.1297
 4070SOL     OW12803   6.148   1.561   4.686  0.2550 -0.4369  0.7080
 4070SOL    HW112804   6.186   1.579   4.600 -1.1371  0.2745  0.2316
 4070SOL    HW212805   6.157   1.643   4.734 -0.8101 -0.2128  0.5354
 4071SOL     OW12806   7.038   4.702   1.534  0.1492 -0.0032 -0.3153
 4071SOL    HW112807   7.111   4.709   1.595 -0.1867  0.0594  0.0798
 4071SOL    HW212808   7.035   4.609   1.511 -0.4950 -0.2414  0.7174
 4072SOL     OW12809   1.241   2.488   3.335  0.4411 -0.7448  0.1904
 4072SOL    HW112810   1.324   2.521   3.368  0.6149 -0.9159 -0.0758
 4072SOL    HW212811   1.206   2.435   3.407 -0.3251  0.8382  1.0191
 4073SOL     OW12812   5.430   5.978   3.571  0.2332 -0.3012 -0.4399
 4073SOL    HW112813   5.402   6.012   3.656  0.9101 -1.8814  0.4406
 4073SOL    HW212814   5.521   5.950   3.585  0.5001 -0.1733 -1.8050
 4074SOL     OW12815   3.873   4.284   1.753 -0.6283 -0.2014  0.1466
 4074SOL    HW112816   3.939   4.344   1.718  1.1616 -1.1819  1.7168
 4074SOL    HW212817   3.789   4.327   1.736  0.4359  1.3028 -1.4606
 4075SOL     OW12818   1.120   2.674   6.819  0.4301  0.4701  0.5313
 4075SOL    HW112819   1.109   2.678   6.724  0.7727  2.1547  0.5483
 4075SOL    HW212820   1.057   2.738   6.853  1.6128  1.2244  1.3298
 4076SOL     OW12821   0.060   6.888   1.158  1.0884  0.1263  0.4391
 4076SOL    HW112822   0.048   6.944   1.236  0.4005  0.7794 -0.1235
 4076SOL    HW212823   0.010   6.809   1.178  0.9225  0.2858  0.6706
 4077SOL     OW12824   3.939   2.309   4.384  0.4632  0.3800 -0.2660
 4077SOL    HW112825   3.927   2.388   4.437  1.0826  0.6156 -0.4774
 4077SOL    HW212826   3.872   2.315   4.316 -1.7231 -0.9503  1.6964
 4078SOL     OW12827   0.824   4.755   6.987 -0.7775  0.3744  0.3291
 4078SOL    HW112828   0.866   4.788   7.066 -0.0616 -0.1007  0.1632
 4078SOL    HW212829   0.884   4.687   6.956  1.0369  3.2571 -2.8405
 4079SOL     OW12830   1.390   6.051   5.916  0.5605  0.3225 -0.0229
 4079SOL    HW112831   1.483   6.030   5.905  0.3482 -1.1435  0.7912
 4079SOL    HW212832   1.369   6.107   5.841  1.6250 -0.9479 -1.2977
 4080SOL     OW12833   3.489   4.272   4.468 -0.2409 -0.5692  0.2288
 4080SOL    HW112834   3.531   4.258   4.553 -0.1732 -1.2831  0.0755
 4080SOL    HW212835   3.549   4.329   4.421 -0.0276 -0.5953  0.4666
 4081SOL     OW12836   1.103   4.422   1.919 -0.0194 -0.0859 -0.3338
 4081SOL    HW112837   1.166   4.358   1.951 -0.6009 -1.3047 -1.6198
 4081SOL    HW212838   1.026   4.371   1.893 -0.5385  1.1232 -1.2606
 4082SOL     OW12839   5.043   4.138   1.377 -0.0283  0.2677 -0.0479
 4082SOL    HW112840   5.046   4.091   1.460  2.4613 -0.9016 -0.7614
 4082SOL    HW212841   5.049   4.070   1.310  2.5227  1.4741 -1.1031
 4083SOL     OW12842   0.133   6.491   5.835 -0.0274 -0.3328  0.0634
 4083SOL    HW112843   0.128   6.587   5.832  0.7317 -0.3264 -1.7996
 4083SOL    HW212844   0.125   6.464   5.744  1.5486 -1.9539  0.3829
 4084SOL     OW12845   4.047   6.996   3.954  0.0834  0.3650 -0.4631
 4084SOL    HW112846   3.973   7.056   3.970  0.0906  0.4207 -0.6433
 4084SOL    HW212847   4.105   7.045   3.897 -0.1750 -0.0263 -1.0618
 4085SOL     OW12848   3.782   6.181   3.066 -0.4907 -0.5134 -0.1464
 4085SOL    HW112849   3.815   6.119   3.130  2.0750 -0.2075 -1.0908
 4085SOL    HW212850   3.806   6.267   3.101  1.2762 -0.3648 -1.6584
 4086SOL     OW12851   1.328   3.773   2.809 -0.4559 -0.3778 -0.3295
 4086SOL    HW112852   1.285   3.804   2.889 -1.1109 -2.1628  0.0306
 4086SOL    HW212853   1.374   3.693   2.835 -1.3577 -1.4533 -1.8827
 4087SOL     OW12854   6.782   4.973   5.153  0.5580 -0.6876  0.5927
 4087SOL    HW112855   6.723   4.943   5.222 -0.2109 -1.5407 -0.4221
 4087SOL    HW212856   6.852   5.020   5.199  0.9274 -2.6636  2.0952
 4088SOL     OW12857   1.589   2.234   3.238  0.0329 -0.2064 -0.3385
 4088SOL    HW112858   1.585   2.322   3.199 -1.5117 -0.1257 -0.0341
 4088SOL    HW212859   1.680   2.206   3.226  1.1952  2.4334  1.7405
 4089SOL     OW12860   4.578   0.546   5.082  0.4344  0.4955 -0.2875
 4089SOL    HW112861   4.650   0.602   5.111  0.5567 -0.2288  0.8557
 4089SOL    HW212862   4.548   0.502   5.162 -2.5017  2.1763 -0.3793
 4090SOL     OW12863   3.644   3.548   0.091 -0.3213 -0.6021  0.9987
 4090SOL    HW112864   3.725   3.537   0.141 -0.2334 -1.4809  0.6815
 4090SOL    HW212865   3.634   3.465   0.044 -0.8002 -0.0697  0.1493
 4091SOL     OW12866   4.293   6.529   5.129 -0.1747  0.1625 -0.4343
 4091SOL    HW112867   4.279   6.610   5.080  0.5911 -0.6950 -2.0998
 4091SOL    HW212868   4.388   6.519   5.132 -0.1977  0.2547  1.3600
 4092SOL     OW12869   3.629   1.029   5.813 -0.7419 -0.2917  0.2351
 4092SOL    HW112870   3.555   0.972   5.795 -2.1329  1.5832 -0.0878
 4092SOL    HW212871   3.694   1.005   5.747 -1.7606 -0.7115 -0.6215
 4093SOL     OW12872   1.464   6.615   2.077 -0.0006  0.2731  0.3490
 4093SOL    HW112873   1.384   6.624   2.128 -0.2858 -0.5095  0.0445
 4093SOL    HW212874   1.518   6.553   2.127  0.5750  1.0785  0.7438
 4094SOL     OW12875   5.176   1.698   1.803 -0.1887  0.2088  0.0833
 4094SOL    HW112876   5.270   1.681   1.797 -0.0799  0.5869  0.7147
 4094SOL    HW212877   5.165   1.784   1.764 -0.4076 -0.2476 -0.8734
 4095SOL     OW12878   3.095   3.360   4.815  0.2890 -0.1658  0.7100
 4095SOL    HW112879   3.159   3.381   4.883  0.2481 -1.4090  1.1589
 4095SOL    HW212880   3.047   3.285   4.850  0.5801 -1.1273 -0.8865
 4096SOL     OW12881   7.197   2.791   4.489 -0.7644 -0.1108 -0.1327
 4096SOL    HW112882   7.271   2.851   4.477 -1.1230 -0.1579 -2.8609
 4096SOL    HW212883   7.120   2.849   4.495 -0.7689 -0.1716  0.4824
 4097SOL     OW12884   1.529   4.927   2.108  0.0256  0.6428 -0.0043
 4097SOL    HW112885   1.480   5.007   2.127 -1.9241 -0.0544 -1.8415
 4097SOL    HW212886   1.472   4.857   2.140  0.1887 -0.1461 -1.4122
 4098SOL     OW12887   0.815   1.786   7.224 -0.2028  0.2535 -0.5376
 4098SOL    HW112888   0.896   1.835   7.212 -0.6958  0.7142 -2.0876
 4098SOL    HW212889   0.759   1.815   7.152 -1.8922  0.2424  0.7539
 4099SOL     OW12890   1.712   6.083   2.025  0.5933 -0.5119  0.1254
 4099SOL    HW112891   1.627   6.046   2.001  1.0236 -2.4738  1.5802
 4099SOL    HW212892   1.698   6.119   2.113  1.0648 -0.1320  0.0436
 4100SOL     OW12893   1.416   6.579   6.129 -0.5721 -0.1124  0.5358
 4100SOL    HW112894   1.495   6.605   6.177 -0.0585 -0.0213 -0.3460
 4100SOL    HW212895   1.411   6.484   6.141 -0.2098 -0.1477  0.4339
 4101SOL     OW12896   4.200   6.120   6.265  0.0182 -0.7277  0.0363
 4101SOL    HW112897   4.186   6.088   6.354 -0.4391 -0.1579  0.1741
 4101SOL    HW212898   4.277   6.176   6.271 -0.3459 -0.2384  0.1906
 4102SOL     OW12899   5.464   3.067   7.151 -0.2254  0.2977  0.0761
 4102SOL    HW112900   5.391   3.088   7.094 -0.4940  2.0447  1.0368
 4102SOL    HW212901   5.532   3.034   7.092 -1.4200 -0.4194 -0.9270
 4103SOL     OW12902   3.600   2.023   6.490  0.8650 -0.4445  0.0503
 4103SOL    HW112903   3.674   2.021   6.430  2.0699 -0.3800  1.4925
 4103SOL    HW212904   3.525   1.997   6.437  1.9142 -0.5140 -1.4338
 4104SOL     OW12905   6.167   5.527   6.143 -0.0640  0.5149 -0.8902
 4104SOL    HW112906   6.081   5.515   6.101 -1.4546 -2.5792  2.6131
 4104SOL    HW212907   6.165   5.616   6.176 -2.1096  0.3356 -0.4806
 4105SOL     OW12908   2.386   5.340   3.664 -0.1218 -0.2223 -0.3519
 4105SOL    HW112909   2.386   5.258   3.714  1.8906  0.0675  0.1466
 4105SOL    HW212910   2.366   5.313   3.574 -0.5190 -1.1305  0.0075
 4106SOL     OW12911   0.452   4.981   2.102 -0.2628 -0.0747 -0.5422
 4106SOL    HW112912   0.460   4.905   2.161 -0.4560  0.6313  0.4085
 4106SOL    HW212913   0.415   5.050   2.157  0.2807  0.8286 -1.3025
 4107SOL     OW12914   6.087   0.076   4.065  0.0109 -0.0127  0.0565
 4107SOL    HW112915   6.108   0.055   3.974 -0.1297  0.2153 -0.0282
 4107SOL    HW212916   6.055  -0.007   4.102  0.3367 -0.1744 -0.0215
 4108SOL     OW12917   2.211   1.254   4.013 -0.0257 -0.2928 -0.3690
 4108SOL    HW112918   2.179   1.220   4.097 -1.0778  1.4570 -0.0442
 4108SOL    HW212919   2.180   1.345   4.010 -0.5791 -0.5170 -2.9488
 4109SOL     OW12920   4.672   6.049   4.372 -0.1526  0.1140  0.3453
 4109SOL    HW112921   4.713   5.962   4.366 -0.1819  0.1493 -0.5301
 4109SOL    HW212922   4.578   6.031   4.366 -0.1693  0.1860  0.3973
 4110SOL     OW12923   0.236   4.355   6.932 -0.0196 -0.1092  0.2693
 4110SOL    HW112924   0.197   4.432   6.972  0.6730 -0.8757  2.5078
 4110SOL    HW212925   0.216   4.284   6.993 -1.3298 -1.8891 -2.1264
 4111SOL     OW12926   3.766   0.536   2.460  0.3045 -0.1999 -0.1784
 4111SOL    HW112927   3.836   0.578   2.510 -0.4951 -0.3189  1.0590
 4111SOL    HW212928   3.801   0.529   2.371  0.7503  2.3558 -0.2464
 4112SOL     OW12929   6.987   3.737   5.452  0.5106 -0.7419  0.1464
 4112SOL    HW112930   6.918   3.704   5.509  0.1771 -0.9735 -0.3847
 4112SOL    HW212931   7.012   3.821   5.491 -0.6721 -0.2402 -0.1361
 4113SOL     OW12932   5.863   3.850   1.946  0.2059 -0.4000  0.0745
 4113SOL    HW112933   5.958   3.837   1.956  0.4131  0.4016 -0.7828
 4113SOL    HW212934   5.832   3.872   2.034  1.2839  2.2140 -0.1585
 4114SOL     OW12935   2.314   4.275   3.677 -0.0357 -0.6775 -0.5007
 4114SOL    HW112936   2.340   4.217   3.606  0.9815  0.3397 -0.9720
 4114SOL    HW212937   2.227   4.306   3.652  0.6741  0.3696 -1.7752
 4115SOL     OW12938   1.687   5.379   3.019  0.0295  0.1313 -0.3268
 4115SOL    HW112939   1.617   5.441   2.998  0.5984  1.1941  0.8681
 4115SOL    HW212940   1.755   5.399   2.955  0.5004  1.2519  0.4988
 4116SOL     OW12941   0.095   1.368   4.414 -0.1172  0.4313 -0.2496
 4116SOL    HW112942   0.050   1.363   4.330  0.9756  0.5228 -0.8482
 4116SOL    HW212943   0.029   1.403   4.474 -1.4819 -1.3627 -0.6318
 4117SOL     OW12944   4.169   0.620   3.662 -0.0194  0.0893 -0.1878
 4117SOL    HW112945   4.170   0.713   3.640 -0.3242  0.0823 -0.2334
 4117SOL    HW212946   4.225   0.579   3.596  0.9728  0.3771  0.4608
 4118SOL     OW12947   1.932   0.496   5.559 -0.0104 -0.2726  0.3087
 4118SOL    HW112948   1.842   0.515   5.533  0.0497  1.0598  1.0102
 4118SOL    HW212949   1.924   0.434   5.632 -0.3236 -0.7389 -0.1183
 4119SOL     OW12950   2.894   5.541   1.427  0.3518  0.0082  0.2262
 4119SOL    HW112951   2.913   5.607   1.360  2.2293 -0.9672 -0.2386
 4119SOL    HW212952   2.957   5.560   1.497  0.0703 -0.5205  0.6251
 4120SOL     OW12953   3.509   5.543   5.446  0.1268 -0.2141 -0.4353
 4120SOL    HW112954   3.515   5.628   5.489  1.6312  0.6851 -2.3272
 4120SOL    HW212955   3.425   5.546   5.400 -0.0110  0.0790 -0.1686
 4121SOL     OW12956   0.361   1.029   7.024 -0.2678 -0.4669 -0.0264
 4121SOL    HW112957   0.305   1.016   7.100 -1.7014  1.8426 -0.6385
 4121SOL    HW212958   0.443   1.064   7.060 -0.3410 -0.9299  0.5891
 4122SOL     OW12959   6.657   3.597   1.011  0.0595  0.4900  0.0240
 4122SOL    HW112960   6.733   3.548   0.981 -0.7823 -0.8595  0.0584
 4122SOL    HW212961   6.683   3.633   1.096  0.8089  0.3998 -0.1672
 4123SOL     OW12962   3.942   2.117   6.989  0.2772  0.2629 -0.1474
 4123SOL    HW112963   4.005   2.156   6.929  0.6309 -1.2449 -0.7611
 4123SOL    HW212964   3.972   2.028   7.002 -1.2055 -0.1936  0.2882
 4124SOL     OW12965   1.115   3.964   0.645 -0.3197  0.3447 -0.3705
 4124SOL    HW112966   1.073   4.034   0.695 -0.1862  0.6641 -0.7000
 4124SOL    HW212967   1.174   3.922   0.707 -0.2032  0.6955 -0.2437
 4125SOL     OW12968   4.445   2.703   5.180 -0.0935 -0.5245  0.1806
 4125SOL    HW112969   4.454   2.721   5.086  0.1836 -1.0293  0.1088
 4125SOL    HW212970   4.535   2.699   5.212 -0.1858 -0.4988  0.4403
 4126SOL     OW12971   2.545   1.472   5.349 -0.4650  0.1767  0.3878
 4126SOL    HW112972   2.482   1.518   5.294  1.0119  0.0630 -1.4662
 4126SOL    HW212973   2.555   1.527   5.426  0.2723  2.3096 -1.1816
 4127SOL     OW12974   3.384   5.587   2.585 -0.1274 -0.0207  0.5029
 4127SOL    HW112975   3.320   5.635   2.533 -1.2765 -2.6805 -0.6428
 4127SOL    HW212976   3.407   5.646   2.657 -0.5894  2.6375 -1.4779
 4128SOL     OW12977   6.918   0.621   0.653 -1.2146 -0.3863  0.2926
 4128SOL    HW112978   7.001   0.647   0.612 -0.4926 -2.1960  0.5685
 4128SOL    HW212979   6.904   0.688   0.721  0.9611 -1.0568  1.4486
 4129SOL     OW12980   4.675   4.058   0.279  0.4010  0.4079 -0.0364
 4129SOL    HW112981   4.758   4.026   0.315 -0.3299 -2.9029 -1.1470
 4129SOL    HW212982   4.700   4.124   0.215  2.0745  0.7130  0.9063
 4130SOL     OW12983   2.317   5.540   5.765 -0.7950  0.1981 -0.2321
 4130SOL    HW112984   2.340   5.481   5.837 -2.1185 -0.9574 -0.7465
 4130SOL    HW212985   2.340   5.627   5.798  0.7416 -0.5276  0.7083
 4131SOL     OW12986   1.678   6.231   2.275 -0.1184 -0.8900 -0.5012
 4131SOL    HW112987   1.739   6.282   2.328  0.5891 -0.5484 -1.6520
 4131SOL    HW212988   1.593   6.245   2.318  0.4266 -0.5391  0.4923
 4132SOL     OW12989   0.416   2.248   1.861 -0.0861 -0.0896  0.5721
 4132SOL    HW112990   0.461   2.308   1.921 -1.8847 -0.7611  2.6475
 4132SOL    HW212991   0.323   2.270   1.870 -0.5071 -1.1656 -0.9198
 4133SOL     OW12992   4.160   0.883   6.413  0.3102  0.1454 -0.0973
 4133SOL    HW112993   4.087   0.895   6.473  0.1427  0.0214 -0.2759
 4133SOL    HW212994   4.127   0.822   6.347  0.4479  0.3855 -0.3898
 4134SOL     OW12995   5.495   4.851   7.019  0.3663  0.3593 -0.8046
 4134SOL    HW112996   5.438   4.921   7.053  0.6920  0.7823 -1.1184
 4134SOL    HW212997   5.438   4.800   6.962  0.0508  0.1995 -0.3510
 4135SOL     OW12998   5.392   1.639   4.801 -0.1484 -0.4803 -0.0726
 4135SOL    HW112999   5.448   1.705   4.843 -1.3629  0.4719  0.0987
 4135SOL    HW213000   5.388   1.667   4.709  0.4196 -1.0887 -0.2832
 4136SOL     OW13001   5.077   5.237   6.125 -0.1363  0.3590  0.1941
 4136SOL    HW113002   5.117   5.206   6.044 -0.1882  1.2321 -0.1744
 4136SOL    HW213003   5.031   5.317   6.100  0.1810  0.8552  1.1572
 4137SOL     OW13004   6.063   5.566   6.871  0.3960  0.0213  0.7826
 4137SOL    HW113005   6.107   5.491   6.830 -1.2790 -1.2405  1.2491
 4137SOL    HW213006   6.025   5.531   6.952 -0.7705  1.2584  0.7918
 4138SOL     OW13007   0.960   1.077   2.381 -0.3578  0.0852  0.0303
 4138SOL    HW113008   0.901   1.083   2.456 -1.1973 -1.7846 -0.4565
 4138SOL    HW213009   1.034   1.026   2.413  1.0512  2.4374  0.6432
 4139SOL     OW13010   7.183   0.112   3.310 -1.1739  0.4532  0.0244
 4139SOL    HW113011   7.123   0.068   3.249  0.2736  1.1377 -1.9664
 4139SOL    HW213012   7.217   0.186   3.260  0.5365  0.6760  1.4748
 4140SOL     OW13013   6.690   6.507   3.699  0.1673 -0.5318  0.0738
 4140SOL    HW113014   6.683   6.494   3.793  0.3669 -2.1154 -0.1157
 4140SOL    HW213015   6.783   6.493   3.680  0.3967  1.1843 -0.1662
 4141SOL     OW13016   2.506   5.437   6.026 -0.0717 -0.6098 -0.4682
 4141SOL    HW113017   2.418   5.418   6.057  0.4011 -0.8532  0.7481
 4141SOL    HW213018   2.513   5.533   6.031  0.2351 -0.6926  0.8427
 4142SOL     OW13019   1.211   1.589   1.380  0.3100  0.6413 -0.0837
 4142SOL    HW113020   1.138   1.626   1.330  0.0132  0.6566  0.3587
 4142SOL    HW213021   1.170   1.556   1.460  0.5923 -0.5024 -0.3992
 4143SOL     OW13022   7.229   5.179   5.317  0.1798  0.6849  0.6820
 4143SOL    HW113023   7.150   5.126   5.330  0.0084  1.0929  1.3233
 4143SOL    HW213024   7.230   5.197   5.223  0.2237 -0.4282  0.4642
 4144SOL     OW13025   2.866   6.037   6.665 -0.9120  0.0271 -0.1502
 4144SOL    HW113026   2.916   6.026   6.746  0.0792 -2.7094 -1.0674
 4144SOL    HW213027   2.928   6.079   6.605 -0.3899 -1.3790 -0.6170
 4145SOL     OW13028   6.940   6.423   3.610 -0.4728 -0.3304 -0.1911
 4145SOL    HW113029   7.005   6.490   3.588  0.4351 -0.8072  0.9996
 4145SOL    HW213030   6.914   6.386   3.526  1.6186 -0.9012 -0.6058
 4146SOL     OW13031   7.022   1.727   7.153 -0.2538  0.2618 -0.1983
 4146SOL    HW113032   6.962   1.668   7.108 -0.3362  1.2615 -1.4315
 4146SOL    HW213033   7.044   1.682   7.235  0.2123 -1.7570 -1.4231
 4147SOL     OW13034   5.198   0.886   3.010  0.8396 -0.1746  0.2904
 4147SOL    HW113035   5.228   0.833   2.936  0.6621  0.5977 -0.3424
 4147SOL    HW213036   5.237   0.972   2.995 -2.6578  1.2497 -1.2371
 4148SOL     OW13037   6.886   3.914   3.926 -0.3731 -0.1085  0.0487
 4148SOL    HW113038   6.899   3.998   3.883  0.1094 -0.6127 -0.7994
 4148SOL    HW213039   6.958   3.909   3.990  0.4840 -0.5300 -0.9346
 4149SOL     OW13040   6.676   2.706   3.917  0.3775  0.6749  0.3112
 4149SOL    HW113041   6.666   2.789   3.963  0.9311  0.0453  1.5973
 4149SOL    HW213042   6.671   2.640   3.987  1.0314 -0.3032 -0.5586
 4150SOL     OW13043   4.563   3.859   3.469 -0.7025 -0.1573  0.3336
 4150SOL    HW113044   4.498   3.797   3.436  0.7398 -1.1688 -0.6910
 4150SOL    HW213045   4.512   3.931   3.504 -2.4647 -2.3192  2.3872
 4151SOL     OW13046   1.793   3.865   4.076 -0.7024  0.2658 -0.4257
 4151SOL    HW113047   1.863   3.880   4.140 -1.6078 -0.1117  0.6623
 4151SOL    HW213048   1.785   3.949   4.030 -1.6608  1.2930  1.5681
 4152SOL     OW13049   1.081   7.023   5.873 -0.1700  0.2859 -0.1703
 4152SOL    HW113050   1.160   7.054   5.918 -0.8282  0.5175  0.8420
 4152SOL    HW213051   1.023   6.994   5.944 -0.4292 -1.2373 -0.9729
 4153SOL     OW13052   2.171   3.135   0.682 -0.0219  0.3903 -0.8443
 4153SOL    HW113053   2.163   3.069   0.750 -1.4546 -1.0790 -2.3905
 4153SOL    HW213054   2.243   3.191   0.711  0.3965 -1.1075  1.1007
 4154SOL     OW13055   6.753   5.753   5.583  0.1436 -0.1172  0.1373
 4154SOL    HW113056   6.709   5.727   5.502 -0.8175 -1.1989  0.9940
 4154SOL    HW213057   6.841   5.717   5.575 -0.8968 -3.0210  0.9240
 4155SOL     OW13058   4.173   2.058   2.334 -0.1469 -0.2894 -0.0601
 4155SOL    HW113059   4.143   2.147   2.316 -0.1101  0.0299  1.3864
 4155SOL    HW213060   4.261   2.054   2.297 -0.9652 -0.4361 -2.0872
 4156SOL     OW13061   4.589   3.839   5.190 -0.0149 -0.3005 -0.5480
 4156SOL    HW113062   4.563   3.909   5.249 -0.8450 -1.4491  0.4832
 4156SOL    HW213063   4.685   3.838   5.194  0.0319  1.1367 -1.0345
 4157SOL     OW13064   2.261   2.425   1.203 -0.4721  0.0975 -0.0906
 4157SOL    HW113065   2.202   2.391   1.136 -0.8248 -0.1139  0.3203
 4157SOL    HW213066   2.299   2.504   1.165 -0.6291 -0.0522 -0.5562
 4158SOL     OW13067   4.721   2.912   6.627 -0.3915 -0.4029  0.1397
 4158SOL    HW113068   4.642   2.897   6.574  0.0951 -1.4750 -0.3060
 4158SOL    HW213069   4.710   3.000   6.663 -1.0120  0.1019 -1.2661
 4159SOL     OW13070   4.745   4.166   4.520  0.4244 -0.7485  0.3130
 4159SOL    HW113071   4.657   4.205   4.514  0.4496 -0.3336  2.5421
 4159SOL    HW213072   4.745   4.120   4.604  2.0236 -1.5787 -0.1350
 4160SOL     OW13073   3.882   0.501   5.267 -0.6759 -0.0547 -0.2482
 4160SOL    HW113074   3.846   0.437   5.327 -1.1066 -0.5955 -1.0698
 4160SOL    HW213075   3.830   0.580   5.281 -1.6026 -0.5609 -0.8010
 4161SOL     OW13076   3.434   7.225   2.844 -0.6721 -0.0646 -0.3984
 4161SOL    HW113077   3.408   7.185   2.928  0.1938  0.0935 -0.0549
 4161SOL    HW213078   3.355   7.218   2.790 -0.6565 -1.8943 -0.2206
 4162SOL     OW13079   3.854   5.754   3.786 -0.0819 -0.4752  0.4749
 4162SOL    HW113080   3.768   5.737   3.747 -1.9277  2.4157  2.9860
 4162SOL    HW213081   3.878   5.841   3.753  0.4854 -0.0076  2.0943
 4163SOL     OW13082   5.847   2.706   5.978  0.3944  0.0357  0.0262
 4163SOL    HW113083   5.829   2.711   5.885  2.5460  0.2532 -0.4028
 4163SOL    HW213084   5.843   2.612   5.998 -0.5327  0.0277 -0.1707
 4164SOL     OW13085   2.645   3.086   3.208  0.5275 -0.1946 -0.4509
 4164SOL    HW113086   2.669   3.073   3.300  0.8212 -2.9423 -0.8771
 4164SOL    HW213087   2.715   3.141   3.172  0.4746  0.7850  0.9054
 4165SOL     OW13088   4.228   2.073   6.486 -0.4364  0.7959 -0.2449
 4165SOL    HW113089   4.141   2.057   6.522 -0.3280  1.6596  0.4193
 4165SOL    HW213090   4.286   2.074   6.561 -0.1204  1.9910 -0.4904
 4166SOL     OW13091   2.206   6.031   6.375 -0.4865  0.2981 -0.0864
 4166SOL    HW113092   2.152   5.968   6.326 -0.8379 -0.1060  0.8158
 4166SOL    HW213093   2.244   5.980   6.446 -1.8854  1.4038  1.4865
 4167SOL     OW13094   5.379   1.381   5.937  0.5268 -0.3168 -0.0933
 4167SOL    HW113095   5.356   1.350   5.849  0.0903  0.1534 -0.1460
 4167SOL    HW213096   5.429   1.309   5.975  0.1604 -0.7848 -0.4900
 4168SOL     OW13097   4.387   2.705   3.513 -0.3775  0.3598  0.2032
 4168SOL    HW113098   4.373   2.636   3.448  1.1355  0.2564 -0.0392
 4168SOL    HW213099   4.347   2.671   3.593  1.3546 -1.3242  0.3886
 4169SOL     OW13100   4.457   2.048   2.253  0.0143  0.3411 -0.0945
 4169SOL    HW113101   4.504   1.981   2.303 -2.0583 -0.6082  0.6115
 4169SOL    HW213102   4.524   2.085   2.195  1.3346 -1.9256 -0.0937
 4170SOL     OW13103   6.422   4.030   0.735 -0.1407  0.2306  0.0891
 4170SOL    HW113104   6.392   3.998   0.650  0.0048  0.3568 -0.0108
 4170SOL    HW213105   6.515   4.047   0.723 -0.2536  0.8863  0.0748
 4171SOL     OW13106   4.300   4.345   0.225  0.0298 -0.5662  0.4645
 4171SOL    HW113107   4.380   4.329   0.275  1.3557  0.1907 -1.3247
 4171SOL    HW213108   4.229   4.334   0.288  1.4897 -2.0995  1.8944
 4172SOL     OW13109   3.076   3.505   0.016 -0.4108 -0.3016 -0.3050
 4172SOL    HW113110   3.076   3.410   0.002  2.8452  0.0568 -3.5874
 4172SOL    HW213111   3.094   3.541  -0.071  1.7017  3.1816  1.4875
 4173SOL     OW13112   5.471   4.603   4.418  0.4120  0.0068 -0.0985
 4173SOL    HW113113   5.456   4.694   4.445 -0.5428 -0.0981 -0.2330
 4173SOL    HW213114   5.496   4.610   4.326 -1.1172  0.0450 -0.5250
 4174SOL     OW13115   7.158   3.236   0.492 -0.0281  0.3072 -0.5441
 4174SOL    HW113116   7.070   3.238   0.529 -0.3205 -0.6354 -1.1702
 4174SOL    HW213117   7.211   3.290   0.551 -1.2881  1.8796 -0.8395
 4175SOL     OW13118   0.273   1.671   4.896  0.4564  0.4279 -0.5413
 4175SOL    HW113119   0.263   1.729   4.971  1.4668  0.8001 -0.6871
 4175SOL    HW213120   0.337   1.715   4.840  1.6319 -1.0900 -0.3983
 4176SOL     OW13121   1.216   6.679   1.921  0.2186  0.0041 -0.7887
 4176SOL    HW113122   1.186   6.621   1.991 -0.5240  0.5824 -0.6174
 4176SOL    HW213123   1.201   6.630   1.840  1.0800 -0.6659 -0.5546
 4177SOL     OW13124   6.657   0.767   3.868  0.5554 -0.2788 -0.2702
 4177SOL    HW113125   6.575   0.812   3.845  0.4040 -1.5649 -2.3417
 4177SOL    HW213126   6.647   0.747   3.961 -1.1596  0.2690 -0.3038
 4178SOL     OW13127   6.442   4.190   5.854  0.2004 -0.3871 -0.4608
 4178SOL    HW113128   6.466   4.279   5.827  2.1804 -1.3453 -2.0032
 4178SOL    HW213129   6.418   4.198   5.947  1.8782  1.4994 -0.1633
 4179SOL     OW13130   2.681   1.573   3.517 -0.6775  0.0193 -0.7591
 4179SOL    HW113131   2.613   1.639   3.501  0.5624  1.8432  1.3050
 4179SOL    HW213132   2.760   1.609   3.477 -0.3309 -0.9173 -0.9278
 4180SOL     OW13133   3.207   1.569   1.570 -0.2506  0.4543  0.2970
 4180SOL    HW113134   3.299   1.590   1.590 -0.2809  0.9379 -0.0519
 4180SOL    HW213135   3.157   1.611   1.640 -0.2729  1.0549 -0.0803
 4181SOL     OW13136   1.040   2.430   1.346  0.0927  0.1038 -0.0704
 4181SOL    HW113137   1.106   2.492   1.376  0.2111 -0.4510  0.8308
 4181SOL    HW213138   1.019   2.377   1.423 -0.7013 -0.3543 -0.5866
 4182SOL     OW13139   6.162   2.339   3.148 -0.0604 -0.1017  0.3315
 4182SOL    HW113140   6.161   2.408   3.215 -1.1536  0.9533 -0.7522
 4182SOL    HW213141   6.121   2.379   3.072 -2.4042 -2.5246  0.2338
 4183SOL     OW13142   6.181   3.248   6.681 -0.2221  0.6803  0.2493
 4183SOL    HW113143   6.246   3.205   6.625 -0.0229 -1.5774  2.1420
 4183SOL    HW213144   6.101   3.247   6.629 -0.0823 -1.5406  0.0280
 4184SOL     OW13145   2.097   2.242   1.065  0.0612 -0.4419 -0.4285
 4184SOL    HW113146   2.009   2.271   1.090  0.3357 -0.0071  0.0252
 4184SOL    HW213147   2.116   2.168   1.123  0.6404  0.4763  0.5580
 4185SOL     OW13148   7.226   3.094   5.435  0.0620 -0.4071 -0.2643
 4185SOL    HW113149   7.213   3.186   5.410  0.8484 -0.3343 -0.4182
 4185SOL    HW213150   7.155   3.047   5.390 -0.3023  0.1162 -0.2376
 4186SOL     OW13151   0.201   3.694   1.051  0.1066 -0.3526 -0.2534
 4186SOL    HW113152   0.126   3.749   1.026  0.8041  1.1668  0.8768
 4186SOL    HW213153   0.162   3.624   1.103 -0.4753  0.9494  1.1375
 4187SOL     OW13154   5.307   2.308   5.581  0.1513  0.5649  0.4848
 4187SOL    HW113155   5.289   2.215   5.591  2.1164 -0.2557 -2.9479
 4187SOL    HW213156   5.225   2.344   5.547  0.5378 -0.6488 -1.8403
 4188SOL     OW13157   2.163   0.839   6.747  0.1014 -0.3286  0.1939
 4188SOL    HW113158   2.208   0.793   6.676 -1.0854  0.7223 -1.2627
 4188SOL    HW213159   2.157   0.930   6.717 -1.0972 -0.0209  1.3171
 4189SOL     OW13160   3.512   1.523   0.591  0.2541 -0.0099 -0.3503
 4189SOL    HW113161   3.448   1.484   0.651 -0.3816 -0.2144 -1.1510
 4189SOL    HW213162   3.589   1.541   0.645  0.3944 -1.9835  0.1139
 4190SOL     OW13163   6.078   4.933   2.404 -0.0269  0.1307 -0.1685
 4190SOL    HW113164   6.087   4.880   2.325 -0.2325 -1.2670  0.7255
 4190SOL    HW213165   5.985   4.955   2.407 -0.2113 -0.6521  0.1875
 4191SOL     OW13166   1.128   5.206   0.640  0.5828 -0.0308 -0.0694
 4191SOL    HW113167   1.086   5.254   0.712  0.7609  0.7703 -0.4938
 4191SOL    HW213168   1.095   5.247   0.561  1.8705  0.3831 -0.4177
 4192SOL     OW13169   0.674   1.846   6.950 -0.3924  0.4780 -0.4184
 4192SOL    HW113170   0.650   1.938   6.950 -0.1989  0.5454 -1.6900
 4192SOL    HW213171   0.594   1.799   6.972 -0.5936  0.9246 -0.2092
 4193SOL     OW13172   4.943   6.316   5.942  0.3172  0.1792  0.4483
 4193SOL    HW113173   4.988   6.232   5.948 -0.8186 -0.8924 -3.8916
 4193SOL    HW213174   4.999   6.369   5.885 -0.3289  1.4174  0.9410
 4194SOL     OW13175   2.925   1.823   0.827  0.0040  0.3202  0.2009
 4194SOL    HW113176   2.974   1.892   0.871  1.5843 -0.8574  0.3091
 4194SOL    HW213177   2.915   1.754   0.892  0.6790 -0.6220 -0.6769
 4195SOL     OW13178   1.779   0.968   2.679  0.0007 -0.2016 -0.9705
 4195SOL    HW113179   1.726   1.047   2.671 -0.9891 -0.5371  1.8197
 4195SOL    HW213180   1.846   0.991   2.744  1.1232 -0.9220 -1.8574
 4196SOL     OW13181   4.479   5.741   2.604  0.1676 -0.1389  0.2569
 4196SOL    HW113182   4.459   5.663   2.551 -0.3500  0.7895 -0.9415
 4196SOL    HW213183   4.570   5.729   2.631  0.7746 -0.1433 -1.7110
 4197SOL     OW13184   6.871   5.725   4.510 -0.2517  0.0236  0.2208
 4197SOL    HW113185   6.879   5.644   4.461 -0.4820  0.6821 -0.9050
 4197SOL    HW213186   6.873   5.794   4.444 -0.9525  0.8961  1.0957
 4198SOL     OW13187   3.764   4.000   4.414  0.3670  0.0855 -0.3352
 4198SOL    HW113188   3.743   4.082   4.369 -0.0367 -0.6974 -1.6051
 4198SOL    HW213189   3.777   3.937   4.343  1.6556 -0.7247  0.5933
 4199SOL     OW13190   2.624   4.129   5.423  0.1605 -0.3898  0.3918
 4199SOL    HW113191   2.615   4.201   5.361  0.7141  0.1265  0.9005
 4199SOL    HW213192   2.715   4.100   5.413  0.2488 -0.3153  0.9534
 4200SOL     OW13193   3.156   5.152   5.670  0.1091  0.1982 -0.0677
 4200SOL    HW113194   3.178   5.072   5.718 -1.4525 -1.0544 -1.3979
 4200SOL    HW213195   3.064   5.141   5.646 -0.0835  2.3452 -0.3849
 4201SOL     OW13196   4.464   2.953   3.476  0.2190 -0.6569 -0.4314
 4201SOL    HW113197   4.446   2.868   3.514 -0.0082 -1.2819 -1.8967
 4201SOL    HW213198   4.560   2.959   3.474  0.2322 -0.5093  0.4505
 4202SOL     OW13199   1.446   4.154   4.890  0.4167 -0.0473 -0.1139
 4202SOL    HW113200   1.403   4.223   4.940  1.5205  0.9028 -0.4539
 4202SOL    HW213201   1.374   4.104   4.852 -0.4073  0.2520  1.0333
 4203SOL     OW13202   4.613   2.403   5.048  0.1958  0.2534  0.0547
 4203SOL    HW113203   4.606   2.428   4.956 -0.2705  0.3093  0.1027
 4203SOL    HW213204   4.675   2.465   5.085 -0.0888  0.6273 -0.0861
 4204SOL     OW13205   6.635   4.666   2.047  0.0979 -0.7139 -0.2780
 4204SOL    HW113206   6.634   4.584   1.998 -2.2224 -1.1284  0.4079
 4204SOL    HW213207   6.576   4.651   2.121  0.0230  1.4090  0.1276
 4205SOL     OW13208   5.381   6.186   2.200  0.1626  0.0472  0.0226
 4205SOL    HW113209   5.352   6.276   2.189  3.3619  1.3343  1.3112
 4205SOL    HW213210   5.303   6.138   2.229 -2.2782  1.7390 -3.4725
 4206SOL     OW13211   3.592   0.717   0.695  0.1044  0.3386  0.0449
 4206SOL    HW113212   3.521   0.662   0.728  0.5532 -1.0993 -1.2906
 4206SOL    HW213213   3.573   0.727   0.602  1.1015  0.7991 -0.1156
 4207SOL     OW13214   3.591   1.081   1.938  0.3311 -1.0258  0.0568
 4207SOL    HW113215   3.528   1.035   1.883  0.5893 -1.8482  0.4258
 4207SOL    HW213216   3.541   1.152   1.978 -0.5960 -2.2000  1.0261
 4208SOL     OW13217   5.689   5.797   2.315  0.2569  0.4280 -0.1781
 4208SOL    HW113218   5.611   5.741   2.315 -0.4259  1.3406  1.1813
 4208SOL    HW213219   5.751   5.751   2.258 -1.0488 -0.6161 -0.8168
 4209SOL     OW13220   3.872   0.317   3.916 -0.4550 -0.0553  0.3162
 4209SOL    HW113221   3.953   0.314   3.866 -0.9154 -0.4059 -0.4174
 4209SOL    HW213222   3.889   0.261   3.992 -0.8008 -2.0423 -1.0426
 4210SOL     OW13223   2.017   3.035   4.500  0.1386 -0.0268  0.4220
 4210SOL    HW113224   2.077   2.995   4.563  1.0872  0.3402 -0.2256
 4210SOL    HW213225   2.036   2.990   4.418  0.8155  1.3514 -0.1917
 4211SOL     OW13226   7.021   0.509   1.247 -0.2622 -0.4305  0.5613
 4211SOL    HW113227   7.061   0.442   1.191  1.9864  1.8340 -0.6502
 4211SOL    HW213228   6.994   0.577   1.186 -2.4897 -0.1713  1.7856
 4212SOL     OW13229   1.483   3.898   1.469  0.1576  0.0074 -0.0759
 4212SOL    HW113230   1.417   3.961   1.438 -0.7528 -0.8010  0.2104
 4212SOL    HW213231   1.550   3.900   1.401 -0.6483  0.0774 -0.8923
 4213SOL     OW13232   3.150   4.891   4.848 -0.6515 -0.3538 -0.2116
 4213SOL    HW113233   3.201   4.814   4.822 -0.2132  0.2303 -1.0931
 4213SOL    HW213234   3.145   4.944   4.769 -0.4779  0.7873  0.5338
 4214SOL     OW13235   4.853   0.451   6.000  0.0033  0.5883  0.4722
 4214SOL    HW113236   4.795   0.408   6.063  0.8452 -2.9464 -1.0516
 4214SOL    HW213237   4.802   0.456   5.919  1.1222 -0.8345 -0.3462
 4215SOL     OW13238   1.110   2.296   6.482 -0.3722 -0.5855  0.2137
 4215SOL    HW113239   1.170   2.257   6.418  0.2756  0.2774  0.2907
 4215SOL    HW213240   1.023   2.270   6.452 -0.3027  2.4318 -2.8597
 4216SOL     OW13241   6.761   2.707   7.169  0.0599  0.2855 -0.4949
 4216SOL    HW113242   6.746   2.765   7.095 -0.3205 -1.5056 -1.8506
 4216SOL    HW213243   6.733   2.621   7.139 -3.6789  0.1154  2.9672
 4217SOL     OW13244   3.679   5.012   0.617 -0.3015  0.1720  0.4372
 4217SOL    HW113245   3.604   4.958   0.592 -2.0458  2.7915 -0.2221
 4217SOL    HW213246   3.709   5.051   0.535  0.2478  0.9981  1.0210
 4218SOL     OW13247   2.335   6.695   1.303 -0.3167  1.0324 -0.9095
 4218SOL    HW113248   2.369   6.774   1.344 -1.0947  0.6677  0.4540
 4218SOL    HW213249   2.412   6.646   1.275  0.1859  1.7895 -0.8491
 4219SOL     OW13250   3.171   1.370   1.889 -0.1231 -0.0838 -0.5445
 4219SOL    HW113251   3.247   1.424   1.870 -0.4969 -0.2008 -2.4602
 4219SOL    HW213252   3.101   1.432   1.908 -0.1627  0.0940 -1.2460
 4220SOL     OW13253   4.943   4.205   5.976  0.0215 -0.3659 -0.0412
 4220SOL    HW113254   5.027   4.181   6.014  0.0550 -0.4933 -0.1942
 4220SOL    HW213255   4.895   4.122   5.969  1.2352 -0.8751 -3.2805
 4221SOL     OW13256   2.505   6.546   6.225 -0.1571 -0.2910  0.2766
 4221SOL    HW113257   2.504   6.538   6.129 -2.2879  1.2058  0.1442
 4221SOL    HW213258   2.593   6.579   6.244 -0.2416  0.9845 -1.3368
 4222SOL     OW13259   2.302   1.311   1.537 -0.0773 -0.2842  0.4050
 4222SOL    HW113260   2.242   1.371   1.581  1.3850  0.1916  1.7986
 4222SOL    HW213261   2.305   1.342   1.446 -2.4871 -0.7802  0.1251
 4223SOL     OW13262   4.348   4.836   1.630 -0.6023  0.1391 -0.4585
 4223SOL    HW113263   4.257   4.806   1.641  0.3754 -1.8442  2.6244
 4223SOL    HW213264   4.394   4.760   1.594  0.0784  0.8030 -1.0087
 4224SOL     OW13265   3.883   3.442   1.392 -0.1547 -0.1366  0.0644
 4224SOL    HW113266   3.866   3.373   1.328 -0.7419  0.1545 -0.0981
 4224SOL    HW213267   3.974   3.430   1.416 -0.2964 -1.0739  0.1596
 4225SOL     OW13268   0.800   6.494   0.242  0.1921  0.9598  0.3703
 4225SOL    HW113269   0.726   6.444   0.275  1.3411 -0.7092  0.4880
 4225SOL    HW213270   0.794   6.486   0.146  1.0046 -0.4024  0.4109
 4226SOL     OW13271   5.324   4.606   5.898 -0.0743 -0.3286 -0.3149
 4226SOL    HW113272   5.244   4.563   5.928 -0.3536  0.9664  0.8261
 4226SOL    HW213273   5.345   4.563   5.815 -0.3172 -2.6936  0.8055
 4227SOL     OW13274   3.672   7.039   1.447  0.7604 -0.1430 -0.2203
 4227SOL    HW113275   3.732   7.070   1.379  0.4781  3.3440  1.0274
 4227SOL    HW213276   3.589   7.081   1.426  0.2184 -0.4601  1.2593
 4228SOL     OW13277   2.181   4.948   6.978 -0.3400 -0.0644  0.1662
 4228SOL    HW113278   2.161   4.937   6.885  0.5104 -0.8981  0.0684
 4228SOL    HW213279   2.230   5.030   6.983 -1.1603  0.4373  0.0010
 4229SOL     OW13280   5.694   4.251   2.638 -0.1410 -0.0533 -0.0208
 4229SOL    HW113281   5.751   4.262   2.713 -0.9195 -0.7109  0.6783
 4229SOL    HW213282   5.629   4.186   2.666 -0.6060 -0.0955 -1.1540
 4230SOL     OW13283   6.209   5.237   4.395  0.3137  0.3103  0.4075
 4230SOL    HW113284   6.257   5.293   4.335 -0.2486  0.1955 -0.1509
 4230SOL    HW213285   6.117   5.260   4.380  0.0348 -1.2864 -0.3478
 4231SOL     OW13286   1.646   0.385   0.298 -0.5584 -0.4602 -0.3351
 4231SOL    HW113287   1.591   0.458   0.267  0.7492  0.8324  0.3156
 4231SOL    HW213288   1.697   0.423   0.370  1.4719 -1.5073 -1.1881
 4232SOL     OW13289   4.394   0.957   1.380  0.3543  0.1082  0.2897
 4232SOL    HW113290   4.312   0.929   1.339  1.0630  0.1054 -1.1373
 4232SOL    HW213291   4.406   0.897   1.453 -0.0557 -0.9383 -0.4979
 4233SOL     OW13292   4.928   6.755   2.966  0.0887 -0.1540  0.3129
 4233SOL    HW113293   4.930   6.660   2.977  0.9270 -0.1990 -0.2257
 4233SOL    HW213294   4.926   6.768   2.872 -0.1896  0.3648  0.3909
 4234SOL     OW13295   5.234   5.234   6.414  0.0744 -0.3924 -0.2120
 4234SOL    HW113296   5.227   5.266   6.324 -0.5434  1.2796  0.4271
 4234SOL    HW213297   5.174   5.159   6.417  0.3017 -0.6251 -1.2684
 4235SOL     OW13298   1.660   5.534   1.827 -0.0711  0.2079 -0.2067
 4235SOL    HW113299   1.686   5.494   1.744  0.5736  0.0910  0.0467
 4235SOL    HW213300   1.612   5.613   1.801  0.9777  0.6986 -0.6836
 4236SOL     OW13301   0.499   0.598   2.986 -0.8464  0.4540  0.0622
 4236SOL    HW113302   0.530   0.531   3.046 -0.6883  0.6065  0.1535
 4236SOL    HW213303   0.517   0.563   2.899 -2.2143 -0.3126  0.0692
 4237SOL     OW13304   6.552   1.885   3.857 -0.6741  0.3618 -0.7420
 4237SOL    HW113305   6.636   1.932   3.850 -0.9764  0.8371 -1.2215
 4237SOL    HW213306   6.504   1.934   3.924 -1.1507  0.9913 -1.5351
 4238SOL     OW13307   3.670   3.788   0.278 -0.0600  0.3012  0.1978
 4238SOL    HW113308   3.699   3.724   0.213 -1.6263  1.0449 -1.2539
 4238SOL    HW213309   3.747   3.844   0.292  0.8393 -0.9469  0.3324
 4239SOL     OW13310   3.318   3.412   2.764 -0.5926 -0.3541 -0.4010
 4239SOL    HW113311   3.391   3.361   2.728  0.4109  1.1692 -0.6224
 4239SOL    HW213312   3.333   3.412   2.858 -1.7832 -2.2145 -0.2011
 4240SOL     OW13313   4.398   0.184   2.334  0.2945 -0.0348  0.2450
 4240SOL    HW113314   4.409   0.089   2.339  0.7396  0.0308  0.6127
 4240SOL    HW213315   4.385   0.211   2.425  0.9378  0.3422  0.2265
 4241SOL     OW13316   4.422   0.133   4.840  0.4629 -0.5162  0.5679
 4241SOL    HW113317   4.461   0.072   4.778 -0.1622  1.8819 -2.2497
 4241SOL    HW213318   4.340   0.160   4.800 -0.3448  0.4858  2.8114
 4242SOL     OW13319   2.231   5.713   4.078  0.2939 -0.0253  0.4598
 4242SOL    HW113320   2.174   5.716   4.001 -0.2193  0.0325  0.8373
 4242SOL    HW213321   2.235   5.620   4.101 -0.6179  0.0950  1.1406
 4243SOL     OW13322   0.443   6.582   5.136  0.6813  0.0118 -0.7431
 4243SOL    HW113323   0.354   6.607   5.110  0.4172 -1.2036 -1.0329
 4243SOL    HW213324   0.493   6.663   5.133  0.0449  0.3496 -2.5130
 4244SOL     OW13325   5.883   4.909   3.749 -0.2619  0.3371 -0.5402
 4244SOL    HW113326   5.797   4.912   3.791 -0.1785  1.4080 -0.4444
 4244SOL    HW213327   5.945   4.927   3.820  0.0282 -0.1712 -0.6630
 4245SOL     OW13328   6.144   3.985   3.132  0.1489 -0.0781 -0.0283
 4245SOL    HW113329   6.191   3.961   3.053  1.4514  1.4341  0.2562
 4245SOL    HW213330   6.208   3.974   3.202 -0.6622 -0.3436  0.6794
 4246SOL     OW13331   0.079   3.288   0.095 -0.4804  0.3778 -0.1608
 4246SOL    HW113332   0.029   3.213   0.126 -0.5326  0.2436 -0.5651
 4246SOL    HW213333   0.052   3.360   0.152  0.2256 -0.1045  0.8110
 4247SOL     OW13334   6.872   3.417   2.644  0.4673 -0.4184 -0.0786
 4247SOL    HW113335   6.807   3.480   2.673  1.7766  0.5545  0.8373
 4247SOL    HW213336   6.914   3.458   2.569  1.4210 -0.1208  0.6071
 4248SOL     OW13337   4.385   4.083   5.707  0.1866 -1.1872  0.6581
 4248SOL    HW113338   4.314   4.028   5.675 -1.5583  0.2629  1.9225
 4248SOL    HW213339   4.402   4.051   5.796  0.0485 -0.5376  0.9211
 4249SOL     OW13340   0.359   0.462   3.285 -0.8652  0.0709  0.6613
 4249SOL    HW113341   0.451   0.460   3.259 -1.3320 -1.6804 -0.8949
 4249SOL    HW213342   0.360   0.450   3.380  0.5116  0.3452  0.6805
 4250SOL     OW13343   5.521   3.034   2.483  0.1911  0.3479  0.1113
 4250SOL    HW113344   5.475   3.100   2.432  1.3632 -0.8777 -2.6398
 4250SOL    HW213345   5.485   2.950   2.453 -0.5978 -0.3302  2.8488
 4251SOL     OW13346   4.932   3.584   3.186 -0.1220  0.0213  0.1659
 4251SOL    HW113347   4.961   3.674   3.167 -1.4850  0.6055  0.7598
 4251SOL    HW213348   4.887   3.592   3.271  0.6824 -1.4246  0.7353
 4252SOL     OW13349   0.418   5.318   0.750 -0.3115  0.2098  0.1032
 4252SOL    HW113350   0.455   5.288   0.833 -0.3061 -1.2248 -0.4080
 4252SOL    HW213351   0.344   5.373   0.776  0.1038  0.3249  1.0752
 4253SOL     OW13352   6.379   0.852   3.836  0.1389  0.6629  0.5518
 4253SOL    HW113353   6.314   0.815   3.895 -1.5854  1.7595 -0.6140
 4253SOL    HW213354   6.350   0.942   3.821  2.3766  1.4271  0.6453
 4254SOL     OW13355   1.064   4.246   5.938  0.1024 -0.1228 -0.4466
 4254SOL    HW113356   1.144   4.289   5.908 -0.7127  0.9445 -1.1256
 4254SOL    HW213357   1.041   4.185   5.867  0.3033 -0.4197 -0.2570
 4255SOL     OW13358   6.679   4.342   5.491 -0.6136  0.1346 -0.3904
 4255SOL    HW113359   6.673   4.280   5.564 -1.1263  0.3970 -0.2072
 4255SOL    HW213360   6.645   4.294   5.416  0.2109 -0.2425 -0.5274
 4256SOL     OW13361   5.768   2.903   0.598  0.1153  0.3528  0.0399
 4256SOL    HW113362   5.829   2.864   0.660 -0.4746  1.2510  1.2162
 4256SOL    HW213363   5.685   2.857   0.613  0.0440  0.3752 -0.2765
 4257SOL     OW13364   3.080   4.445   2.388 -0.1264  0.2210  0.3449
 4257SOL    HW113365   3.149   4.429   2.322  0.0260 -1.6348  0.9109
 4257SOL    HW213366   3.125   4.491   2.459  1.1115 -2.8817  1.6724
 4258SOL     OW13367   1.627   6.153   3.878 -0.2095  0.2481 -0.0422
 4258SOL    HW113368   1.720   6.168   3.860 -0.2661  0.5219 -0.1078
 4258SOL    HW213369   1.622   6.145   3.973 -0.1876  0.7302  0.0022
 4259SOL     OW13370   3.533   3.139   4.357 -0.1654  0.3014  0.1134
 4259SOL    HW113371   3.484   3.150   4.276  2.0129  0.7878 -1.1955
 4259SOL    HW213372   3.582   3.221   4.366 -0.3637  0.2482  1.9312
 4260SOL     OW13373   6.643   4.728   5.749  0.0622 -0.2443 -0.0064
 4260SOL    HW113374   6.554   4.742   5.716  0.5739  1.8240 -0.5477
 4260SOL    HW213375   6.670   4.645   5.710 -1.1857 -0.3017 -0.7916
 4261SOL     OW13376   2.737   0.484   4.037  0.1282 -0.2755  0.2929
 4261SOL    HW113377   2.791   0.458   3.962 -0.9358  0.7342 -0.8433
 4261SOL    HW213378   2.781   0.562   4.071 -1.0472  1.0659 -1.1690
 4262SOL     OW13379   1.305   5.440   0.031  0.0724 -0.1449 -0.2894
 4262SOL    HW113380   1.280   5.480  -0.053  1.4232 -2.2922 -1.7650
 4262SOL    HW213381   1.367   5.502   0.069  1.8302 -0.5604 -2.3584
 4263SOL     OW13382   5.761   1.855   6.541 -0.7482  0.4142 -0.4722
 4263SOL    HW113383   5.765   1.829   6.633  0.0794  1.0167 -0.3329
 4263SOL    HW213384   5.851   1.877   6.518 -0.9687  0.3670 -1.3978
 4264SOL     OW13385   4.895   2.616   0.280  0.5654 -0.1318  0.0063
 4264SOL    HW113386   4.835   2.683   0.247 -0.0422 -0.2959  0.7738
 4264SOL    HW213387   4.884   2.618   0.375  1.3646 -0.5498  0.1119
 4265SOL     OW13388   1.910   4.459   2.910 -0.0184 -0.1699 -0.4611
 4265SOL    HW113389   1.819   4.432   2.904 -0.5670  1.6249 -0.5020
 4265SOL    HW213390   1.909   4.553   2.895  1.6569  0.1431  1.0445
 4266SOL     OW13391   2.549   3.014   0.461  0.2615  0.1885  0.4335
 4266SOL    HW113392   2.554   2.945   0.394  0.0910 -0.8956  1.5091
 4266SOL    HW213393   2.462   3.052   0.449  0.3924  0.2888 -0.2348
 4267SOL     OW13394   0.983   1.756   1.298 -0.2836  0.6359  0.0661
 4267SOL    HW113395   1.016   1.846   1.304 -1.7959  1.3383 -1.6869
 4267SOL    HW213396   0.934   1.754   1.215  0.7459 -2.1429 -0.5195
 4268SOL     OW13397   6.436   0.292   4.213 -0.1276  0.3452 -0.3006
 4268SOL    HW113398   6.428   0.197   4.209  0.8394  0.2974 -1.0532
 4268SOL    HW213399   6.360   0.320   4.265  0.1887 -0.9137  0.8512
 4269SOL     OW13400   1.557   3.631   0.351  0.3533 -0.3582 -0.2889
 4269SOL    HW113401   1.556   3.673   0.265 -0.9373  0.4789  0.1280
 4269SOL    HW213402   1.621   3.682   0.401 -1.1193  1.0526  0.1768
 4270SOL     OW13403   4.939   4.524   5.293  0.2713  0.0077  0.4633
 4270SOL    HW113404   4.923   4.517   5.199 -0.7621 -0.7066  0.6798
 4270SOL    HW213405   4.964   4.615   5.306  1.0319 -0.0447 -0.5905
 4271SOL     OW13406   0.876   6.948   1.197  0.0215 -0.0422 -0.0209
 4271SOL    HW113407   0.969   6.949   1.221  0.4752  0.8558 -1.7570
 4271SOL    HW213408   0.866   6.869   1.143  0.3480  1.2134 -1.9555
 4272SOL     OW13409   6.376   0.075   2.065  0.0161 -0.1041  0.1784
 4272SOL    HW113410   6.352   0.134   1.994  0.3479  1.3938  1.2835
 4272SOL    HW213411   6.438   0.013   2.026  0.8320  1.2193 -0.6430
 4273SOL     OW13412   1.291   2.769   0.110 -0.6045 -0.5211 -0.0734
 4273SOL    HW113413   1.335   2.842   0.065  0.4589 -1.3992 -0.4636
 4273SOL    HW213414   1.279   2.703   0.042 -1.2012 -0.8776  0.3738
 4274SOL     OW13415   0.595   5.361   1.565  0.1417  0.6529  0.2375
 4274SOL    HW113416   0.609   5.392   1.476  0.3276  0.8071  0.3185
 4274SOL    HW213417   0.673   5.312   1.586  0.4031  1.1967  0.5580
 4275SOL     OW13418   2.227   1.412   6.781  0.2651  0.6030 -0.1872
 4275SOL    HW113419   2.133   1.405   6.800 -0.0227  1.0519 -1.4000
 4275SOL    HW213420   2.251   1.498   6.815 -0.2959  1.4959 -2.0151
 4276SOL     OW13421   4.404   6.555   6.634 -0.0609  0.2731  0.1459
 4276SOL    HW113422   4.465   6.569   6.561 -1.0349  1.0755 -0.5215
 4276SOL    HW213423   4.381   6.462   6.628 -0.6766  0.4862 -1.0199
 4277SOL     OW13424   7.139   0.676   3.178  0.2756 -0.1887 -0.0463
 4277SOL    HW113425   7.172   0.592   3.210 -0.4653 -0.6743 -0.5322
 4277SOL    HW213426   7.205   0.740   3.205  0.6509 -0.8733  0.6703
 4278SOL     OW13427   6.718   6.083   6.861 -0.0339 -0.4481 -0.4048
 4278SOL    HW113428   6.795   6.031   6.886 -0.6914 -1.5258 -0.6051
 4278SOL    HW213429   6.711   6.069   6.766  0.5884  1.1005 -0.6885
 4279SOL     OW13430   0.631   3.215   3.307  0.4327 -0.1388 -0.0488
 4279SOL    HW113431   0.720   3.229   3.339  0.1748 -1.2041  1.2025
 4279SOL    HW213432   0.626   3.264   3.225  1.6637  1.2671  0.6929
 4280SOL     OW13433   0.990   4.483   6.705 -0.0221 -0.0545 -0.8510
 4280SOL    HW113434   1.047   4.443   6.640  1.7565  0.4058  0.3894
 4280SOL    HW213435   0.903   4.481   6.666  1.0764  0.5909 -3.4062
 4281SOL     OW13436   6.127   5.115   6.420  0.3255  0.0767  0.0420
 4281SOL    HW113437   6.037   5.083   6.409  0.2388  1.0130 -2.0818
 4281SOL    HW213438   6.117   5.206   6.447  0.6403  0.9681 -2.7663
 4282SOL     OW13439   3.380   3.846   2.816 -0.0721  0.0444 -0.2771
 4282SOL    HW113440   3.380   3.861   2.911  0.1213  1.1042 -0.4358
 4282SOL    HW213441   3.351   3.929   2.779 -1.4656 -0.7958 -1.1037
 4283SOL     OW13442   5.224   1.372   2.260  0.7542 -0.4157  0.1167
 4283SOL    HW113443   5.134   1.399   2.276  0.5238 -0.2952 -1.2807
 4283SOL    HW213444   5.233   1.289   2.307 -0.2664 -0.7184 -0.2151
 4284SOL     OW13445   0.472   7.017   2.757  0.6037 -0.1197  0.3223
 4284SOL    HW113446   0.566   7.001   2.745 -0.0813 -2.9512 -1.7477
 4284SOL    HW213447   0.429   6.946   2.709 -2.6209  1.2922  0.9848
 4285SOL     OW13448   2.093   0.255   4.802 -0.0870 -0.6841 -0.2324
 4285SOL    HW113449   2.130   0.168   4.791  0.5943 -0.4208 -0.0499
 4285SOL    HW213450   2.166   0.309   4.833  0.0144  0.4310 -2.3318
 4286SOL     OW13451   1.883   5.360   0.539 -0.1484 -0.3057  0.3451
 4286SOL    HW113452   1.859   5.427   0.474 -0.7543 -1.1627 -0.3243
 4286SOL    HW213453   1.962   5.395   0.581 -1.0194  1.2853  0.6826
 4287SOL     OW13454   7.240   1.419   4.166 -0.2948 -0.3425  0.0868
 4287SOL    HW113455   7.222   1.508   4.194  0.0007 -0.6218  1.1964
 4287SOL    HW213456   7.177   1.402   4.095 -1.5294  0.1435  1.0551
 4288SOL     OW13457   5.427   6.542   5.679  0.1973 -0.4136 -0.1943
 4288SOL    HW113458   5.409   6.632   5.652 -0.7232 -0.4412  0.3298
 4288SOL    HW213459   5.371   6.488   5.624 -1.6345 -0.4749  1.6837
 4289SOL     OW13460   3.831   3.682   3.398  0.0357 -0.7350 -0.3224
 4289SOL    HW113461   3.800   3.743   3.465 -0.5599 -0.9535 -0.3900
 4289SOL    HW213462   3.795   3.717   3.316  0.0045 -0.9715 -0.4088
 4290SOL     OW13463   4.220   2.669   4.942 -0.1765  0.0976  0.2186
 4290SOL    HW113464   4.157   2.651   4.873  1.7220 -0.3860 -1.4266
 4290SOL    HW213465   4.283   2.728   4.902  1.5465 -1.0405  1.1893
 4291SOL     OW13466   4.064   1.936   5.309 -0.4190  0.2925 -0.8435
 4291SOL    HW113467   4.071   1.998   5.236 -0.2028 -0.3809 -1.4028
 4291SOL    HW213468   3.978   1.896   5.298  0.6820 -1.7693 -2.3315
 4292SOL     OW13469   5.880   5.393   1.938  0.1219  0.0141  0.4581
 4292SOL    HW113470   5.936   5.431   2.005 -0.3930 -0.5741  1.2335
 4292SOL    HW213471   5.843   5.314   1.979  0.6242 -0.9360 -0.8649
 4293SOL     OW13472   4.747   6.348   5.539 -0.3647 -0.0940 -0.3072
 4293SOL    HW113473   4.814   6.284   5.513  0.1009  0.9926 -1.8762
 4293SOL    HW213474   4.666   6.314   5.501 -0.1214  0.2071 -1.1199
 4294SOL     OW13475   2.843   6.509   6.731 -0.0225  0.2025  0.3896
 4294SOL    HW113476   2.928   6.493   6.772  1.0838  1.4323 -1.3425
 4294SOL    HW213477   2.839   6.447   6.659 -0.6662  0.0415  0.5626
 4295SOL     OW13478   3.425   4.786   1.774  0.1612  0.4924 -0.3045
 4295SOL    HW113479   3.495   4.816   1.716  0.5514 -0.6674 -0.4412
 4295SOL    HW213480   3.461   4.795   1.862  1.3595 -2.2872 -0.4791
 4296SOL     OW13481   0.321   5.819   0.392 -0.2789  0.0996  0.1053
 4296SOL    HW113482   0.330   5.787   0.481 -0.4355  1.1945  0.5169
 4296SOL    HW213483   0.278   5.904   0.401 -1.7668 -0.4885 -1.1068
 4297SOL     OW13484   1.775   3.809   2.035 -0.1848  0.0725  0.2193
 4297SOL    HW113485   1.723   3.795   1.956  0.0247 -0.6954  0.2192
 4297SOL    HW213486   1.864   3.783   2.011 -0.2499 -0.8187  0.9076
 4298SOL     OW13487   0.224   4.505   0.206  0.7568 -0.3040 -0.1475
 4298SOL    HW113488   0.211   4.544   0.120  1.6786  1.9658  0.7122
 4298SOL    HW213489   0.144   4.527   0.255  1.2354  0.4673  0.3056
 4299SOL     OW13490   0.664   2.610   1.911  0.3002  0.1562 -0.1347
 4299SOL    HW113491   0.663   2.633   1.818 -0.4847  2.0271  0.3216
 4299SOL    HW213492   0.576   2.631   1.941 -0.3252 -3.0193  0.4452
 4300SOL     OW13493   6.998   6.195   4.765  0.1658 -0.3020 -0.0676
 4300SOL    HW113494   6.908   6.163   4.754  0.5369 -0.9461 -1.3988
 4300SOL    HW213495   6.999   6.237   4.851 -1.8109  1.0754 -0.6969
 4301SOL     OW13496   5.467   2.046   0.442  0.5419 -0.0248  0.7845
 4301SOL    HW113497   5.467   2.088   0.528  0.7394 -0.6558  1.0929
 4301SOL    HW213498   5.541   2.086   0.396  0.1427  0.6596  0.7334
 4302SOL     OW13499   3.705   3.464   2.950  0.1002 -0.0266 -0.6476
 4302SOL    HW113500   3.783   3.408   2.947 -0.3732 -0.7071 -0.2741
 4302SOL    HW213501   3.638   3.415   2.902 -1.4456 -1.5705  2.9115
 4303SOL     OW13502   3.448   2.224   2.144  0.2229  0.0326 -0.2471
 4303SOL    HW113503   3.381   2.289   2.121  1.4768  0.8648 -1.7263
 4303SOL    HW213504   3.414   2.180   2.222 -2.0633  0.3868 -0.9977
 4304SOL     OW13505   2.547   3.071   1.748 -0.5109  0.3363 -0.1006
 4304SOL    HW113506   2.541   3.158   1.709 -1.9085  0.4166  0.2764
 4304SOL    HW213507   2.600   3.021   1.685 -2.7410  0.4650 -2.1592
 4305SOL     OW13508   5.024   3.813   3.769  0.0972  0.1159  0.0647
 4305SOL    HW113509   4.972   3.846   3.842 -2.3933  0.5775 -1.8270
 4305SOL    HW213510   5.074   3.740   3.806 -0.7704  0.6298  2.3200
 4306SOL     OW13511   2.730   2.072   6.720  0.0345 -0.1972  0.0547
 4306SOL    HW113512   2.721   2.163   6.748 -0.7927 -0.2296 -0.0928
 4306SOL    HW213513   2.763   2.026   6.797  0.1792  0.1779  0.2149
 4307SOL     OW13514   3.120   6.992   0.046  0.1090 -0.9460 -0.2128
 4307SOL    HW113515   3.115   7.053   0.119 -0.7865  0.8212 -1.7156
 4307SOL    HW213516   3.052   6.927   0.064  0.4154 -0.9701  0.8976
 4308SOL     OW13517   2.081   5.776   4.902 -0.0002 -0.1320  0.6430
 4308SOL    HW113518   2.023   5.828   4.847 -0.8574  0.4648  2.0859
 4308SOL    HW213519   2.166   5.820   4.896 -0.1650  0.1074  0.0464
 4309SOL     OW13520   3.464   3.140   0.072  0.2892  0.0250 -0.8714
 4309SOL    HW113521   3.403   3.114   0.003  0.0613  0.7852 -0.9613
 4309SOL    HW213522   3.490   3.229   0.049  0.2489  0.2655 -0.0030
 4310SOL     OW13523   4.076   2.778   1.882  0.7438  0.1728 -0.0319
 4310SOL    HW113524   4.041   2.692   1.859  1.0125 -0.0243  0.2779
 4310SOL    HW213525   4.103   2.769   1.974 -0.8888  1.1343  0.5497
 4311SOL     OW13526   2.233   1.447   2.658  0.2546 -0.1333 -0.7580
 4311SOL    HW113527   2.190   1.428   2.741  0.1033 -0.3214 -0.8778
 4311SOL    HW213528   2.180   1.516   2.618  0.0491 -0.3819 -0.9164
 4312SOL     OW13529   6.337   0.033   0.590  0.0604  0.1808 -0.4510
 4312SOL    HW113530   6.418   0.059   0.547  1.2930 -2.5763  0.0774
 4312SOL    HW213531   6.272   0.030   0.520  1.1253 -0.4669 -1.4246
 4313SOL     OW13532   4.776   5.162   1.595  0.2413 -0.2461 -0.5741
 4313SOL    HW113533   4.708   5.215   1.636  0.7508  0.4974 -0.6811
 4313SOL    HW213534   4.825   5.125   1.668 -0.3844 -0.9248 -0.4955
 4314SOL     OW13535   4.795   2.528   1.269 -0.0706 -0.1096 -0.4564
 4314SOL    HW113536   4.700   2.535   1.282  0.0606  0.9489 -0.0302
 4314SOL    HW213537   4.826   2.618   1.269  0.8729 -0.4279 -1.1203
 4315SOL     OW13538   2.779   0.401   4.555 -0.5538  0.6107 -0.4122
 4315SOL    HW113539   2.828   0.411   4.637  0.5898  2.8873 -1.3048
 4315SOL    HW213540   2.787   0.309   4.533  1.3871  0.4863  0.6987
 4316SOL     OW13541   5.023   1.962   3.695  0.2072 -0.0121 -0.7136
 4316SOL    HW113542   5.106   1.930   3.731  0.2778  1.2371  0.2630
 4316SOL    HW213543   5.012   2.048   3.734 -1.9998 -0.5261 -0.1513
 4317SOL     OW13544   6.060   1.528   2.625  0.1320 -0.5432  0.1053
 4317SOL    HW113545   6.021   1.470   2.690 -1.6365  1.0226  0.4659
 4317SOL    HW213546   6.105   1.595   2.677 -0.1205 -0.0619 -0.3006
 4318SOL     OW13547   2.002   1.581   0.222  0.0259  0.4462 -0.0234
 4318SOL    HW113548   1.951   1.540   0.293 -1.9678  1.0148 -1.0928
 4318SOL    HW213549   2.027   1.667   0.257  0.3648  0.1124  0.5591
 4319SOL     OW13550   5.774   0.671   2.188  0.4322 -0.0060  0.0819
 4319SOL    HW113551   5.790   0.724   2.110  2.0934 -0.7108 -0.0788
 4319SOL    HW213552   5.772   0.581   2.155 -2.0181 -0.1015  0.4013
 4320SOL     OW13553   2.821   3.931   3.092  0.1652 -0.0090  0.1616
 4320SOL    HW113554   2.765   3.861   3.059 -0.9036  0.4665  0.9594
 4320SOL    HW213555   2.852   3.976   3.013  0.0715 -0.7680 -0.3086
 4321SOL     OW13556   1.999   2.123   3.524 -0.1827 -0.4170  0.2400
 4321SOL    HW113557   1.995   2.066   3.447  0.6914 -0.8749  0.5270
 4321SOL    HW213558   1.917   2.105   3.571 -0.8383  0.0510 -0.7040
 4322SOL     OW13559   2.670   5.341   6.963  0.0503 -0.2371 -0.4463
 4322SOL    HW113560   2.665   5.252   6.997 -0.5532  0.2021  0.6054
 4322SOL    HW213561   2.604   5.344   6.894  1.5991 -1.2667 -2.0381
 4323SOL     OW13562   1.366   5.376   4.500  0.3347 -0.2395 -0.1045
 4323SOL    HW113563   1.435   5.331   4.548  1.9738  1.4706 -0.7962
 4323SOL    HW213564   1.322   5.430   4.565  0.8508  0.0758 -0.0181
 4324SOL     OW13565   0.859   0.065   3.701 -0.0081 -0.2471 -0.0609
 4324SOL    HW113566   0.936   0.080   3.756  0.6618 -0.5063 -0.9216
 4324SOL    HW213567   0.815   0.150   3.697 -0.2224 -0.2868  1.0925
 4325SOL     OW13568   5.245   1.432   5.377  0.0944  0.8455  0.2953
 4325SOL    HW113569   5.174   1.371   5.398  1.1116  0.8358  4.1893
 4325SOL    HW213570   5.323   1.376   5.370  0.4503  1.3172  0.4920
 4326SOL     OW13571   5.108   6.961   5.515  0.3980  0.4961  0.1520
 4326SOL    HW113572   5.100   7.037   5.458  0.2912  0.4253  0.0718
 4326SOL    HW213573   5.164   6.990   5.587  1.1962  0.3414 -0.4012
 4327SOL     OW13574   3.664   5.635   0.938 -0.7348  0.0425 -0.2945
 4327SOL    HW113575   3.638   5.586   1.017 -2.1089 -0.5861 -1.1244
 4327SOL    HW213576   3.759   5.642   0.945 -0.9496  1.0341  2.0168
 4328SOL     OW13577   3.577   6.525   3.824  0.3369  0.0098 -0.1909
 4328SOL    HW113578   3.511   6.594   3.823 -1.2058 -1.4188 -0.3709
 4328SOL    HW213579   3.545   6.461   3.760  2.7888  0.0632 -1.5273
 4329SOL     OW13580   0.454   1.036   3.651 -0.2622  0.1441  0.2587
 4329SOL    HW113581   0.540   1.060   3.615  1.0643 -2.6657  1.3691
 4329SOL    HW213582   0.437   1.102   3.718  1.3863  0.3115  0.5350
 4330SOL     OW13583   2.996   4.570   1.167 -0.1752 -0.3049 -0.5595
 4330SOL    HW113584   2.916   4.522   1.187 -0.6775  0.4771 -0.6606
 4330SOL    HW213585   2.972   4.625   1.092  0.0555  0.9321  0.2748
 4331SOL     OW13586   2.897   3.295   1.762  0.1303  0.6834  0.0590
 4331SOL    HW113587   2.966   3.337   1.712  1.4827 -0.9330  0.5124
 4331SOL    HW213588   2.888   3.348   1.841 -0.4471  1.9519 -0.8392
 4332SOL     OW13589   7.100   2.254   1.595 -0.3608  0.3195  0.2267
 4332SOL    HW113590   7.079   2.348   1.591  1.2375  0.6829  0.1692
 4332SOL    HW213591   7.086   2.230   1.686  2.2234  1.3390  0.9089
 4333SOL     OW13592   4.996   6.588   1.310  0.8007 -0.4866  0.0671
 4333SOL    HW113593   4.924   6.591   1.373 -0.1857 -1.9455 -0.9551
 4333SOL    HW213594   4.990   6.670   1.262  0.8504  0.1252  1.0926
 4334SOL     OW13595   3.842   2.203   3.725  0.1660 -0.4230 -0.0820
 4334SOL    HW113596   3.856   2.297   3.710 -0.1764 -0.2882  0.4337
 4334SOL    HW213597   3.852   2.164   3.638 -0.6314  0.2052 -0.4694
 4335SOL     OW13598   6.636   5.265   2.910  0.0835  0.1484  0.2752
 4335SOL    HW113599   6.558   5.271   2.855 -1.0909  0.7071  1.9285
 4335SOL    HW213600   6.622   5.188   2.964  1.5444 -0.7989 -0.6560
 4336SOL     OW13601   6.042   0.496   0.363 -0.6143 -0.7190  0.1440
 4336SOL    HW113602   5.984   0.420   0.368 -2.1158  0.3770  0.0642
 4336SOL    HW213603   6.030   0.530   0.274 -0.1567 -0.2434  0.2582
 4337SOL     OW13604   1.702   3.283   6.583  0.4683 -0.5399 -0.0847
 4337SOL    HW113605   1.660   3.313   6.502  1.5898 -0.1070 -0.5207
 4337SOL    HW213606   1.777   3.232   6.554  0.1070 -1.5244  0.6849
 4338SOL     OW13607   0.187   4.987   1.016  0.3265 -0.1104 -0.2161
 4338SOL    HW113608   0.155   5.066   1.059  1.4209 -0.5499  1.4679
 4338SOL    HW213609   0.198   5.012   0.925  2.6731  2.3343  0.6661
 4339SOL     OW13610   3.794   4.431   4.847 -0.1186  1.2958 -0.5548
 4339SOL    HW113611   3.799   4.523   4.872 -1.9374  0.7389  2.0155
 4339SOL    HW213612   3.852   4.386   4.909 -1.6140  0.3561  0.1788
 4340SOL     OW13613   7.032   4.195   0.632  0.7816  0.4274 -0.2316
 4340SOL    HW113614   6.971   4.265   0.610 -0.1034 -0.6391 -1.2225
 4340SOL    HW213615   7.066   4.219   0.718 -0.3038  1.5247 -0.1006
 4341SOL     OW13616   5.931   5.726   1.640 -0.0329  0.4037  0.0590
 4341SOL    HW113617   5.858   5.664   1.649 -0.8130  1.5892  2.0027
 4341SOL    HW213618   6.005   5.671   1.616 -1.1908 -1.0214 -0.3649
 4342SOL     OW13619   6.815   1.930   5.099 -0.4383  0.0967  0.8456
 4342SOL    HW113620   6.752   1.977   5.045 -1.2445 -1.3045  0.5450
 4342SOL    HW213621   6.769   1.851   5.128  0.1984  0.4596  3.0021
 4343SOL     OW13622   5.384   5.862   0.644  0.4643 -0.0937  0.4729
 4343SOL    HW113623   5.330   5.916   0.586  1.9231  1.3946  0.4444
 4343SOL    HW213624   5.322   5.811   0.694 -0.8858 -0.2268 -1.2753
 4344SOL     OW13625   6.090   1.355   6.847 -0.3860 -0.8605  0.4841
 4344SOL    HW113626   6.145   1.432   6.833  0.8184 -1.7979 -0.0465
 4344SOL    HW213627   6.050   1.369   6.933  0.0030  0.2455  0.4909
 4345SOL     OW13628   3.486   4.042   5.797  0.0106 -0.1229 -0.5508
 4345SOL    HW113629   3.424   3.996   5.740 -1.3641 -0.6613  1.3403
 4345SOL    HW213630   3.439   4.120   5.825  0.4989 -0.0991  0.2027
 4346SOL     OW13631   4.391   3.207   5.884  0.1323  0.3548  0.1973
 4346SOL    HW113632   4.301   3.190   5.913 -0.4892 -2.0156 -2.8559
 4346SOL    HW213633   4.443   3.138   5.925  0.3308  0.7728  0.6645
 4347SOL     OW13634   3.680   6.784   3.166  0.3508 -0.1491 -0.0530
 4347SOL    HW113635   3.717   6.852   3.223 -1.1677  0.0197  0.7670
 4347SOL    HW213636   3.587   6.781   3.190 -0.7806  1.2594 -3.8667
 4348SOL     OW13637   0.658   1.824   1.822 -0.0547 -0.1384 -0.4329
 4348SOL    HW113638   0.744   1.860   1.799  0.4198 -0.1065  1.3162
 4348SOL    HW213639   0.598   1.865   1.759  0.6803  2.6621  0.5825
 4349SOL     OW13640   4.870   2.013   0.070  0.0520 -0.2523 -0.0668
 4349SOL    HW113641   4.818   2.085   0.034 -0.0136 -0.7904 -1.0604
 4349SOL    HW213642   4.922   2.053   0.139 -3.3283 -0.0935  2.5152
 4350SOL     OW13643   4.685   3.867   6.990  0.0976  0.3572  0.0520
 4350SOL    HW113644   4.645   3.826   6.913  0.0878 -2.3292  1.4327
 4350SOL    HW213645   4.615   3.868   7.055  1.4292 -1.7522  1.5574
 4351SOL     OW13646   6.014   0.237   2.475 -0.5695 -0.0749 -0.2581
 4351SOL    HW113647   6.041   0.185   2.550  0.6261 -0.2238 -0.7802
 4351SOL    HW213648   5.959   0.178   2.423  0.3031 -0.6374 -0.5510
 4352SOL     OW13649   2.935   5.243   7.212  0.7614 -0.5558 -0.5250
 4352SOL    HW113650   2.989   5.208   7.284 -0.3562 -0.6208  0.3014
 4352SOL    HW213651   2.934   5.338   7.226 -0.5939 -0.6827  0.3871
 4353SOL     OW13652   7.212   5.950   5.658  0.6559  0.0668 -0.0702
 4353SOL    HW113653   7.307   5.964   5.653  0.2796  2.4284 -0.9254
 4353SOL    HW213654   7.185   5.936   5.567 -0.0341  0.8425  0.0178
 4354SOL     OW13655   2.711   2.218   4.873  0.1752 -0.1774  0.1671
 4354SOL    HW113656   2.623   2.188   4.855 -0.0851  1.1579 -0.9083
 4354SOL    HW213657   2.765   2.177   4.805 -0.0064  0.8423 -0.6154
 4355SOL     OW13658   0.330   4.721   6.007  0.1445 -0.2064  0.4178
 4355SOL    HW113659   0.353   4.711   5.915  0.9364 -1.8100  0.7817
 4355SOL    HW213660   0.235   4.706   6.010  0.3639 -1.6991  0.0861
 4356SOL     OW13661   3.684   1.342   6.866 -0.7560  0.2775 -0.4022
 4356SOL    HW113662   3.643   1.415   6.820 -2.7395  1.1846  2.6171
 4356SOL    HW213663   3.621   1.319   6.935  1.4658 -1.8811  0.9906
 4357SOL     OW13664   1.013   1.724   5.388 -0.7526 -0.0484  0.2482
 4357SOL    HW113665   0.954   1.666   5.340 -0.4040 -0.3396  0.1727
 4357SOL    HW213666   1.100   1.697   5.361 -0.6173  1.0415 -0.3949
 4358SOL     OW13667   5.220   5.348   5.649 -0.1275  0.3287  0.5632
 4358SOL    HW113668   5.227   5.398   5.731  0.0546 -0.4996  1.0670
 4358SOL    HW213669   5.254   5.407   5.582  1.3306  0.4069  1.3458
 4359SOL     OW13670   1.659   6.064   0.639  0.0937  0.2209  0.4241
 4359SOL    HW113671   1.567   6.073   0.615  0.0024  0.8718  1.0066
 4359SOL    HW213672   1.658   6.052   0.734  0.6734  1.3592  0.5814
 4360SOL     OW13673   0.809   5.996   7.114 -0.2400 -0.1189  0.3983
 4360SOL    HW113674   0.738   5.939   7.142 -0.8668  1.3292  1.8607
 4360SOL    HW213675   0.781   6.032   7.030 -0.6518 -0.5324  0.3591
 4361SOL     OW13676   2.747   0.816   3.465  0.0903  0.0660 -0.0157
 4361SOL    HW113677   2.730   0.907   3.441  1.5582  0.5588  0.7932
 4361SOL    HW213678   2.665   0.770   3.445 -0.3611  1.3909 -1.2526
 4362SOL     OW13679   2.591   2.634   5.663 -0.5540 -0.4206  0.5584
 4362SOL    HW113680   2.517   2.575   5.672 -1.8260  1.1144  0.3192
 4362SOL    HW213681   2.654   2.604   5.729 -1.2860 -1.8511  0.6205
 4363SOL     OW13682   6.034   4.783   6.775 -0.1718 -0.0136  0.1190
 4363SOL    HW113683   6.047   4.692   6.752  1.4123  0.1418  0.3463
 4363SOL    HW213684   6.010   4.781   6.868  3.0266 -0.0420  1.0254
 4364SOL     OW13685   6.557   6.052   3.735  0.2461 -0.4921 -0.0515
 4364SOL    HW113686   6.600   5.982   3.686 -0.4874 -0.7200 -0.3774
 4364SOL    HW213687   6.509   6.007   3.805 -0.1746 -0.3134 -0.2211
 4365SOL     OW13688   2.618   4.879   4.168 -0.0361  0.0568 -0.2237
 4365SOL    HW113689   2.566   4.802   4.193 -0.9112  1.3544  2.1542
 4365SOL    HW213690   2.706   4.859   4.200 -0.2731  0.0315  0.4363
 4366SOL     OW13691   5.430   2.269   3.418 -0.2968  0.9705 -0.1833
 4366SOL    HW113692   5.442   2.277   3.512 -0.6237  3.0837 -0.2932
 4366SOL    HW213693   5.402   2.179   3.404 -2.1382  1.1947  1.9286
 4367SOL     OW13694   2.797   5.160   3.498 -0.6612 -0.2617 -0.3362
 4367SOL    HW113695   2.770   5.180   3.587 -1.6361 -1.4380 -0.3489
 4367SOL    HW213696   2.742   5.216   3.443  1.0499  1.6380 -0.1672
 4368SOL     OW13697   5.126   7.071   1.811 -0.4862  0.7009 -0.7591
 4368SOL    HW113698   5.177   7.148   1.785  0.9857 -0.8143 -2.4348
 4368SOL    HW213699   5.106   7.027   1.729 -2.1166 -0.2449  0.1233
 4369SOL     OW13700   2.947   5.028   4.295 -0.7359  0.3372  0.3180
 4369SOL    HW113701   2.915   4.950   4.250 -0.0611  0.3169 -0.1472
 4369SOL    HW213702   3.042   5.025   4.284 -0.7185  1.3549  0.0647
 4370SOL     OW13703   3.181   0.379   1.827 -0.5077  0.2615  0.3049
 4370SOL    HW113704   3.184   0.436   1.904  1.3278 -2.0923  2.0390
 4370SOL    HW213705   3.273   0.367   1.802 -0.9002 -1.6212 -0.2851
 4371SOL     OW13706   1.668   3.584   4.297 -0.7796  0.4427  0.0082
 4371SOL    HW113707   1.665   3.492   4.321 -0.5313  0.7914  1.4241
 4371SOL    HW213708   1.678   3.584   4.202  2.0767 -0.9918  0.2756
 4372SOL     OW13709   0.273   6.565   1.621  0.0186  0.4398 -0.2134
 4372SOL    HW113710   0.304   6.561   1.531 -0.3685 -1.3865 -0.2806
 4372SOL    HW213711   0.256   6.474   1.645 -0.4481  0.9576  1.5063
 4373SOL     OW13712   4.886   6.435   4.967 -0.3989  0.3628 -0.0486
 4373SOL    HW113713   4.898   6.478   4.882  0.7489  0.0578 -0.0462
 4373SOL    HW213714   4.891   6.507   5.030 -0.6425  0.5096 -0.1951
 4374SOL     OW13715   6.005   3.632   2.365  0.0808 -0.2287  0.0812
 4374SOL    HW113716   5.972   3.557   2.414  0.1238 -1.5927 -1.9154
 4374SOL    HW213717   5.990   3.609   2.273  0.4708  2.0367 -0.5769
 4375SOL     OW13718   3.565   6.934   4.211  0.3227 -0.7032  0.1454
 4375SOL    HW113719   3.567   6.970   4.122 -0.4068 -1.0253 -0.0079
 4375SOL    HW213720   3.588   7.007   4.267 -1.8911  0.2142 -0.1015
 4376SOL     OW13721   1.498   4.068   5.805  0.1403 -0.7528  0.2052
 4376SOL    HW113722   1.520   4.153   5.768 -2.9726  0.7416  1.5561
 4376SOL    HW213723   1.460   4.019   5.732  1.9896 -1.0265 -0.5899
 4377SOL     OW13724   4.366   3.075   0.639  0.7661 -0.2311 -0.6521
 4377SOL    HW113725   4.398   3.099   0.726 -2.1776 -0.8873  0.6503
 4377SOL    HW213726   4.335   2.985   0.648 -2.3988  0.7036 -1.5365
 4378SOL     OW13727   6.930   7.076   0.522  0.4709 -0.1290 -0.2520
 4378SOL    HW113728   6.982   7.155   0.539  2.6183 -1.2394 -1.5231
 4378SOL    HW213729   6.965   7.041   0.441 -1.3266 -1.7243 -0.3795
 4379SOL     OW13730   4.412   4.693   6.187 -0.4472  0.0756 -0.0001
 4379SOL    HW113731   4.441   4.766   6.242 -2.3799  1.2804 -0.5130
 4379SOL    HW213732   4.441   4.614   6.234 -1.2209  1.0961  2.2812
 4380SOL     OW13733   4.049   1.985   3.196 -0.2301 -0.3792  0.0922
 4380SOL    HW113734   3.997   2.058   3.163  0.8662 -0.8637 -2.8352
 4380SOL    HW213735   4.139   2.008   3.175  0.3257 -1.6565  1.0011
 4381SOL     OW13736   1.869   4.676   5.828  0.1722  0.7561  0.7767
 4381SOL    HW113737   1.856   4.630   5.911  0.6763  0.8074  0.8843
 4381SOL    HW213738   1.810   4.751   5.833  0.5746  1.0406  1.3064
 4382SOL     OW13739   0.096   2.095   3.443  0.0193  0.4332  0.1836
 4382SOL    HW113740   0.047   2.028   3.395  1.1115 -0.1171 -0.1806
 4382SOL    HW213741   0.107   2.166   3.379 -1.0527  0.9418  0.5403
 4383SOL     OW13742   4.258   3.495   0.648  0.0073  0.2782 -0.8985
 4383SOL    HW113743   4.241   3.507   0.742  0.3960 -0.0494 -0.7858
 4383SOL    HW213744   4.172   3.505   0.607 -0.2795 -0.2709 -0.4393
 4384SOL     OW13745   2.091   6.608   1.580 -0.3401  0.8546 -0.3533
 4384SOL    HW113746   2.068   6.517   1.598 -0.3244  0.4387 -2.3950
 4384SOL    HW213747   2.168   6.624   1.634 -1.9531  0.5286  2.1699
 4385SOL     OW13748   6.463   6.204   2.465  0.2146 -0.2825  0.5617
 4385SOL    HW113749   6.548   6.222   2.504  0.1484  0.0641  0.5418
 4385SOL    HW213750   6.461   6.108   2.456  1.2154 -0.1864 -0.8139
 4386SOL     OW13751   2.193   3.003   0.929  0.3989 -0.4628 -0.1398
 4386SOL    HW113752   2.271   2.952   0.952  0.7178  0.0784 -0.0148
 4386SOL    HW213753   2.188   3.070   0.997 -1.1423 -1.5371  0.8131
 4387SOL     OW13754   1.209   3.789   3.045 -0.2251 -0.2442  0.1309
 4387SOL    HW113755   1.232   3.704   3.083  0.2169  0.9757  2.7294
 4387SOL    HW213756   1.215   3.850   3.119  0.1951  2.1683 -1.8432
 4388SOL     OW13757   2.927   3.356   2.753 -0.5104  0.3554  0.0749
 4388SOL    HW113758   2.913   3.269   2.717  0.0920  0.4569 -0.4111
 4388SOL    HW213759   2.919   3.345   2.848 -3.1696  0.2750 -0.1087
 4389SOL     OW13760   6.978   2.262   6.453  0.0139  0.0553 -0.2294
 4389SOL    HW113761   6.982   2.228   6.542  0.3130  0.4523 -0.0903
 4389SOL    HW213762   6.914   2.206   6.409 -1.5224  1.0219  0.7332
 4390SOL     OW13763   0.975   4.621   3.799 -0.5040 -0.0435 -0.3217
 4390SOL    HW113764   0.994   4.537   3.840 -0.2344  0.4007  0.4638
 4390SOL    HW213765   0.921   4.668   3.863 -0.9662  0.2376 -0.9081
 4391SOL     OW13766   2.084   4.352   3.548 -0.7749  0.2611 -0.1675
 4391SOL    HW113767   2.138   4.366   3.470 -1.5454 -0.8019 -0.9137
 4391SOL    HW213768   2.024   4.426   3.549 -0.3907  0.5761 -0.2669
 4392SOL     OW13769   1.877   1.532   5.724 -0.8110 -0.2640  0.0399
 4392SOL    HW113770   1.891   1.446   5.684  2.3419  0.7122 -1.1111
 4392SOL    HW213771   1.783   1.536   5.740 -1.5623 -2.4702 -3.3011
 4393SOL     OW13772   1.315   0.639   0.868  0.3534 -0.3502  0.0217
 4393SOL    HW113773   1.334   0.551   0.901  1.8057 -0.7547 -1.7670
 4393SOL    HW213774   1.260   0.623   0.791  0.9266  0.2822 -0.5194
 4394SOL     OW13775   5.000   4.101   3.055  0.1122 -0.0395 -0.6296
 4394SOL    HW113776   5.059   4.160   3.102 -0.1296  0.1805 -0.5941
 4394SOL    HW213777   5.002   4.020   3.105  0.4747 -0.0688 -0.6958
 4395SOL     OW13778   2.564   4.345   5.241 -0.1324 -0.1159 -0.0955
 4395SOL    HW113779   2.499   4.412   5.263 -0.0750 -0.1273  0.1107
 4395SOL    HW213780   2.546   4.323   5.149 -0.3320 -0.0205 -0.0794
 4396SOL     OW13781   3.860   3.492   0.227  0.0218  0.0325  0.2213
 4396SOL    HW113782   3.940   3.446   0.199  0.5339  0.5930  0.7439
 4396SOL    HW213783   3.828   3.441   0.301  0.5271  0.4519  0.7295
 4397SOL     OW13784   4.150   7.168   6.681 -0.0196 -0.4526 -0.3982
 4397SOL    HW113785   4.101   7.207   6.608 -1.3798  0.7454  1.1268
 4397SOL    HW213786   4.085   7.158   6.751  1.4164 -0.9720  0.8787
 4398SOL     OW13787   4.807   2.409   3.121 -0.5765  0.1637  0.2300
 4398SOL    HW113788   4.722   2.368   3.110 -1.7168  2.7930 -1.1133
 4398SOL    HW213789   4.792   2.502   3.103  2.6945  0.5832 -0.7155
 4399SOL     OW13790   6.810   3.916   1.461 -0.2208 -0.5838 -0.0494
 4399SOL    HW113791   6.724   3.916   1.503  0.7460 -0.1428  1.9763
 4399SOL    HW213792   6.848   3.832   1.485  0.4601 -0.2038  0.2188
 4400SOL     OW13793   4.341   4.583   1.236  0.4694 -0.0029 -0.4195
 4400SOL    HW113794   4.421   4.530   1.239  1.4840  1.2696 -2.9630
 4400SOL    HW213795   4.365   4.659   1.182 -2.5251  0.2768 -1.4437
 4401SOL     OW13796   5.716   0.073   0.571  0.2521 -0.5623  0.2028
 4401SOL    HW113797   5.638   0.034   0.530  0.1577  0.5864 -0.7395
 4401SOL    HW213798   5.782   0.073   0.502  0.3694  0.5732  0.3036
 4402SOL     OW13799   6.062   3.540   4.894  0.0292  0.2645 -0.2320
 4402SOL    HW113800   6.067   3.495   4.979 -1.7814 -0.0587 -0.2865
 4402SOL    HW213801   6.025   3.625   4.915 -1.0051 -0.0479 -0.7796
 4403SOL     OW13802   3.370   6.833   3.077  0.3621  0.0197 -0.0788
 4403SOL    HW113803   3.401   6.802   3.163  0.3768 -1.4410 -0.5882
 4403SOL    HW213804   3.371   6.928   3.084  0.0857 -0.0843  1.6506
 4404SOL     OW13805   6.073   1.910   0.733  0.1498  0.0121  0.4033
 4404SOL    HW113806   6.022   1.831   0.751  2.1134 -1.9604 -2.2553
 4404SOL    HW213807   6.114   1.932   0.817  0.0676 -2.1577  1.0392
 4405SOL     OW13808   0.096   1.877   3.053 -0.0717  0.1169 -0.0915
 4405SOL    HW113809   0.168   1.859   3.113  0.3795 -1.0859 -0.9787
 4405SOL    HW213810   0.124   1.955   3.005  0.5069 -0.1850 -0.2438
 4406SOL     OW13811   0.219   4.146   4.987  0.4431  0.0260  0.1339
 4406SOL    HW113812   0.139   4.183   5.023 -0.4017  0.3170 -1.9377
 4406SOL    HW213813   0.234   4.066   5.037  0.1402  1.1644  2.0623
 4407SOL     OW13814   3.385   6.075   4.171 -0.6860 -0.0553 -0.1257
 4407SOL    HW113815   3.363   6.098   4.081  0.4022  2.2059  0.1611
 4407SOL    HW213816   3.365   6.153   4.222 -0.9019 -1.1722  1.5358
 4408SOL     OW13817   4.171   4.289   1.611  0.1055 -0.1544 -0.5618
 4408SOL    HW113818   4.234   4.356   1.636 -0.7630  1.0073 -1.4031
 4408SOL    HW213819   4.110   4.334   1.552  0.6303 -2.1573 -2.7244
 4409SOL     OW13820   0.591   3.208   4.552  0.0872 -0.4426  0.3552
 4409SOL    HW113821   0.665   3.260   4.583  0.1629  0.2447 -0.9580
 4409SOL    HW213822   0.515   3.267   4.559  0.4406  0.4503 -2.6890
 4410SOL     OW13823   4.689   3.092   2.863 -0.2696  0.2161 -0.1078
 4410SOL    HW113824   4.643   3.109   2.780  0.9251  2.4756 -0.3581
 4410SOL    HW213825   4.674   3.171   2.914 -1.2726 -1.3074  1.9990
 4411SOL     OW13826   0.316   0.807   1.979  0.1836 -0.8564  0.3095
 4411SOL    HW113827   0.227   0.778   1.997 -0.2229  0.0611 -0.1374
 4411SOL    HW213828   0.318   0.898   2.009  0.5851 -0.4758 -0.8359
 4412SOL     OW13829   5.476   3.524   2.249  0.7858 -0.0975 -0.1363
 4412SOL    HW113830   5.547   3.478   2.294  1.7139  0.7781 -0.6891
 4412SOL    HW213831   5.436   3.579   2.316  0.6455 -0.5561  0.1640
 4413SOL     OW13832   7.248   0.446   0.979 -0.1807 -0.3808 -0.2414
 4413SOL    HW113833   7.157   0.455   0.953 -0.7498 -0.6512  1.6468
 4413SOL    HW213834   7.262   0.352   0.987  0.1537 -0.3237 -0.1386
 4414SOL     OW13835   6.089   2.040   2.012 -0.7903 -0.1330  0.3656
 4414SOL    HW113836   6.175   2.017   2.047  0.4631  0.6017 -2.0669
 4414SOL    HW213837   6.066   2.122   2.055  0.7209  0.7737 -0.5458
 4415SOL     OW13838   2.148   6.392   0.798  0.9181  0.5678  0.0108
 4415SOL    HW113839   2.171   6.481   0.773 -0.6013  1.7712  2.6991
 4415SOL    HW213840   2.218   6.364   0.856 -0.1121  1.1809  1.5941
 4416SOL     OW13841   1.405   2.928   1.025 -0.7468 -0.6311 -0.3108
 4416SOL    HW113842   1.392   3.018   1.056 -1.4633  0.1522 -2.7594
 4416SOL    HW213843   1.322   2.884   1.042 -0.0698 -1.1410  1.8027
 4417SOL     OW13844   3.943   3.595   4.141  0.1048  0.1023  0.2012
 4417SOL    HW113845   3.887   3.670   4.121  0.0121  0.3352  1.3141
 4417SOL    HW213846   4.032   3.624   4.119 -0.0812  0.0845 -0.5955
 4418SOL     OW13847   6.514   4.583   2.736 -0.1532  0.0143  0.8303
 4418SOL    HW113848   6.562   4.561   2.656  1.0717 -1.5887  1.9881
 4418SOL    HW213849   6.423   4.594   2.707 -0.3131 -3.7240 -0.2937
 4419SOL     OW13850   2.542   6.393   1.784  0.4681 -0.4433  0.1609
 4419SOL    HW113851   2.542   6.412   1.878  1.2009  1.0545 -0.1358
 4419SOL    HW213852   2.625   6.430   1.752  0.6821 -1.8122 -0.9035
 4420SOL     OW13853   1.530   2.194   1.150 -0.5391 -0.7252  0.6985
 4420SOL    HW113854   1.495   2.249   1.081  0.4028 -0.5369  0.3612
 4420SOL    HW213855   1.624   2.212   1.150 -0.1239 -2.7238  0.2123
 4421SOL     OW13856   5.352   0.174   0.689 -0.2705  0.2067 -0.1423
 4421SOL    HW113857   5.360   0.087   0.730 -0.6334 -0.5247 -1.5992
 4421SOL    HW213858   5.358   0.235   0.763  1.8888 -0.9641  0.7297
 4422SOL     OW13859   6.841   3.227   3.969  0.6259  0.7155  0.0130
 4422SOL    HW113860   6.870   3.243   4.059  0.0067  2.8483 -0.1623
 4422SOL    HW213861   6.919   3.237   3.916  1.5615 -3.0210  0.5055
 4423SOL     OW13862   2.773   5.002   6.329  0.3109 -0.5830  0.0483
 4423SOL    HW113863   2.747   4.946   6.402  1.3397 -0.9283  0.1511
 4423SOL    HW213864   2.795   5.086   6.369 -1.4895 -0.0046 -0.1329
 4424SOL     OW13865   0.686   1.341   2.251  0.6455 -0.2706 -0.4271
 4424SOL    HW113866   0.718   1.286   2.323 -0.1945 -0.8550 -0.5054
 4424SOL    HW213867   0.759   1.342   2.188  1.8098  1.1104  0.8926
 4425SOL     OW13868   6.239   5.997   2.273  0.6748  0.0650  0.1206
 4425SOL    HW113869   6.171   5.930   2.274  0.3137  0.4265  1.4194
 4425SOL    HW213870   6.225   6.045   2.355  0.4912  2.1374 -1.0976
 4426SOL     OW13871   3.993   6.982   3.659 -0.0743 -0.3732  0.4218
 4426SOL    HW113872   4.065   7.041   3.680 -1.0954  0.8146  0.6663
 4426SOL    HW213873   3.933   6.991   3.733 -1.1065 -0.3150 -0.4143
 4427SOL     OW13874   2.843   0.061   4.324 -0.1524 -0.1128 -0.4570
 4427SOL    HW113875   2.850   0.091   4.233 -0.4095 -0.4837 -0.5968
 4427SOL    HW213876   2.912   0.109   4.370  0.2501 -0.2415 -0.9298
 4428SOL     OW13877   2.808   0.493   1.732  0.6242 -0.4276  0.5205
 4428SOL    HW113878   2.815   0.588   1.742  0.2001 -0.4569  1.1914
 4428SOL    HW213879   2.787   0.462   1.820  0.0068 -1.0653  0.1536
 4429SOL     OW13880   5.016   4.919   5.459  0.0592 -0.3498  0.2456
 4429SOL    HW113881   5.033   4.995   5.515  0.8171  1.1347 -1.9141
 4429SOL    HW213882   4.923   4.901   5.470 -0.7402  2.5596 -1.1187
 4430SOL     OW13883   3.947   6.261   5.507  0.0418 -0.1819 -0.3620
 4430SOL    HW113884   3.868   6.236   5.555  1.1753  0.0157  1.6601
 4430SOL    HW213885   3.922   6.342   5.462 -1.0532 -0.3889 -0.1623
 4431SOL     OW13886   0.373   3.364   0.116  0.0795 -0.6501  0.5580
 4431SOL    HW113887   0.349   3.338   0.205 -2.8674  0.7273  0.2374
 4431SOL    HW213888   0.335   3.297   0.060 -1.5529  0.5912  0.1397
 4432SOL     OW13889   0.170   5.975   1.146  0.3483  0.2074  0.4400
 4432SOL    HW113890   0.193   5.979   1.239 -0.3258 -2.3550  0.7392
 4432SOL    HW213891   0.076   5.958   1.144  0.2031  1.0309 -0.7289
 4433SOL     OW13892   4.446   2.999   4.152 -0.3535  0.2478  0.0024
 4433SOL    HW113893   4.516   3.060   4.173 -1.0838  0.7774  0.9793
 4433SOL    HW213894   4.392   3.045   4.087 -0.6179  0.4387  0.3555
 4434SOL     OW13895   2.660   2.667   2.715  0.1683 -0.1843  0.6583
 4434SOL    HW113896   2.679   2.619   2.634 -0.3572  1.2128 -0.3098
 4434SOL    HW213897   2.590   2.617   2.756 -0.3720 -0.2651 -0.3352
 4435SOL     OW13898   3.027   4.585   5.233 -0.4612 -0.3478 -0.2896
 4435SOL    HW113899   2.958   4.651   5.241 -0.9795 -0.8619 -0.5035
 4435SOL    HW213900   3.060   4.574   5.322 -0.6863 -0.1336 -0.1775
 4436SOL     OW13901   0.589   6.708   3.047  0.0997 -0.2295 -0.2362
 4436SOL    HW113902   0.501   6.725   3.082  1.6623  0.6376  3.5260
 4436SOL    HW213903   0.646   6.766   3.097  2.9381 -1.2767 -2.1453
 4437SOL     OW13904   2.499   4.227   1.433  0.1346  0.3948 -0.2858
 4437SOL    HW113905   2.424   4.207   1.489 -0.8385  0.5351 -1.5013
 4437SOL    HW213906   2.500   4.322   1.428 -1.0210  0.3524 -2.0792
 4438SOL     OW13907   0.909   2.639   3.149 -0.0495  0.0954 -0.0691
 4438SOL    HW113908   0.870   2.725   3.167  0.5504 -0.1777  2.6348
 4438SOL    HW213909   0.876   2.582   3.219 -2.2608 -2.5289 -3.0765
 4439SOL     OW13910   4.909   1.243   6.022 -0.2515  0.0066 -0.0248
 4439SOL    HW113911   4.824   1.286   6.023 -0.1370  0.2260  0.3549
 4439SOL    HW213912   4.955   1.282   5.947 -0.1739  0.4872  0.2750
 4440SOL     OW13913   3.892   4.889   5.160  0.0476 -0.0463 -0.4541
 4440SOL    HW113914   3.802   4.920   5.170 -0.3967 -1.5152  0.2588
 4440SOL    HW213915   3.945   4.969   5.152 -1.1204  0.8622  0.8358
 4441SOL     OW13916   5.955   5.946   3.527  0.4443 -0.3893 -0.0808
 4441SOL    HW113917   6.012   6.013   3.489  1.8617 -0.8776  1.1386
 4441SOL    HW213918   5.994   5.863   3.501 -1.0023 -0.7807 -1.1230
 4442SOL     OW13919   2.693   4.241   0.907  0.4358  0.1614 -0.7402
 4442SOL    HW113920   2.724   4.205   0.990  0.3397  0.4067 -0.5976
 4442SOL    HW213921   2.772   4.252   0.855  0.6806  1.5084 -0.0932
 4443SOL     OW13922   0.840   1.328   5.807  0.4562 -0.4715 -0.3041
 4443SOL    HW113923   0.849   1.402   5.867  3.3056  0.9689 -2.3953
 4443SOL    HW213924   0.752   1.338   5.770  0.6692  1.6995 -0.2911
 4444SOL     OW13925   3.073   1.411   5.943 -0.1548  0.1251 -0.1585
 4444SOL    HW113926   3.020   1.474   5.992 -0.6383  0.0518 -0.5859
 4444SOL    HW213927   3.066   1.440   5.852 -1.4295 -1.2870 -0.5284
 4445SOL     OW13928   0.218   1.417   0.981 -0.1870 -0.1430 -0.4621
 4445SOL    HW113929   0.226   1.418   1.076 -0.0083  0.2190 -0.4814
 4445SOL    HW213930   0.273   1.344   0.953 -1.3485 -1.1359 -0.1852
 4446SOL     OW13931   1.024   0.504   3.120 -0.0481  0.0450  0.3012
 4446SOL    HW113932   0.975   0.435   3.166  0.2972 -0.1632  0.3610
 4446SOL    HW213933   0.978   0.585   3.142 -2.4766 -0.4935 -2.4343
 4447SOL     OW13934   4.899   6.197   4.528 -0.4821  0.0074  0.5223
 4447SOL    HW113935   4.839   6.126   4.505 -1.3177  0.9826 -0.3366
 4447SOL    HW213936   4.918   6.241   4.445 -1.5775  2.0316  1.3050
 4448SOL     OW13937   2.537   1.710   2.442 -0.3614 -0.1825  0.0843
 4448SOL    HW113938   2.459   1.693   2.389 -0.6832  0.4638  0.3468
 4448SOL    HW213939   2.503   1.752   2.522  0.2309 -0.0964  0.2914
 4449SOL     OW13940   5.501   3.151   1.982  0.4297 -0.2009  0.9002
 4449SOL    HW113941   5.550   3.069   1.992 -0.5054 -0.9324 -0.5147
 4449SOL    HW213942   5.569   3.219   1.981  1.3202 -1.0882  0.3850
 4450SOL     OW13943   3.514   3.743   5.706  0.0887  0.1902  0.2888
 4450SOL    HW113944   3.474   3.674   5.758  0.9053  0.1069  0.8257
 4450SOL    HW213945   3.495   3.824   5.754 -0.9478  0.3575 -0.3886
 4451SOL     OW13946   4.674   5.762   4.365  0.1185  0.6168 -0.2111
 4451SOL    HW113947   4.589   5.720   4.376 -0.3269  1.9768  1.7079
 4451SOL    HW213948   4.698   5.744   4.274 -2.2153  0.2383 -0.7693
 4452SOL     OW13949   6.357   1.784   3.100 -0.5374 -0.7261  0.2046
 4452SOL    HW113950   6.368   1.851   3.032  0.2139  0.1163  1.1521
 4452SOL    HW213951   6.274   1.742   3.077 -2.6583  2.6305  1.3634
 4453SOL     OW13952   5.063   4.991   0.206 -0.2175 -0.0578  0.7478
 4453SOL    HW113953   5.096   5.041   0.280  2.3350 -0.3855 -0.1023
 4453SOL    HW213954   5.105   4.905   0.215 -3.2705 -1.5392  1.2921
 4454SOL     OW13955   6.981   5.555   2.521 -0.1318  0.2423  0.0407
 4454SOL    HW113956   7.004   5.506   2.442 -1.8547  1.8156 -1.4883
 4454SOL    HW213957   7.043   5.526   2.587  0.5127 -2.0674 -1.5475
 4455SOL     OW13958   1.698   2.952   4.134 -0.4901  0.3461  0.3543
 4455SOL    HW113959   1.708   2.858   4.152 -0.3412  0.7060  2.2254
 4455SOL    HW213960   1.633   2.982   4.197 -3.3494  0.8011 -2.7017
 4456SOL     OW13961   0.668   2.228   3.224 -0.6297  0.6749 -0.3043
 4456SOL    HW113962   0.724   2.213   3.148 -0.5902  0.1300 -0.1701
 4456SOL    HW213963   0.579   2.223   3.189 -0.6298 -0.5493 -0.1433
 4457SOL     OW13964   4.104   1.144   6.696  0.5285 -0.2611 -0.0490
 4457SOL    HW113965   4.041   1.085   6.656  1.5259 -0.8335 -0.8099
 4457SOL    HW213966   4.052   1.201   6.752 -0.9093  0.5005 -2.0921
 4458SOL     OW13967   6.335   0.837   6.490  0.2174  0.1622 -0.0608
 4458SOL    HW113968   6.370   0.902   6.429  1.5998 -2.5232 -2.2357
 4458SOL    HW213969   6.399   0.834   6.561  0.5051  0.6995 -0.2897
 4459SOL     OW13970   1.324   1.846   7.045  0.0025  0.1833 -0.1517
 4459SOL    HW113971   1.403   1.824   6.996  0.1194  1.9697 -0.7998
 4459SOL    HW213972   1.321   1.781   7.115  0.6309 -1.4973 -1.6406
 4460SOL     OW13973   1.598   5.722   6.382 -0.3615  0.4268 -0.1965
 4460SOL    HW113974   1.562   5.716   6.293 -0.3990 -0.9204 -0.1054
 4460SOL    HW213975   1.521   5.724   6.438 -0.3310  0.2364 -0.1470
 4461SOL     OW13976   1.390   0.170   4.296 -0.2357  0.0540  0.2999
 4461SOL    HW113977   1.409   0.223   4.218 -0.3510 -0.2338  0.0731
 4461SOL    HW213978   1.373   0.234   4.365  2.7793  0.3367  0.8357
 4462SOL     OW13979   5.943   5.354   4.903 -0.1321 -0.0603  0.2949
 4462SOL    HW113980   5.858   5.312   4.905  0.0083 -0.3385  0.3372
 4462SOL    HW213981   5.997   5.305   4.964 -0.1330  0.5297  0.7788
 4463SOL     OW13982   0.890   3.574   6.190  0.0597  0.3778 -0.7180
 4463SOL    HW113983   0.796   3.591   6.186 -0.1491 -0.6680 -0.4633
 4463SOL    HW213984   0.898   3.491   6.237  1.1753  0.9877  0.2062
 4464SOL     OW13985   3.114   1.964   6.492 -0.6870  0.2441 -0.3470
 4464SOL    HW113986   3.108   2.031   6.423 -0.2124  1.1213  0.4521
 4464SOL    HW213987   3.023   1.940   6.509 -0.7936 -0.2996 -1.5771
 4465SOL     OW13988   4.789   0.707   3.489  0.1164 -0.3930 -0.6523
 4465SOL    HW113989   4.846   0.631   3.474  2.2617  0.9853  0.3330
 4465SOL    HW213990   4.708   0.685   3.443  0.8109 -3.1478 -0.6529
 4466SOL     OW13991   4.972   5.674   2.979 -0.4783  0.1956  0.2000
 4466SOL    HW113992   5.013   5.753   3.013 -2.7515  2.1241 -1.3780
 4466SOL    HW213993   5.042   5.627   2.935  1.6178 -0.3487  3.9048
 4467SOL     OW13994   2.989   3.695   6.459 -0.0714 -0.7694 -0.4713
 4467SOL    HW113995   3.050   3.628   6.489 -0.7351 -1.1022  0.1378
 4467SOL    HW213996   3.039   3.777   6.463  0.2195 -0.9881  0.3697
 4468SOL     OW13997   3.083   3.960   6.465 -0.6589  0.4447 -0.1449
 4468SOL    HW113998   3.163   4.006   6.491 -1.7306  2.4974 -0.4098
 4468SOL    HW213999   3.040   4.019   6.404 -0.9672 -1.9093 -2.2553
 4469SOL     OW14000   5.463   3.945   4.458  0.3588  0.3981  0.2488
 4469SOL    HW114001   5.450   3.965   4.365  1.1226 -3.3219 -0.7365
 4469SOL    HW214002   5.392   3.992   4.502 -0.5733  1.5100 -2.3174
 4470SOL     OW14003   6.540   2.246   0.163  0.4513  0.4610 -0.1742
 4470SOL    HW114004   6.595   2.274   0.236  0.1222  0.2679  0.1482
 4470SOL    HW214005   6.511   2.158   0.187 -0.0091  0.5680 -0.3385
 4471SOL     OW14006   2.596   5.788   2.130  0.0512  0.3233  0.0212
 4471SOL    HW114007   2.554   5.870   2.103  0.5280  0.2274 -1.0447
 4471SOL    HW214008   2.630   5.751   2.049 -0.3817 -1.0635  0.4575
 4472SOL     OW14009   4.613   5.065   6.476  0.4888 -0.1219  0.3047
 4472SOL    HW114010   4.580   5.045   6.388  0.5576 -1.5908  0.6050
 4472SOL    HW214011   4.691   5.118   6.461 -0.1131  0.5555 -0.4911
 4473SOL     OW14012   2.883   2.428   0.582  0.7769  0.1122 -0.5830
 4473SOL    HW114013   2.937   2.352   0.602  0.3792  0.4104  1.7386
 4473SOL    HW214014   2.899   2.489   0.654  0.0355  1.6601 -1.6946
 4474SOL     OW14015   6.350   3.969   0.239 -0.0053 -0.4944  0.6096
 4474SOL    HW114016   6.306   4.041   0.284  0.7108 -1.3551  2.7469
 4474SOL    HW214017   6.294   3.893   0.254 -0.0664 -0.6756 -0.4933
 4475SOL     OW14018   5.574   2.612   4.928 -0.0782  0.4542 -0.1785
 4475SOL    HW114019   5.631   2.685   4.906  0.6399 -0.0660 -0.0292
 4475SOL    HW214020   5.502   2.653   4.977 -0.8781  1.3944 -2.0838
 4476SOL     OW14021   4.287   1.598   0.760  0.2129 -0.1774  0.5595
 4476SOL    HW114022   4.243   1.665   0.708  0.1763 -0.0986  0.6916
 4476SOL    HW214023   4.366   1.577   0.710  0.5195  0.3825  0.7970
 4477SOL     OW14024   7.187   5.773   0.329  0.3857 -0.4943 -0.4155
 4477SOL    HW114025   7.276   5.753   0.302  0.5604  2.1205 -1.8767
 4477SOL    HW214026   7.195   5.806   0.418  0.7122 -1.5205 -0.0589
 4478SOL     OW14027   6.332   6.131   1.120  0.2083  0.5316  0.0083
 4478SOL    HW114028   6.260   6.168   1.171  0.4719 -0.4650  1.1226
 4478SOL    HW214029   6.293   6.058   1.072  0.4359  0.1315  0.4384
 4479SOL     OW14030   4.842   3.064   4.067  0.4922  0.1983 -0.3300
 4479SOL    HW114031   4.777   3.109   4.121  0.7127  1.8513 -1.4053
 4479SOL    HW214032   4.882   3.000   4.126 -0.7292  0.5139  0.8793
 4480SOL     OW14033   3.627   0.669   6.123 -0.3077  0.5545  0.1039
 4480SOL    HW114034   3.561   0.721   6.077  0.6416  0.5307 -1.2993
 4480SOL    HW214035   3.708   0.684   6.074 -0.2523 -3.3024 -1.1359
 4481SOL     OW14036   5.448   3.703   3.751  0.1165 -0.1839  0.1160
 4481SOL    HW114037   5.519   3.691   3.815 -0.5975  0.4245  1.0277
 4481SOL    HW214038   5.478   3.776   3.696  0.0951  0.2250  0.6451
 4482SOL     OW14039   1.108   3.089   2.211 -0.4054 -0.0444  0.2587
 4482SOL    HW114040   1.178   3.154   2.212  0.8070 -1.3452  0.4304
 4482SOL    HW214041   1.052   3.117   2.138  0.4505  0.8316 -0.0825
 4483SOL     OW14042   0.360   5.133   7.130  0.2138 -0.6296  0.0920
 4483SOL    HW114043   0.314   5.217   7.131  2.5514  0.6670  1.1703
 4483SOL    HW214044   0.344   5.095   7.216  1.4991  0.0071  0.6108
 4484SOL     OW14045   7.064   2.457   2.642  0.2057  0.8143  0.1024
 4484SOL    HW114046   7.038   2.547   2.660 -0.4466  0.2327  2.2179
 4484SOL    HW214047   7.089   2.422   2.727  0.3559 -1.0397 -0.6774
 4485SOL     OW14048   0.401   2.553   4.180 -0.3833  0.1539  0.4375
 4485SOL    HW114049   0.307   2.567   4.195 -0.2002  1.9293  0.0834
 4485SOL    HW214050   0.426   2.623   4.119  0.8108 -1.3809 -0.8667
 4486SOL     OW14051   6.153   1.230   2.728 -0.0253 -0.3741  0.5182
 4486SOL    HW114052   6.239   1.263   2.754 -0.1450  1.0836 -0.8691
 4486SOL    HW214053   6.091   1.283   2.778 -0.1694  0.1700 -0.2325
 4487SOL     OW14054   6.926   6.635   3.886  0.2915  0.1021 -0.0663
 4487SOL    HW114055   6.864   6.563   3.896  0.4273 -0.0870 -0.5729
 4487SOL    HW214056   6.871   6.713   3.878  0.0276 -0.3234 -2.8223
 4488SOL     OW14057   6.101   5.804   6.165  0.0375 -0.0533  0.0053
 4488SOL    HW114058   6.043   5.841   6.099  0.9367  0.2846 -0.5959
 4488SOL    HW214059   6.182   5.854   6.158 -0.1679  0.6249  2.0079
 4489SOL     OW14060   1.304   4.152   2.988  0.2131  0.8057 -0.0540
 4489SOL    HW114061   1.398   4.150   3.004  0.4415 -1.7401 -1.4394
 4489SOL    HW214062   1.267   4.098   3.058  0.1032 -0.7574 -1.2965
 4490SOL     OW14063   6.942   2.740   4.216  0.0539 -0.1123 -0.2496
 4490SOL    HW114064   6.950   2.827   4.254  2.8474 -0.2612 -0.4135
 4490SOL    HW214065   6.934   2.755   4.122 -1.7246  0.0310 -0.0965
 4491SOL     OW14066   0.693   5.915   2.633  0.0861  0.5711 -0.4133
 4491SOL    HW114067   0.732   5.914   2.720 -0.4687  1.6414 -0.1413
 4491SOL    HW214068   0.624   5.849   2.637  1.9991 -1.5003 -0.9748
 4492SOL     OW14069   2.804   4.528   4.495  0.2087  0.3127  0.5939
 4492SOL    HW114070   2.872   4.582   4.536 -0.2813  0.3306  1.4004
 4492SOL    HW214071   2.733   4.525   4.560 -1.0534  1.2824 -0.6942
 4493SOL     OW14072   6.092   1.088   0.369  0.3918  0.3772  0.6044
 4493SOL    HW114073   6.104   0.993   0.364  0.7687  0.4741 -0.6053
 4493SOL    HW214074   6.148   1.123   0.300 -0.7882  1.3843  0.1188
 4494SOL     OW14075   5.893   0.020   2.703 -0.0427 -0.2654  0.2458
 4494SOL    HW114076   5.939  -0.059   2.730  0.8528  0.1762  0.0433
 4494SOL    HW214077   5.811  -0.011   2.665  0.2326 -1.0819  0.3210
 4495SOL     OW14078   4.520   6.294   1.671  0.5940  0.4810 -0.4491
 4495SOL    HW114079   4.601   6.298   1.721  0.5834 -0.7991 -0.3271
 4495SOL    HW214080   4.544   6.250   1.589 -0.5509 -2.5129  0.7600
 4496SOL     OW14081   2.109   0.534   6.575 -0.0290  0.0672 -0.0520
 4496SOL    HW114082   2.154   0.450   6.562 -0.1979  0.4385 -3.8000
 4496SOL    HW214083   2.169   0.599   6.540 -2.1891  0.8638 -2.4794
 4497SOL     OW14084   1.936   2.315   4.261 -0.2061  0.8550  0.2249
 4497SOL    HW114085   1.914   2.396   4.216  0.8509  0.5215 -0.9010
 4497SOL    HW214086   2.025   2.328   4.292 -0.7821  0.9381  1.9218
 4498SOL     OW14087   5.612   0.750   3.531 -0.3270 -0.2327  0.3918
 4498SOL    HW114088   5.613   0.845   3.520  0.1360 -0.3210 -0.3718
 4498SOL    HW214089   5.526   0.731   3.569 -1.0408  0.3299 -0.9171
 4499SOL     OW14090   5.476   3.154   6.495 -0.3836 -0.0776 -0.1087
 4499SOL    HW114091   5.460   3.097   6.570 -0.4075  0.0126 -0.0444
 4499SOL    HW214092   5.443   3.239   6.522 -0.7839 -0.1461 -0.3844
 4500SOL     OW14093   1.649   5.504   4.820  0.2976  0.3009  0.6066
 4500SOL    HW114094   1.570   5.473   4.864 -0.4730 -0.3200 -1.1685
 4500SOL    HW214095   1.681   5.575   4.875 -0.5977 -0.5009  2.1906
 4501SOL     OW14096   0.127   5.272   2.702 -0.6908 -0.0438 -0.2076
 4501SOL    HW114097   0.147   5.179   2.693 -1.7374 -0.4439  1.3247
 4501SOL    HW214098   0.198   5.317   2.656  0.5442 -1.5586  0.1884
 4502SOL     OW14099   6.835   2.109   1.853  0.1140 -0.1445 -0.4716
 4502SOL    HW114100   6.876   2.023   1.845  2.6634  1.1980 -2.6430
 4502SOL    HW214101   6.770   2.111   1.782  1.2378  0.3258 -1.5006
 4503SOL     OW14102   3.830   0.837   5.689  0.2750  0.1174  0.3700
 4503SOL    HW114103   3.782   0.763   5.726  1.5751 -0.5521  0.7265
 4503SOL    HW214104   3.922   0.810   5.691  0.8445  2.0803  1.3077
 4504SOL     OW14105   6.927   4.389   4.465  0.6894  0.3744 -0.3250
 4504SOL    HW114106   6.943   4.295   4.475  0.5386  0.4525  0.6700
 4504SOL    HW214107   6.846   4.394   4.413  0.8429 -0.0399 -0.6052
 4505SOL     OW14108   5.022   5.038   3.822  0.4241 -0.1095  0.0520
 4505SOL    HW114109   4.997   4.978   3.753  0.0746 -0.8302  0.7966
 4505SOL    HW214110   5.113   5.062   3.802  0.5601 -0.8793 -0.2414
 4506SOL     OW14111   3.602   0.146   2.652 -0.1465  0.0079 -0.1195
 4506SOL    HW114112   3.529   0.085   2.663 -0.5149  0.0961 -2.0290
 4506SOL    HW214113   3.563   0.226   2.617  0.6807  0.5389  0.1335
 4507SOL     OW14114   2.369   4.520   0.598  0.4297 -0.0649  0.2497
 4507SOL    HW114115   2.394   4.450   0.657  0.2208  1.2342  1.9193
 4507SOL    HW214116   2.448   4.540   0.548  0.4482 -1.5578 -0.3446
 4508SOL     OW14117   6.242   2.378   1.837  0.7808 -0.2746 -0.2032
 4508SOL    HW114118   6.265   2.408   1.749 -2.0981 -1.5654 -1.4754
 4508SOL    HW214119   6.172   2.437   1.864  1.9149  0.3517  1.4006
 4509SOL     OW14120   2.302   5.213   3.424  0.2999  0.9931  0.1653
 4509SOL    HW114121   2.303   5.232   3.330 -1.1913  2.4179  0.4228
 4509SOL    HW214122   2.228   5.154   3.436  0.7584  0.4647  0.3777
 4510SOL     OW14123   5.043   1.389   1.016 -0.5000  0.1670 -1.1041
 4510SOL    HW114124   5.042   1.322   0.948 -0.0241 -0.4706 -0.4922
 4510SOL    HW214125   5.027   1.471   0.970  0.0859 -0.2312 -2.0267
 4511SOL     OW14126   7.139   5.665   0.712  0.0090  0.6228  0.4773
 4511SOL    HW114127   7.136   5.596   0.646  0.7762  0.6481  0.4122
 4511SOL    HW214128   7.053   5.707   0.707 -0.0287  0.4560 -0.3257
 4512SOL     OW14129   3.082   0.723   1.080 -0.5912  0.8151  0.0240
 4512SOL    HW114130   2.992   0.720   1.047  0.2472 -1.6098 -2.1259
 4512SOL    HW214131   3.096   0.637   1.121  0.4122  1.5865  1.3642
 4513SOL     OW14132   4.325   6.890   6.033 -0.0016  0.1148  0.2947
 4513SOL    HW114133   4.333   6.797   6.009 -0.8905  0.0710  0.1331
 4513SOL    HW214134   4.324   6.890   6.128 -1.4640 -0.1904  0.2947
 4514SOL     OW14135   6.520   0.336   6.104 -0.1730 -0.5650 -0.1417
 4514SOL    HW114136   6.571   0.256   6.121  0.0136 -0.6137 -0.8918
 4514SOL    HW214137   6.431   0.304   6.086  0.0992 -0.6811 -1.3223
 4515SOL     OW14138   0.178   5.885   6.900  0.1116  0.2613  0.0125
 4515SOL    HW114139   0.247   5.835   6.857  0.3583 -0.4199  1.1788
 4515SOL    HW214140   0.171   5.966   6.849  0.1659 -0.6736 -1.4803
 4516SOL     OW14141   0.772   6.981   6.804  0.7701 -0.2389 -0.1542
 4516SOL    HW114142   0.756   6.950   6.893 -0.3083 -0.4796 -0.4269
 4516SOL    HW214143   0.857   7.025   6.809  0.4815  0.1904  1.1038
 4517SOL     OW14144   3.998   6.473   2.606 -0.1662  0.3247 -0.1051
 4517SOL    HW114145   3.984   6.397   2.663  0.7628 -1.0298 -1.6549
 4517SOL    HW214146   3.978   6.548   2.662  1.0168 -0.9436  2.1065
 4518SOL     OW14147   3.341   0.607   7.158 -0.2347 -0.0573  0.6223
 4518SOL    HW114148   3.297   0.670   7.102  1.4552 -1.4146 -2.3660
 4518SOL    HW214149   3.419   0.653   7.191 -0.0812  0.0692  0.0806
 4519SOL     OW14150   1.120   1.963   4.811  0.4491 -1.0805  0.0124
 4519SOL    HW114151   1.076   1.902   4.871  0.4252 -0.7561  0.3281
 4519SOL    HW214152   1.189   2.003   4.864  1.7011 -2.2105 -0.7079
 4520SOL     OW14153   4.694   0.948   0.835  0.5278  0.2233  0.2993
 4520SOL    HW114154   4.752   0.877   0.862 -0.4592 -1.0865 -0.9713
 4520SOL    HW214155   4.754   1.021   0.816  1.7474 -1.0159 -0.7189
 4521SOL     OW14156   4.136   5.700   5.828  0.2580  0.5743 -0.5851
 4521SOL    HW114157   4.072   5.769   5.813 -0.4929  0.2152  0.8943
 4521SOL    HW214158   4.084   5.620   5.836  1.0547 -0.0469 -1.3900
 4522SOL     OW14159   0.724   0.084   4.288  0.3205  0.1443  0.0951
 4522SOL    HW114160   0.674   0.134   4.353 -0.0321  0.2670 -0.2701
 4522SOL    HW214161   0.668   0.083   4.210  0.5339 -0.4175 -0.0497
 4523SOL     OW14162   0.973   3.527   3.755  0.3405 -0.1944  0.3680
 4523SOL    HW114163   1.031   3.603   3.742  0.3932 -0.5670 -1.7072
 4523SOL    HW214164   0.985   3.474   3.677 -0.2568 -2.0063  1.4770
 4524SOL     OW14165   6.802   2.918   4.588 -0.0810 -0.3343  0.2612
 4524SOL    HW114166   6.836   2.834   4.559 -0.3611 -0.6114  0.7270
 4524SOL    HW214167   6.754   2.952   4.512  1.1692  0.0356 -0.3763
 4525SOL     OW14168   4.691   2.307   2.377 -0.2489 -0.8176 -0.0682
 4525SOL    HW114169   4.714   2.216   2.394  1.3974 -0.5328 -0.7022
 4525SOL    HW214170   4.722   2.354   2.454 -0.2216 -0.6554 -0.1789
 4526SOL     OW14171   1.475   6.333   4.229 -0.2500  0.0635  0.5651
 4526SOL    HW114172   1.526   6.258   4.197  0.0555  0.5366 -0.0487
 4526SOL    HW214173   1.541   6.399   4.250 -0.6362  0.7730 -0.4752
 4527SOL     OW14174   5.155   6.275   1.079  0.7827 -0.7067 -0.1631
 4527SOL    HW114175   5.106   6.333   1.021  1.5318  0.6205  0.4934
 4527SOL    HW214176   5.092   6.209   1.108  0.2386 -0.9564 -1.9065
 4528SOL     OW14177   2.517   4.759   6.003 -0.1670 -0.1629 -0.1828
 4528SOL    HW114178   2.515   4.853   6.018 -1.8279  0.0132 -1.3740
 4528SOL    HW214179   2.610   4.738   5.993  0.2530  1.2433  0.6801
 4529SOL     OW14180   5.496   3.851   2.855  0.4990  0.6278 -0.1423
 4529SOL    HW114181   5.589   3.829   2.862  0.7153  1.3530 -0.7154
 4529SOL    HW214182   5.474   3.886   2.941  0.0274 -2.2196  0.9671
 4530SOL     OW14183   1.551   0.582   4.227  0.3573  0.2049  0.0218
 4530SOL    HW114184   1.487   0.636   4.182 -1.7661 -1.1516  1.3291
 4530SOL    HW214185   1.574   0.514   4.165  0.1323  0.3892 -0.2616
 4531SOL     OW14186   4.320   6.954   1.449 -0.3525  0.5823 -0.6146
 4531SOL    HW114187   4.279   7.013   1.386 -1.8488  1.8541  1.5166
 4531SOL    HW214188   4.402   6.997   1.472  0.1836  0.1323 -1.6146
 4532SOL     OW14189   5.464   2.934   6.691 -0.0042  0.3259 -0.6452
 4532SOL    HW114190   5.421   2.850   6.674  0.9851 -0.1507 -0.7929
 4532SOL    HW214191   5.498   2.926   6.780  1.6214 -0.0948 -1.2866
 4533SOL     OW14192   5.373   2.813   5.027 -0.2438  0.1680 -0.4821
 4533SOL    HW114193   5.392   2.790   5.118  0.2655  0.8605 -0.4076
 4533SOL    HW214194   5.387   2.908   5.023 -0.7461  0.2186 -1.1649
 4534SOL     OW14195   0.687   5.355   4.367  0.0156  0.7027  0.3407
 4534SOL    HW114196   0.782   5.361   4.379  0.2124  2.3607 -1.6431
 4534SOL    HW214197   0.676   5.339   4.273 -1.6510 -0.1793  0.6780
 4535SOL     OW14198   6.067   5.745   7.219  0.6347  0.0717  0.6050
 4535SOL    HW114199   5.975   5.735   7.245  0.5581  1.5443  0.9973
 4535SOL    HW214200   6.110   5.778   7.299  1.2243  0.6794  0.0422
 4536SOL     OW14201   1.359   0.515   3.934  0.3015 -0.4845 -0.1409
 4536SOL    HW114202   1.410   0.556   3.865 -0.7531 -0.5579 -0.9786
 4536SOL    HW214203   1.362   0.577   4.007  0.6556  0.0095 -0.5741
 4537SOL     OW14204   0.023   1.461   6.075 -0.0811  0.0856  0.6607
 4537SOL    HW114205   0.093   1.401   6.049 -1.9127 -0.7312 -2.5723
 4537SOL    HW214206   0.055   1.547   6.049 -0.4201 -0.3319 -1.2076
 4538SOL     OW14207   2.382   2.277   4.537  0.0066 -0.1248  0.0983
 4538SOL    HW114208   2.470   2.298   4.566 -0.5392  2.1167  0.1997
 4538SOL    HW214209   2.354   2.206   4.595  0.9059  0.7002  1.5651
 4539SOL     OW14210   1.404   1.734   2.709  0.2812  0.1252 -0.1494
 4539SOL    HW114211   1.401   1.644   2.741 -0.1271  0.4760  0.8455
 4539SOL    HW214212   1.487   1.740   2.662 -0.4188 -1.1926 -1.5607
 4540SOL     OW14213   4.334   5.196   4.377 -0.0728 -0.5375 -0.0875
 4540SOL    HW114214   4.268   5.265   4.376 -1.4919 -1.8226  1.4389
 4540SOL    HW214215   4.355   5.180   4.285 -0.3037  1.3629 -0.4849
 4541SOL     OW14216   6.381   1.983   7.234 -0.3338  0.1478  0.1498
 4541SOL    HW114217   6.448   2.044   7.204 -0.7900  0.1877 -0.8048
 4541SOL    HW214218   6.381   1.913   7.170  1.1721 -1.6027  2.0170
 4542SOL     OW14219   4.547   3.765   7.234  0.1378 -0.1687  0.1716
 4542SOL    HW114220   4.519   3.679   7.204  0.5761  0.1923 -1.2811
 4542SOL    HW214221   4.638   3.753   7.261  0.0619 -0.2509  0.3966
 4543SOL     OW14222   0.878   3.407   2.546 -0.9270 -0.7891  0.0195
 4543SOL    HW114223   0.915   3.456   2.473 -1.9602  1.8292  1.1678
 4543SOL    HW214224   0.951   3.357   2.582  0.5820  1.2567 -0.1378
 4544SOL     OW14225   5.251   2.962   3.970 -0.3561 -0.5938  0.5551
 4544SOL    HW114226   5.321   2.967   3.904 -2.6119  0.9278 -1.8297
 4544SOL    HW214227   5.280   3.021   4.040  0.4300  0.5669 -0.7168
 4545SOL     OW14228   1.105   3.538   6.436 -0.2270  0.0036  0.5398
 4545SOL    HW114229   1.140   3.584   6.512  0.8942 -1.2438  0.8039
 4545SOL    HW214230   1.019   3.506   6.463 -0.0030 -0.0811  1.1498
 4546SOL     OW14231   3.245   3.217   6.815  0.2176  0.4265 -0.5299
 4546SOL    HW114232   3.264   3.263   6.897  1.1784  0.1902 -0.6149
 4546SOL    HW214233   3.150   3.213   6.812  0.1229  2.6071 -0.6325
 4547SOL     OW14234   2.897   1.910   6.205  0.3162 -0.1664  0.6201
 4547SOL    HW114235   2.978   1.919   6.155  1.3171 -0.4442  2.1650
 4547SOL    HW214236   2.909   1.966   6.281 -0.0564 -1.8788  1.9740
 4548SOL     OW14237   0.584   2.904   4.300  0.3691  0.2582  0.5023
 4548SOL    HW114238   0.671   2.928   4.267  0.0877 -0.4736 -0.8308
 4548SOL    HW214239   0.572   2.813   4.272 -1.2122  0.6545 -0.1958
 4549SOL     OW14240   0.542   4.925   5.807 -0.1495 -0.1679  0.5512
 4549SOL    HW114241   0.456   4.944   5.845 -0.4927  0.2179 -0.3860
 4549SOL    HW214242   0.599   4.995   5.840 -0.3091 -0.1612  0.8129
 4550SOL     OW14243   6.280   5.621   1.901  0.5726  0.0750 -1.1442
 4550SOL    HW114244   6.366   5.662   1.900  0.1859  1.0476  1.3993
 4550SOL    HW214245   6.219   5.692   1.879  0.0264  0.6256  1.8998
 4551SOL     OW14246   2.709   6.487   0.604 -0.6386  0.2776 -0.0697
 4551SOL    HW114247   2.707   6.578   0.575 -1.6181  0.5993  0.9273
 4551SOL    HW214248   2.620   6.472   0.638  0.0825 -0.4395  1.5314
 4552SOL     OW14249   5.662   6.127   3.122 -0.5242  0.1057  0.2620
 4552SOL    HW114250   5.697   6.214   3.140 -0.5678  0.3456 -0.7529
 4552SOL    HW214251   5.581   6.143   3.074 -0.4861 -0.4912 -0.0163
 4553SOL     OW14252   6.483   0.855   4.360  0.2787 -0.1599 -0.1501
 4553SOL    HW114253   6.412   0.918   4.348 -1.4521 -1.7675  1.0769
 4553SOL    HW214254   6.540   0.894   4.426 -0.8324  0.0943  0.6684
 4554SOL     OW14255   4.355   1.672   3.792 -0.0660 -0.1499 -0.0364
 4554SOL    HW114256   4.445   1.641   3.804 -0.0141 -0.3410 -0.9145
 4554SOL    HW214257   4.302   1.593   3.794 -0.1156 -0.1309 -0.4696
 4555SOL     OW14258   3.488   3.385   6.556  0.0425 -0.1833  0.2881
 4555SOL    HW114259   3.466   3.305   6.604  0.3625 -0.7468 -0.4882
 4555SOL    HW214260   3.511   3.448   6.623  0.0483 -0.8303  0.8961
 4556SOL     OW14261   1.198   0.827   4.605  0.3465  0.3646  0.1039
 4556SOL    HW114262   1.242   0.778   4.675 -0.8934 -1.4290 -0.3412
 4556SOL    HW214263   1.125   0.771   4.579 -1.3401  2.6307 -0.1873
 4557SOL     OW14264   2.610   4.855   5.082 -0.3442 -0.1801 -0.6329
 4557SOL    HW114265   2.603   4.910   5.004 -1.0032  0.1410 -0.3487
 4557SOL    HW214266   2.598   4.765   5.049 -0.1198 -0.0856 -0.9736
 4558SOL     OW14267   3.116   5.898   1.145 -0.2950 -0.4406  0.3678
 4558SOL    HW114268   3.043   5.848   1.182  0.7000 -1.9389  0.3482
 4558SOL    HW214269   3.092   5.990   1.159 -1.2126 -0.9486  2.2237
 4559SOL     OW14270   0.798   3.080   5.512  0.4482 -0.1095 -0.1587
 4559SOL    HW114271   0.712   3.064   5.475 -0.0722  0.3844  0.8242
 4559SOL    HW214272   0.847   2.999   5.496 -0.2055 -0.3931 -0.6994
 4560SOL     OW14273   6.700   2.861   5.132 -0.0285  0.1865 -0.1624
 4560SOL    HW114274   6.701   2.869   5.228  0.3108  0.3599 -0.1802
 4560SOL    HW214275   6.636   2.792   5.115 -0.2521  0.3030  0.1787
 4561SOL     OW14276   1.478   5.793   6.888 -0.2776  0.1340 -0.5406
 4561SOL    HW114277   1.512   5.778   6.976 -0.0296 -0.0465 -0.6676
 4561SOL    HW214278   1.422   5.717   6.870 -0.6142  0.3472 -0.3980
 4562SOL     OW14279   0.504   3.099   1.670 -0.2863 -0.1626  0.0969
 4562SOL    HW114280   0.553   3.018   1.685  0.3478 -0.3050 -2.5007
 4562SOL    HW214281   0.427   3.072   1.620  0.1211  0.8633 -1.1222
 4563SOL     OW14282   4.690   3.133   6.791 -0.1845  0.8675  0.2134
 4563SOL    HW114283   4.742   3.149   6.870  0.3299  0.9161 -0.1378
 4563SOL    HW214284   4.654   3.219   6.768 -0.1801  0.8891  0.2867
 4564SOL     OW14285   0.467   7.254   5.847  0.0798  0.2205  0.0446
 4564SOL    HW114286   0.469   7.343   5.812 -0.9516 -0.1219 -0.8928
 4564SOL    HW214287   0.503   7.263   5.935  2.0070  1.2026 -0.8121
 4565SOL     OW14288   6.071   1.807   4.483 -0.3735 -0.0194  0.1659
 4565SOL    HW114289   6.069   1.869   4.411  0.1501 -1.2086 -0.8833
 4565SOL    HW214290   5.979   1.779   4.493 -0.4568  0.2024  0.0092
 4566SOL     OW14291   3.933   1.707   4.451 -0.3770  0.1634  0.0083
 4566SOL    HW114292   3.978   1.766   4.511  0.9363  0.1506 -0.9341
 4566SOL    HW214293   3.935   1.753   4.367 -0.2790 -0.7684 -0.4989
 4567SOL     OW14294   6.636   7.242   1.687 -0.5501 -0.2005  0.2538
 4567SOL    HW114295   6.689   7.320   1.705  0.0577 -0.5367 -0.0304
 4567SOL    HW214296   6.604   7.215   1.773  0.5499 -0.5430  0.5761
 4568SOL     OW14297   0.948   0.505   0.888  0.1224 -1.0085  0.6696
 4568SOL    HW114298   0.909   0.576   0.839  1.7092 -0.5351  0.0760
 4568SOL    HW214299   0.887   0.489   0.960 -0.0883  1.1564  0.9898
 4569SOL     OW14300   5.796   2.090   1.926  0.1084  0.8037 -0.1522
 4569SOL    HW114301   5.882   2.129   1.939 -0.1552  0.8262  1.6934
 4569SOL    HW214302   5.735   2.162   1.940 -0.2623  0.4118  0.2878
 4570SOL     OW14303   0.060   0.142   5.370 -0.0370  0.0963  0.3675
 4570SOL    HW114304  -0.017   0.120   5.422 -0.1982  0.2554  0.1981
 4570SOL    HW214305   0.041   0.229   5.335 -0.7144 -0.7525 -1.4155
 4571SOL     OW14306   3.557   4.326   5.432 -0.2433 -0.2325  0.1433
 4571SOL    HW114307   3.593   4.358   5.349 -0.1318  0.1358  0.3311
 4571SOL    HW214308   3.530   4.406   5.479 -2.1049 -0.5611 -0.3614
 4572SOL     OW14309   6.882   4.908   2.889  0.1472 -0.1881 -0.6162
 4572SOL    HW114310   6.793   4.873   2.880 -0.0127  0.0669 -0.0584
 4572SOL    HW214311   6.889   4.932   2.981 -0.9447  4.4128 -1.6300
 4573SOL     OW14312   6.386   2.228   1.461 -0.9652  0.1941  0.4061
 4573SOL    HW114313   6.428   2.166   1.402 -2.1165  0.3426 -0.5958
 4573SOL    HW214314   6.395   2.313   1.418  0.7007  0.7521  1.8281
 4574SOL     OW14315   0.501   6.963   7.022 -0.1910  0.4059 -0.0089
 4574SOL    HW114316   0.569   6.902   6.993 -0.3075  0.1592  0.2337
 4574SOL    HW214317   0.489   6.944   7.115  0.7456  1.7434  0.3920
 4575SOL     OW14318   5.856   5.609   2.583  0.1739 -0.0417 -0.2005
 4575SOL    HW114319   5.874   5.644   2.670  1.8647 -0.4422 -0.3778
 4575SOL    HW214320   5.776   5.654   2.556  1.0850  2.0715  0.4740
 4576SOL     OW14321   4.821   5.488   1.654  0.1120 -0.1780 -0.1874
 4576SOL    HW114322   4.897   5.535   1.619  0.0872 -0.2524 -0.3384
 4576SOL    HW214323   4.789   5.544   1.725  1.7106 -1.2314  1.4380
 4577SOL     OW14324   1.430   5.749   6.048  0.1613 -0.2687  0.4799
 4577SOL    HW114325   1.364   5.684   6.071 -0.0714 -0.4512 -0.6774
 4577SOL    HW214326   1.425   5.814   6.118 -2.0113  0.2777 -0.1280
 4578SOL     OW14327   6.654   5.941   6.587 -0.0425 -0.9643  0.7802
 4578SOL    HW114328   6.625   6.023   6.548 -0.0540 -2.3009 -2.1466
 4578SOL    HW214329   6.574   5.888   6.594  0.4547 -1.8783 -0.3070
 4579SOL     OW14330   0.146   4.777   2.983  1.0218  0.7447 -0.0389
 4579SOL    HW114331   0.113   4.822   2.905  1.4051  1.0383 -0.0297
 4579SOL    HW214332   0.135   4.684   2.962  0.3937  0.8323 -0.1258
 4580SOL     OW14333   1.929   3.266   2.377  0.1472 -0.5325 -0.2108
 4580SOL    HW114334   1.986   3.192   2.401 -0.2203 -0.8370 -0.2628
 4580SOL    HW214335   1.978   3.344   2.404  0.1770 -0.8294  0.6188
 4581SOL     OW14336   1.123   2.058   4.335  0.2988  0.0624  0.0089
 4581SOL    HW114337   1.179   2.133   4.315  1.2804 -0.6743 -0.0299
 4581SOL    HW214338   1.082   2.080   4.419  2.8000 -0.5762  1.4673
 4582SOL     OW14339   6.106   3.990   2.379 -0.0289  0.0535  0.3241
 4582SOL    HW114340   6.168   3.922   2.407 -1.1988 -2.6270 -3.1844
 4582SOL    HW214341   6.150   4.072   2.398  3.5747 -1.7609  0.2078
 4583SOL     OW14342   1.023   1.133   3.203 -0.4223  0.0129  0.0879
 4583SOL    HW114343   1.067   1.066   3.151 -1.2668  0.1548 -0.8238
 4583SOL    HW214344   0.947   1.159   3.150 -1.0474  0.4762  1.1841
 4584SOL     OW14345   4.914   3.306   1.803 -0.3394 -0.0978  0.1684
 4584SOL    HW114346   4.997   3.279   1.765 -0.3356 -0.7455  0.6117
 4584SOL    HW214347   4.885   3.380   1.750  1.4207  1.3351  1.1754
 4585SOL     OW14348   0.760   7.009   0.064 -0.3027 -0.2643 -0.1898
 4585SOL    HW114349   0.805   6.988  -0.018  0.5312 -0.7068  0.3671
 4585SOL    HW214350   0.798   6.949   0.128  0.9933  1.8455  1.1067
 4586SOL     OW14351   5.973   3.820   4.688  0.4552  0.1203  0.5188
 4586SOL    HW114352   5.980   3.818   4.783 -2.2113  0.7361  0.7578
 4586SOL    HW214353   5.904   3.758   4.667  1.7215 -0.7671 -1.1118
 4587SOL     OW14354   4.751   5.197   5.420  0.2871  0.6171  0.1475
 4587SOL    HW114355   4.759   5.124   5.482  1.4007  0.9395  0.4071
 4587SOL    HW214356   4.658   5.203   5.402 -0.2350  1.4145  2.8985
 4588SOL     OW14357   2.606   4.027   3.212  0.2578  0.4866 -0.3242
 4588SOL    HW114358   2.581   4.117   3.192 -2.0507  0.2116  1.1873
 4588SOL    HW214359   2.678   4.009   3.152 -1.8393  2.0027 -3.4319
 4589SOL     OW14360   3.212   0.810   4.444 -0.1722 -0.0779  0.2032
 4589SOL    HW114361   3.280   0.789   4.508 -0.8612 -1.3437  0.5400
 4589SOL    HW214362   3.179   0.725   4.416 -0.8718  0.5059 -0.7675
 4590SOL     OW14363   1.898   0.908   1.443 -0.0314 -0.3087 -0.0008
 4590SOL    HW114364   1.878   0.945   1.528  2.9487  0.5676  0.3861
 4590SOL    HW214365   1.849   0.961   1.381 -2.8780 -1.4742  1.1823
 4591SOL     OW14366   2.835   6.758   1.662 -0.3254  0.1664 -0.1702
 4591SOL    HW114367   2.912   6.805   1.628  0.5208 -1.4927 -0.5967
 4591SOL    HW214368   2.779   6.827   1.697  0.3350  1.6249 -1.8687
 4592SOL     OW14369   0.694   4.257   5.818  0.3065  0.2825  0.0521
 4592SOL    HW114370   0.760   4.269   5.750 -0.6846  1.2378 -0.7606
 4592SOL    HW214371   0.740   4.277   5.899  1.2348  0.1193 -0.4227
 4593SOL     OW14372   5.362   4.226   5.131 -0.8118  0.5112 -0.1271
 4593SOL    HW114373   5.306   4.153   5.105 -0.6997  0.1949  0.5114
 4593SOL    HW214374   5.316   4.304   5.100 -0.2231  0.0978 -2.1213
 4594SOL     OW14375   6.193   2.715   5.198  0.2598  0.0089  0.5287
 4594SOL    HW114376   6.195   2.621   5.179  0.1037  0.0886  0.1099
 4594SOL    HW214377   6.251   2.725   5.274  2.4872 -0.0533 -1.1094
 4595SOL     OW14378   7.063   2.084   3.700 -0.7670 -0.2052 -0.1012
 4595SOL    HW114379   7.123   2.018   3.734 -1.1563  0.4021  1.8862
 4595SOL    HW214380   7.018   2.042   3.627  0.4938 -1.4078 -0.1977
 4596SOL     OW14381   2.732   6.697   2.452 -0.3238  0.4075 -0.1958
 4596SOL    HW114382   2.780   6.615   2.465 -1.2238  0.1324  1.5830
 4596SOL    HW214383   2.646   6.681   2.492 -2.2135  0.6237 -3.9650
 4597SOL     OW14384   1.055   3.436   6.827  0.2640 -0.0905 -0.1291
 4597SOL    HW114385   1.079   3.486   6.749  0.7754  0.9792  0.6996
 4597SOL    HW214386   0.986   3.488   6.869 -0.0001 -0.6533  0.1379
 4598SOL     OW14387   2.282   4.267   5.923  0.1487 -0.3098 -0.2736
 4598SOL    HW114388   2.358   4.324   5.910  0.3830 -0.8805 -1.5715
 4598SOL    HW214389   2.281   4.248   6.016  1.2138  0.2509 -0.1463
 4599SOL     OW14390   6.562   3.572   6.429 -0.1035 -0.3084 -0.0700
 4599SOL    HW114391   6.621   3.500   6.408  0.6487  0.4678 -0.6940
 4599SOL    HW214392   6.577   3.589   6.522  0.5102 -0.2536 -0.1783
 4600SOL     OW14393   6.900   1.310   1.793  0.6184 -0.3909 -0.0571
 4600SOL    HW114394   6.842   1.386   1.796  1.1819  0.0299  0.1186
 4600SOL    HW214395   6.980   1.342   1.754  0.9798 -0.8135  0.3278
 4601SOL     OW14396   4.409   4.776   7.132 -0.5229  0.2377  0.1818
 4601SOL    HW114397   4.326   4.796   7.175 -0.8619 -0.9632  0.1164
 4601SOL    HW214398   4.458   4.728   7.199  0.1215  0.9296  0.2157
 4602SOL     OW14399   3.468   2.315   4.857  0.4182  0.3347  0.2616
 4602SOL    HW114400   3.508   2.398   4.832 -0.1849 -0.2310 -2.7290
 4602SOL    HW214401   3.374   2.328   4.843  0.2363 -0.6089  0.5254
 4603SOL     OW14402   3.729   5.892   3.066  0.6150  0.3430 -0.2890
 4603SOL    HW114403   3.706   5.903   2.974 -1.0472  0.6913  0.1621
 4603SOL    HW214404   3.775   5.972   3.090 -0.2621  0.8920 -0.4251
 4604SOL     OW14405   7.079   6.070   0.046 -0.3933  0.1075 -0.5249
 4604SOL    HW114406   6.999   6.095  -0.000 -0.6569 -1.1114 -0.7463
 4604SOL    HW214407   7.064   5.979   0.073 -0.2283  0.8014  1.9611
 4605SOL     OW14408   3.102   0.473   1.173  1.1291  0.6629 -0.2104
 4605SOL    HW114409   3.130   0.463   1.264 -1.0171  2.5545  0.7062
 4605SOL    HW214410   3.063   0.388   1.151  1.8677  0.1167  0.5511
 4606SOL     OW14411   2.755   2.126   4.319 -0.1149 -0.5970  0.4084
 4606SOL    HW114412   2.840   2.087   4.337  0.1884  0.0993  0.5084
 4606SOL    HW214413   2.762   2.160   4.230  0.6718  1.9286  1.3854
 4607SOL     OW14414   0.035   7.212   0.315 -0.0876  0.0789 -0.1271
 4607SOL    HW114415   0.091   7.144   0.353  0.0836  0.2379 -0.0933
 4607SOL    HW214416  -0.046   7.208   0.367 -1.0565 -1.7756 -1.7217
 4608SOL     OW14417   2.634   6.887   0.266 -0.0075 -0.4626 -0.2324
 4608SOL    HW114418   2.670   6.964   0.311 -2.2326  0.2747  0.3175
 4608SOL    HW214419   2.619   6.917   0.176 -2.1041  0.1865  0.3006
 4609SOL     OW14420   0.412   6.351   4.403  0.2885 -0.0229 -0.0362
 4609SOL    HW114421   0.438   6.313   4.320  1.5670 -0.6123  0.6088
 4609SOL    HW214422   0.333   6.402   4.384  0.3435 -0.4890 -1.5083
 4610SOL     OW14423   2.090   0.534   5.331 -0.3586  0.3095  0.0104
 4610SOL    HW114424   2.027   0.566   5.266  0.0718  0.5941 -0.2655
 4610SOL    HW214425   2.037   0.521   5.410 -1.0255 -0.7558 -0.6011
 4611SOL     OW14426   5.267   5.645   1.376 -0.5976  0.6000 -0.5053
 4611SOL    HW114427   5.352   5.647   1.420 -1.2022  1.1097  0.6614
 4611SOL    HW214428   5.280   5.585   1.302  0.4850 -0.1122  0.2400
 4612SOL     OW14429   1.457   0.643   4.672 -0.2019  0.1727  0.2373
 4612SOL    HW114430   1.483   0.726   4.631  0.6117 -0.2179 -0.0409
 4612SOL    HW214431   1.453   0.581   4.599  0.7315 -0.4009  0.6705
 4613SOL     OW14432   1.694   0.625   0.790  0.6454  0.1912 -0.3136
 4613SOL    HW114433   1.790   0.618   0.787  0.6851  1.1134 -1.1298
 4613SOL    HW214434   1.673   0.610   0.883  1.9251  4.0235  0.7097
 4614SOL     OW14435   3.627   4.723   6.439  0.4192  0.1163 -0.2186
 4614SOL    HW114436   3.654   4.749   6.351  0.3061 -0.9302 -0.5663
 4614SOL    HW214437   3.648   4.799   6.493 -0.2116  1.0752 -1.2711
 4615SOL     OW14438   6.151   4.317   1.287 -0.1641  0.6303 -0.1006
 4615SOL    HW114439   6.158   4.224   1.306 -0.4154  0.5497 -0.4088
 4615SOL    HW214440   6.240   4.344   1.264  0.3624  0.9362  2.1453
 4616SOL     OW14441   0.835   6.449   7.223  0.1167  0.2435  0.1266
 4616SOL    HW114442   0.891   6.525   7.207  0.9973 -0.7566 -1.7828
 4616SOL    HW214443   0.746   6.479   7.206  0.5052  0.7409 -1.0662
 4617SOL     OW14444   6.911   0.321   5.232  0.0873  0.3060 -0.5939
 4617SOL    HW114445   6.894   0.311   5.326  0.2013  1.2767 -0.4582
 4617SOL    HW214446   6.869   0.246   5.191  1.1479 -0.8253  0.3593
 4618SOL     OW14447   1.868   2.933   1.387  0.2075  0.5501 -0.5255
 4618SOL    HW114448   1.788   2.882   1.379  0.1757  0.6801 -1.0703
 4618SOL    HW214449   1.892   2.926   1.479 -1.6711  2.4289  0.1303
 4619SOL     OW14450   3.913   6.007   3.254  0.3357  0.0867  0.5879
 4619SOL    HW114451   3.948   5.920   3.235 -0.1840 -0.1192  0.5729
 4619SOL    HW214452   3.990   6.059   3.276  0.9155  0.1871 -1.5062
 4620SOL     OW14453   2.170   4.818   2.255 -0.2987  0.1784  0.2575
 4620SOL    HW114454   2.087   4.771   2.261 -0.0607 -0.3920 -0.9103
 4620SOL    HW214455   2.167   4.881   2.327 -1.6740  0.0535  0.3137
 4621SOL     OW14456   4.915   1.641   5.593  0.0896 -0.4118  0.5418
 4621SOL    HW114457   4.847   1.703   5.617 -0.2085 -0.5057 -0.0479
 4621SOL    HW214458   4.890   1.559   5.635  0.0567 -0.3409  0.6603
 4622SOL     OW14459   4.587   0.590   1.718 -0.6394 -0.2622 -0.5739
 4622SOL    HW114460   4.650   0.554   1.656 -2.2692 -0.5271 -2.1168
 4622SOL    HW214461   4.564   0.517   1.775 -0.3206 -0.4221 -0.6531
 4623SOL     OW14462   6.418   2.784   0.004 -0.3443  0.4796  0.5398
 4623SOL    HW114463   6.432   2.768  -0.089  1.9928  1.3058  0.7154
 4623SOL    HW214464   6.403   2.696   0.042  0.0686  0.0085 -0.3890
 4624SOL     OW14465   3.438   4.840   0.505  0.3876 -0.5105 -0.2527
 4624SOL    HW114466   3.471   4.764   0.554 -1.5871 -1.1030  0.1979
 4624SOL    HW214467   3.371   4.804   0.448  0.3451  0.7119 -0.9753
 4625SOL     OW14468   2.719   7.156   1.988 -0.2781 -0.1290  0.2878
 4625SOL    HW114469   2.683   7.245   1.990 -1.2298 -0.4989 -0.3871
 4625SOL    HW214470   2.752   7.142   2.077  0.6663  1.2129  0.1736
 4626SOL     OW14471   7.258   3.920   4.736 -0.2109 -0.2296 -0.2193
 4626SOL    HW114472   7.225   3.880   4.816 -0.1861  0.4383  0.1219
 4626SOL    HW214473   7.322   3.857   4.703  0.8094  0.1535  1.0219
 4627SOL     OW14474   0.452   4.807   1.858  0.2645 -0.2389 -0.6955
 4627SOL    HW114475   0.475   4.726   1.904 -0.7747 -0.1689 -0.0325
 4627SOL    HW214476   0.446   4.873   1.928  0.9953  0.3841 -1.2171
 4628SOL     OW14477   0.377   4.981   3.308  0.0065  0.3416  0.1443
 4628SOL    HW114478   0.310   4.912   3.305  0.4400 -0.0260 -1.6825
 4628SOL    HW214479   0.338   5.055   3.261  0.7028  0.2718 -0.5628
 4629SOL     OW14480   3.628   1.338   0.408 -0.6089 -0.5530  0.1591
 4629SOL    HW114481   3.710   1.364   0.365 -0.2276 -2.5410 -0.3651
 4629SOL    HW214482   3.600   1.417   0.455  1.8727  0.0161  0.7798
 4630SOL     OW14483   6.209   2.151   5.542  0.3443 -0.0716  0.4278
 4630SOL    HW114484   6.179   2.156   5.633  0.2778 -0.9697  0.4537
 4630SOL    HW214485   6.304   2.151   5.548  0.3432  0.1880  0.4768
 4631SOL     OW14486   6.428   2.161   3.164  0.3426 -0.1506 -0.1687
 4631SOL    HW114487   6.362   2.228   3.182 -0.3995 -0.9260 -0.0315
 4631SOL    HW214488   6.395   2.113   3.089 -0.1046 -1.6614  0.9785
 4632SOL     OW14489   0.164   0.337   1.299  0.5403  0.0589 -0.4959
 4632SOL    HW114490   0.110   0.383   1.363  2.0411 -0.0665  0.8800
 4632SOL    HW214491   0.202   0.407   1.245 -2.4719  0.0631 -2.7263
 4633SOL     OW14492   6.166   2.951   6.356 -0.3133  0.6169 -0.4991
 4633SOL    HW114493   6.109   2.907   6.293 -1.4134 -0.0234  0.9117
 4633SOL    HW214494   6.166   3.042   6.329 -0.2994  0.2438 -1.7726
 4634SOL     OW14495   6.628   4.441   3.558 -0.5636 -0.5290  0.0315
 4634SOL    HW114496   6.565   4.513   3.565  0.1636  0.1644 -0.4354
 4634SOL    HW214497   6.697   4.463   3.620 -0.5768 -1.0887  0.2538
 4635SOL     OW14498   2.123   6.631   4.944  0.6126  0.3373  0.5143
 4635SOL    HW114499   2.041   6.591   4.975 -0.2404  0.5080 -1.4096
 4635SOL    HW214500   2.183   6.623   5.017 -0.8205 -0.7397  1.6057
 4636SOL     OW14501   5.368   5.348   6.198  0.6683 -0.1000 -0.0296
 4636SOL    HW114502   5.452   5.335   6.242  0.7699 -1.3328 -0.5946
 4636SOL    HW214503   5.354   5.443   6.203  0.5986 -0.2123  2.7999
 4637SOL     OW14504   5.381   1.223   4.542  0.3604  0.1804  0.4503
 4637SOL    HW114505   5.307   1.265   4.586  0.0521 -1.8349  1.9398
 4637SOL    HW214506   5.370   1.246   4.450 -0.9982  1.5469  0.9338
 4638SOL     OW14507   6.017   2.234   1.614 -0.1686  0.1709  0.1590
 4638SOL    HW114508   6.104   2.273   1.601 -0.3665  0.6858  0.3502
 4638SOL    HW214509   5.968   2.301   1.661 -0.3772 -0.5068  0.9117
 4639SOL     OW14510   0.090   6.763   7.147  0.2074  0.2612 -0.4683
 4639SOL    HW114511   0.005   6.770   7.189  0.4873 -0.4664  0.2314
 4639SOL    HW214512   0.074   6.713   7.067  0.0598 -0.2727 -0.1037
 4640SOL     OW14513   2.097   5.566   5.076  0.0152  0.1539  0.3529
 4640SOL    HW114514   2.100   5.604   5.164  1.7152  0.8684 -0.0015
 4640SOL    HW214515   2.086   5.641   5.018  0.0520 -0.2143 -0.1326
 4641SOL     OW14516   3.480   6.843   6.469  0.6327 -0.3939  0.1570
 4641SOL    HW114517   3.397   6.852   6.421  1.2239 -0.3721 -0.8848
 4641SOL    HW214518   3.481   6.753   6.500 -0.0272 -0.2387  0.6254
 4642SOL     OW14519   4.505   2.676   2.298  0.2422 -0.4926 -0.4145
 4642SOL    HW114520   4.536   2.620   2.227 -0.6831 -0.8412 -0.5466
 4642SOL    HW214521   4.415   2.697   2.275  0.2602  0.2234  0.1508
 4643SOL     OW14522   2.412   4.019   2.915 -0.0372 -0.0275  0.0606
 4643SOL    HW114523   2.506   4.031   2.911 -0.0891  0.6738  0.8270
 4643SOL    HW214524   2.387   3.990   2.827  0.9601 -0.7416  0.0090
 4644SOL     OW14525   0.779   0.794   0.522  0.0166  0.1157 -0.0834
 4644SOL    HW114526   0.811   0.883   0.508  0.6782 -0.1779 -0.4533
 4644SOL    HW214527   0.770   0.758   0.434 -0.6052 -0.0642  0.0504
 4645SOL     OW14528   5.568   2.372   4.015  0.0751 -0.6142 -0.5379
 4645SOL    HW114529   5.574   2.402   4.105  0.0674 -1.1419 -0.3605
 4645SOL    HW214530   5.474   2.369   3.996 -0.0840 -3.5543  0.4768
 4646SOL     OW14531   5.243   0.027   1.712  0.7524 -0.2084 -0.1587
 4646SOL    HW114532   5.314  -0.006   1.657 -0.9945 -0.1086 -2.5845
 4646SOL    HW214533   5.214   0.108   1.669  0.5692  0.8912  1.9753
 4647SOL     OW14534   7.094   4.842   3.901  0.0229  0.4837 -0.0332
 4647SOL    HW114535   7.188   4.840   3.880  0.5506 -0.6531  2.2562
 4647SOL    HW214536   7.053   4.792   3.830  1.3406 -0.2841 -0.2735
 4648SOL     OW14537   3.552   0.810   4.544 -0.5947  0.7509  0.3060
 4648SOL    HW114538   3.495   0.757   4.600 -1.2008  3.3488  2.2390
 4648SOL    HW214539   3.510   0.896   4.541  1.7129  1.8912 -0.5917
 4649SOL     OW14540   2.892   0.383   0.671 -0.3919 -0.6341  0.2391
 4649SOL    HW114541   2.979   0.368   0.633 -1.5545 -3.8483 -1.2664
 4649SOL    HW214542   2.909   0.442   0.744  3.1422 -1.5339  0.2539
 4650SOL     OW14543   1.564   4.624   5.736  0.1419  1.2314  0.1218
 4650SOL    HW114544   1.489   4.568   5.754  0.6162  0.4292 -0.4111
 4650SOL    HW214545   1.564   4.687   5.808 -0.2229  0.3793  0.8772
 4651SOL     OW14546   3.976   3.045   0.038  0.1486 -0.2217 -0.0671
 4651SOL    HW114547   3.961   3.074   0.128  0.7474  0.7700 -0.2662
 4651SOL    HW214548   4.067   3.015   0.038  0.4290  0.5910 -0.5231
 4652SOL     OW14549   0.650   1.892   3.627  0.2569 -0.1328  0.0285
 4652SOL    HW114550   0.714   1.843   3.575 -0.1120 -0.9467  0.3330
 4652SOL    HW214551   0.643   1.977   3.584  1.4694 -0.0785 -0.0645
 4653SOL     OW14552   1.161   5.130   2.753  0.1471  0.0232 -0.4523
 4653SOL    HW114553   1.108   5.132   2.673 -0.4027 -0.6470 -0.1090
 4653SOL    HW214554   1.212   5.211   2.750 -2.6790  1.8862  0.4080
 4654SOL     OW14555   7.199   5.098   0.684  0.3609 -0.3754 -0.4421
 4654SOL    HW114556   7.149   5.038   0.740 -0.2928  0.3809 -0.1982
 4654SOL    HW214557   7.290   5.087   0.713  0.0437 -0.0799  0.7010
 4655SOL     OW14558   1.220   1.040   0.446  0.0975 -0.0665 -0.2126
 4655SOL    HW114559   1.257   1.112   0.394 -0.1329  0.7085  0.6730
 4655SOL    HW214560   1.290   1.018   0.508 -0.5425  0.7340  0.8149
 4656SOL     OW14561   7.238   5.254   2.327 -0.2861  0.3470  0.2384
 4656SOL    HW114562   7.167   5.309   2.294  1.7706  2.9983  0.0688
 4656SOL    HW214563   7.238   5.178   2.268 -2.5476  0.6037 -0.1374
 4657SOL     OW14564   6.242   0.582   6.463 -0.1435  0.1482  0.2954
 4657SOL    HW114565   6.280   0.668   6.448 -0.0790  0.1337  0.3768
 4657SOL    HW214566   6.157   0.600   6.504  1.0883  0.1034  2.9596
 4658SOL     OW14567   7.243   3.277   5.814  0.5442 -0.2833 -0.4697
 4658SOL    HW114568   7.271   3.186   5.828  0.9927 -0.1629 -0.6092
 4658SOL    HW214569   7.217   3.307   5.901  2.7465  0.2637  0.0133
 4659SOL     OW14570   6.343   4.810   3.686  0.2870  0.6919  0.0525
 4659SOL    HW114571   6.361   4.763   3.767  0.8775 -2.1040 -1.6506
 4659SOL    HW214572   6.250   4.832   3.691 -0.0667 -0.9237  0.7626
 4660SOL     OW14573   3.102   1.345   7.224 -0.0621 -0.1089 -0.1027
 4660SOL    HW114574   3.071   1.417   7.279 -0.6816  0.7936 -1.6095
 4660SOL    HW214575   3.022   1.301   7.194  0.3069 -1.3269  0.6655
 4661SOL     OW14576   2.046   1.555   1.272  0.0821 -0.0157  0.1668
 4661SOL    HW114577   1.985   1.609   1.221  0.8318  0.4576 -0.2384
 4661SOL    HW214578   2.085   1.616   1.335 -0.1191 -0.3894  0.6528
 4662SOL     OW14579   3.481   3.936   3.705  0.3951 -0.3818  0.3738
 4662SOL    HW114580   3.419   4.007   3.723  1.1130  0.2008  0.5706
 4662SOL    HW214581   3.471   3.876   3.779  0.1024 -0.2638  0.4284
 4663SOL     OW14582   5.676   4.707   1.609 -0.3279  0.1134 -0.1829
 4663SOL    HW114583   5.700   4.682   1.699  0.1560 -0.0906 -0.3696
 4663SOL    HW214584   5.735   4.779   1.588 -2.1642  1.9037  0.5968
 4664SOL     OW14585   0.595   3.735   4.295  0.4430 -0.2922 -0.5528
 4664SOL    HW114586   0.630   3.759   4.380  0.6624 -0.6150 -0.5515
 4664SOL    HW214587   0.504   3.766   4.296  0.0083 -1.5720  0.3294
 4665SOL     OW14588   0.151   5.080   4.905  0.1608  0.2249 -0.7862
 4665SOL    HW114589   0.133   5.064   4.813 -2.0339 -0.5580 -0.2511
 4665SOL    HW214590   0.199   5.002   4.934  0.7350  0.4136 -1.2219
 4666SOL     OW14591   4.695   6.827   0.304 -0.0877  0.3195 -0.0583
 4666SOL    HW114592   4.768   6.864   0.354 -0.0606  1.3585 -0.8443
 4666SOL    HW214593   4.628   6.895   0.306 -0.8960 -0.4826  0.3373
 4667SOL     OW14594   0.199   5.772   0.141 -0.3048 -0.2004  0.4868
 4667SOL    HW114595   0.263   5.795   0.209 -1.3984  0.1863  1.4038
 4667SOL    HW214596   0.244   5.791   0.059 -0.1612  2.6481  1.1546
 4668SOL     OW14597   5.556   3.291   1.120 -0.2166  0.0348  0.1837
 4668SOL    HW114598   5.578   3.340   1.199  0.5447 -0.6618  0.4016
 4668SOL    HW214599   5.483   3.235   1.146 -2.1976  2.1962 -0.4878
 4669SOL     OW14600   4.048   2.251   6.777  0.6158 -0.5453  0.1746
 4669SOL    HW114601   4.030   2.194   6.702 -1.7463 -1.6230  1.4875
 4669SOL    HW214602   3.995   2.330   6.760  2.5170  0.5549 -0.7834
 4670SOL     OW14603   1.260   1.167   5.829 -0.2064 -0.3564  0.6825
 4670SOL    HW114604   1.301   1.100   5.775 -0.1575 -0.9385  1.4331
 4670SOL    HW214605   1.249   1.125   5.914  2.3330  1.4584  1.9605
 4671SOL     OW14606   3.843   3.321   5.835  0.0816 -0.0931  0.6628
 4671SOL    HW114607   3.821   3.333   5.742  0.5321  0.2434  0.5953
 4671SOL    HW214608   3.850   3.411   5.869 -0.7697 -0.2182  1.1890
 4672SOL     OW14609   5.108   4.434   3.069 -0.3630  0.1148 -0.1715
 4672SOL    HW114610   5.114   4.396   2.982  2.5018  1.2489 -0.5555
 4672SOL    HW214611   5.129   4.362   3.129  0.6742  0.0331 -0.6213
 4673SOL     OW14612   1.109   0.101   6.766  0.3523 -0.2031 -0.6976
 4673SOL    HW114613   1.123   0.143   6.851  0.3720  0.9267 -1.2483
 4673SOL    HW214614   1.015   0.110   6.750  0.4975  0.4737 -1.2329
 4674SOL     OW14615   2.286   3.784   0.800 -0.2120 -0.2322  0.2949
 4674SOL    HW114616   2.361   3.842   0.792  0.6344 -1.3537 -0.1123
 4674SOL    HW214617   2.215   3.829   0.753 -0.4473  1.8699  2.5931
 4675SOL     OW14618   4.933   5.892   0.636  0.2650 -0.0580 -0.4369
 4675SOL    HW114619   4.888   5.907   0.552 -0.0419 -0.7110 -0.3947
 4675SOL    HW214620   4.885   5.819   0.675  0.7741 -0.1308  0.0475
 4676SOL     OW14621   2.628   5.079   3.956  0.0542 -0.4329  0.3368
 4676SOL    HW114622   2.604   5.001   4.005 -1.2268  0.3834  1.0355
 4676SOL    HW214623   2.655   5.142   4.023  0.1604  0.0436 -0.1472
 4677SOL     OW14624   6.201   5.816   1.156  0.2385  0.3908  0.5456
 4677SOL    HW114625   6.110   5.829   1.181 -0.1988  1.4150 -1.4547
 4677SOL    HW214626   6.198   5.802   1.061  1.9283 -2.1454  0.8221
 4678SOL     OW14627   4.861   1.924   1.601  0.6902  0.3111  0.0766
 4678SOL    HW114628   4.808   1.970   1.536 -1.1053  0.6430  1.7347
 4678SOL    HW214629   4.913   1.861   1.550 -0.8005  0.4346 -1.6360
 4679SOL     OW14630   4.884   2.424   4.400 -0.0247  0.4841 -0.3120
 4679SOL    HW114631   4.806   2.446   4.452  0.0069  0.6629 -0.3416
 4679SOL    HW214632   4.943   2.381   4.463 -0.5617 -0.5609 -0.5239
 4680SOL     OW14633   4.524   5.481   5.007 -0.4425 -0.4157 -0.4940
 4680SOL    HW114634   4.529   5.572   4.978 -0.4998 -1.2205 -3.1206
 4680SOL    HW214635   4.601   5.470   5.064 -0.3524  1.2104 -0.2685
 4681SOL     OW14636   3.744   5.046   2.588 -0.5197  0.1104  0.0428
 4681SOL    HW114637   3.759   5.116   2.523 -0.3635 -0.9985 -1.1449
 4681SOL    HW214638   3.785   5.079   2.668  0.0358  1.1570 -0.6473
 4682SOL     OW14639   5.584   0.787   4.625  0.8724  0.1053 -0.3656
 4682SOL    HW114640   5.644   0.853   4.659  2.5433 -0.4701 -2.0809
 4682SOL    HW214641   5.503   0.834   4.607  0.7339  0.8714  2.1221
 4683SOL     OW14642   2.077   1.532   3.161 -0.4904 -0.6288  0.2372
 4683SOL    HW114643   2.054   1.440   3.149  0.5089 -1.0139  1.2213
 4683SOL    HW214644   2.109   1.538   3.251  1.4528  0.2339 -0.4631
 4684SOL     OW14645   1.434   5.487   2.338  0.0437  0.2404  0.2558
 4684SOL    HW114646   1.511   5.545   2.334  0.3225 -0.1974 -1.0432
 4684SOL    HW214647   1.373   5.533   2.394  0.3927  1.6677 -0.4947
 4685SOL     OW14648   6.697   2.511   3.731  0.0584  0.5397  0.4978
 4685SOL    HW114649   6.791   2.491   3.734  0.2316  1.1610 -0.5391
 4685SOL    HW214650   6.690   2.596   3.775  0.1961  1.1920 -0.7014
 4686SOL     OW14651   4.140   3.884   3.105  0.6004  0.3742  0.0295
 4686SOL    HW114652   4.136   3.829   3.026  0.6715  1.9968 -1.1290
 4686SOL    HW214653   4.186   3.830   3.169 -0.1951 -1.2931 -0.7689
 4687SOL     OW14654   4.481   0.679   3.106 -0.1703  0.1069  0.2796
 4687SOL    HW114655   4.396   0.655   3.069  0.3638  0.7113 -1.4014
 4687SOL    HW214656   4.481   0.775   3.107 -0.0122  0.0968  1.4811
 4688SOL     OW14657   1.534   6.803   4.216  0.0357 -0.7403 -0.3816
 4688SOL    HW114658   1.457   6.858   4.203 -0.1710 -0.7397  0.8348
 4688SOL    HW214659   1.525   6.733   4.151 -1.0450 -0.8075 -0.1669
 4689SOL     OW14660   2.917   3.203   6.210  0.0009 -0.1311  0.3894
 4689SOL    HW114661   2.904   3.289   6.172  0.3393 -0.9706 -1.6907
 4689SOL    HW214662   2.844   3.191   6.270 -0.8903  0.9737 -0.4714
 4690SOL     OW14663   4.483   5.512   1.803 -0.1714  0.4422 -0.0427
 4690SOL    HW114664   4.458   5.444   1.739  1.6480 -1.8029  1.5461
 4690SOL    HW214665   4.503   5.589   1.749  1.5989 -1.4798 -2.2471
 4691SOL     OW14666   5.182   4.607   4.378 -0.3882 -0.0531 -0.5363
 4691SOL    HW114667   5.173   4.560   4.295  0.6130  3.1361 -2.5477
 4691SOL    HW214668   5.271   4.589   4.407 -0.7645 -1.2326 -0.0554
 4692SOL     OW14669   3.088   4.279   1.333 -0.5743 -0.0191  0.2716
 4692SOL    HW114670   3.138   4.351   1.294  0.9873 -0.4285  1.4354
 4692SOL    HW214671   3.115   4.201   1.283 -0.8949 -0.0685  0.1762
 4693SOL     OW14672   0.526   6.648   4.295 -0.5141 -0.0819  0.0658
 4693SOL    HW114673   0.564   6.687   4.374 -0.0402  2.3227 -1.3028
 4693SOL    HW214674   0.565   6.698   4.223 -0.2103 -2.8439 -1.7657
 4694SOL     OW14675   5.597   6.784   0.165 -0.3091  0.3823  0.0215
 4694SOL    HW114676   5.561   6.831   0.240  0.1332 -1.1756  1.2412
 4694SOL    HW214677   5.692   6.786   0.179 -0.2925 -1.0252  0.2176
 4695SOL     OW14678   0.898   5.830   6.584  0.3038  0.0469 -0.0363
 4695SOL    HW114679   0.990   5.855   6.592  0.8162 -1.7908  0.1093
 4695SOL    HW214680   0.853   5.911   6.563  2.1431  0.7482 -1.4094
 4696SOL     OW14681   2.243   0.293   4.537 -0.2219 -0.1545 -0.0879
 4696SOL    HW114682   2.255   0.208   4.495 -0.0038 -1.2886  2.2035
 4696SOL    HW214683   2.329   0.315   4.572 -0.4706  0.6332  0.0381
 4697SOL     OW14684   4.209   4.763   5.949 -0.5326 -0.1652 -0.1936
 4697SOL    HW114685   4.235   4.854   5.934  0.9956 -0.6341 -0.4800
 4697SOL    HW214686   4.268   4.732   6.017 -0.9290 -1.0094 -0.2339
 4698SOL     OW14687   2.104   1.074   2.624 -0.5377  0.4313 -0.1420
 4698SOL    HW114688   2.116   0.982   2.601 -0.5858  0.4827 -0.3675
 4698SOL    HW214689   2.183   1.096   2.674 -0.0487  0.5508 -0.9697
 4699SOL     OW14690   5.044   5.965   0.168 -0.2398 -0.4991  0.1268
 4699SOL    HW114691   5.011   5.886   0.211 -0.5395 -0.0594  0.7054
 4699SOL    HW214692   5.104   5.932   0.101 -0.4238 -1.2219  0.3118
 4700SOL     OW14693   0.014   1.306   0.829  0.1177 -0.4125  0.4868
 4700SOL    HW114694   0.080   1.356   0.877 -1.0820  1.0061  0.6792
 4700SOL    HW214695   0.007   1.224   0.879  2.1474 -0.8464  0.1219
 4701SOL     OW14696   3.931   5.482   1.788  0.1850 -0.9025  0.1997
 4701SOL    HW114697   4.026   5.467   1.794  0.3141 -0.1869  0.0400
 4701SOL    HW214698   3.910   5.529   1.869  0.6240  2.1789 -1.4112
 4702SOL     OW14699   1.930   1.296   1.274  0.0284 -0.2042 -0.2171
 4702SOL    HW114700   1.940   1.251   1.358  1.2379  0.1453 -0.1765
 4702SOL    HW214701   1.991   1.369   1.278 -0.8849  0.6186 -0.8638
 4703SOL     OW14702   1.917   0.017   4.287  0.0891 -0.3927  0.4057
 4703SOL    HW114703   1.906  -0.075   4.265 -0.2557 -0.4291  0.7223
 4703SOL    HW214704   1.846   0.062   4.240 -0.2373 -0.3906  0.8878
 4704SOL     OW14705   1.614   0.394   2.888  0.3107 -0.3501 -0.3360
 4704SOL    HW114706   1.631   0.482   2.857  0.3668 -0.2373  0.0064
 4704SOL    HW214707   1.701   0.357   2.905  0.4379 -1.5541 -3.3862
 4705SOL     OW14708   0.399   1.169   1.414  0.1214  0.4162  0.1129
 4705SOL    HW114709   0.317   1.209   1.442 -0.4396 -2.5320  2.9595
 4705SOL    HW214710   0.382   1.075   1.417  2.4346 -0.1822 -3.0469
 4706SOL     OW14711   5.520   3.589   1.529  0.2262  0.3002 -0.5424
 4706SOL    HW114712   5.483   3.532   1.597  2.0898  0.9542  1.0706
 4706SOL    HW214713   5.500   3.678   1.559  3.5860  0.6933  0.6979
 4707SOL     OW14714   1.424   7.181   3.646 -0.5581  0.3032 -0.0207
 4707SOL    HW114715   1.446   7.089   3.640  1.0722  0.6576  0.2865
 4707SOL    HW214716   1.336   7.187   3.611 -0.0653 -1.1236 -1.5438
 4708SOL     OW14717   1.845   2.257   7.030  0.2881 -0.1759  0.2945
 4708SOL    HW114718   1.908   2.295   7.091  1.4332  2.0471 -2.1694
 4708SOL    HW214719   1.760   2.277   7.069  0.9519  2.8109  0.3492
 4709SOL     OW14720   4.700   0.188   3.576  0.3757  0.7008 -0.2195
 4709SOL    HW114721   4.610   0.200   3.545 -0.3849 -2.8193  0.3728
 4709SOL    HW214722   4.755   0.212   3.502 -1.1335  0.5573 -1.4089
 4710SOL     OW14723   4.494   5.109   3.249  0.6134  0.0748  0.5040
 4710SOL    HW114724   4.576   5.059   3.246  1.7629  1.9494 -0.7392
 4710SOL    HW214725   4.474   5.127   3.157 -1.0292 -0.0639  0.8183
 4711SOL     OW14726   4.292   5.760   6.038  0.6853 -0.4672 -0.1840
 4711SOL    HW114727   4.380   5.727   6.021  1.0761  0.7361 -0.5936
 4711SOL    HW214728   4.237   5.716   5.973  1.2858  0.0749 -1.0732
 4712SOL     OW14729   6.578   4.666   7.131  0.4467 -0.3143  0.1549
 4712SOL    HW114730   6.590   4.754   7.095  2.0380 -0.5675  0.0292
 4712SOL    HW214731   6.490   4.641   7.104  0.4437  0.7470 -0.8730
 4713SOL     OW14732   3.020   3.285   5.360 -0.2741 -0.5308 -0.0777
 4713SOL    HW114733   3.097   3.271   5.305 -0.0222 -1.3507  0.4810
 4713SOL    HW214734   2.948   3.294   5.298  0.4954  1.9628 -0.7008
 4714SOL     OW14735   0.605   3.545   0.962  0.0903  0.0038 -0.4871
 4714SOL    HW114736   0.539   3.526   1.029 -0.3090 -1.6755 -1.3356
 4714SOL    HW214737   0.556   3.581   0.889  0.3408  0.4675 -0.4269
 4715SOL     OW14738   2.857   7.083   6.137 -0.2917 -0.1445  0.3690
 4715SOL    HW114739   2.880   7.175   6.151  1.1840 -0.4200 -0.1252
 4715SOL    HW214740   2.890   7.038   6.215 -0.5482 -0.3259  0.3721
 4716SOL     OW14741   3.852   5.130   4.687 -0.0970 -0.5389 -0.7170
 4716SOL    HW114742   3.774   5.158   4.639 -0.5026 -1.6142 -0.7029
 4716SOL    HW214743   3.821   5.061   4.746  0.1864  1.4812  1.9093
 4717SOL     OW14744   0.505   3.265   5.829  0.4749 -0.1688 -0.3678
 4717SOL    HW114745   0.430   3.227   5.785 -0.0447 -2.3274  2.2196
 4717SOL    HW214746   0.468   3.316   5.901  1.4415 -2.1889  1.6365
 4718SOL     OW14747   5.523   6.928   3.522  0.4337  0.0788 -0.0199
 4718SOL    HW114748   5.494   6.852   3.572 -0.8245  0.8708  0.4775
 4718SOL    HW214749   5.466   6.929   3.444  1.7187 -0.5820 -0.9873
 4719SOL     OW14750   2.312   4.936   3.217  0.6666 -0.5963  0.0646
 4719SOL    HW114751   2.297   5.022   3.179 -1.6814 -0.9949 -0.0044
 4719SOL    HW214752   2.369   4.892   3.153  0.8948  0.4727 -0.4860
 4720SOL     OW14753   3.959   5.934   5.120 -0.2019 -0.0260 -0.2843
 4720SOL    HW114754   3.893   5.984   5.168 -2.7100 -3.8193  0.4115
 4720SOL    HW214755   4.039   5.944   5.172 -1.1472  1.5339  0.9193
 4721SOL     OW14756   1.567   4.425   0.620  0.6909 -0.1785 -0.1656
 4721SOL    HW114757   1.539   4.475   0.696  1.5235 -1.1089  0.7660
 4721SOL    HW214758   1.540   4.478   0.545  0.1126  0.8757  0.7775
 4722SOL     OW14759   0.730   3.061   1.474 -0.4854 -0.0755 -0.3829
 4722SOL    HW114760   0.732   3.046   1.569 -0.7041 -0.0125 -0.3682
 4722SOL    HW214761   0.658   3.005   1.443  0.2004 -0.8184 -0.6360
 4723SOL     OW14762   4.352   1.303   4.483 -0.3270 -0.0496  0.2174
 4723SOL    HW114763   4.302   1.376   4.447 -0.4586  0.3878  1.2761
 4723SOL    HW214764   4.410   1.277   4.411  0.1033  1.4355  0.0077
 4724SOL     OW14765   5.447   1.740   6.830 -0.5670 -0.1391  0.5434
 4724SOL    HW114766   5.444   1.825   6.786  0.4899 -0.3410  0.0534
 4724SOL    HW214767   5.428   1.676   6.761 -3.1730 -0.2201  1.2722
 4725SOL     OW14768   2.376   4.303   4.371  0.0558 -0.0392 -0.6102
 4725SOL    HW114769   2.333   4.221   4.346  0.9000 -1.7319  3.0338
 4725SOL    HW214770   2.454   4.307   4.316 -1.2680 -0.3886 -2.5577
 4726SOL     OW14771   1.520   6.490   7.223 -0.1530 -0.3715 -0.0617
 4726SOL    HW114772   1.444   6.527   7.178 -1.4764 -1.3453  1.3266
 4726SOL    HW214773   1.592   6.500   7.161 -1.0033  2.2376 -0.6884
 4727SOL     OW14774   0.323   5.781   4.903 -0.3630 -0.3246 -1.0289
 4727SOL    HW114775   0.234   5.816   4.898 -0.0876  0.2859 -1.8097
 4727SOL    HW214776   0.368   5.841   4.963 -0.6094 -0.9339 -0.2270
 4728SOL     OW14777   6.023   0.554   0.080  0.4060  0.2264 -0.3034
 4728SOL    HW114778   6.099   0.595   0.038  0.3001 -1.3119 -2.0660
 4728SOL    HW214779   6.006   0.476   0.028 -2.2137  0.3812  0.2577
 4729SOL     OW14780   2.025   5.949   1.535 -0.4253 -0.0286 -0.0026
 4729SOL    HW114781   2.005   5.962   1.442 -1.1449 -0.5297  0.0717
 4729SOL    HW214782   2.060   5.860   1.539 -1.0410 -0.2632  0.2940
 4730SOL     OW14783   6.878   3.174   0.877  0.0912 -0.0165  0.1045
 4730SOL    HW114784   6.889   3.159   0.971 -1.1127  1.3997  0.4978
 4730SOL    HW214785   6.901   3.266   0.865  1.2725 -0.4645 -1.1794
 4731SOL     OW14786   2.901   1.145   0.719  0.2441 -0.1895  0.3631
 4731SOL    HW114787   2.882   1.238   0.705  1.5597  0.2205  1.2001
 4731SOL    HW214788   2.971   1.144   0.784  1.1231 -1.7331 -0.5719
 4732SOL     OW14789   6.832   4.673   6.286 -0.0239  0.0290 -0.9871
 4732SOL    HW114790   6.900   4.695   6.350 -0.2957  1.0578 -1.0546
 4732SOL    HW214791   6.836   4.743   6.221 -1.0300 -0.0092 -1.0936
 4733SOL     OW14792   5.751   6.964   1.516 -0.2885  0.2434 -0.4130
 4733SOL    HW114793   5.688   6.956   1.588 -1.9880  0.8661 -1.7993
 4733SOL    HW214794   5.705   6.930   1.440  0.4449  2.2239 -1.7790
 4734SOL     OW14795   4.168   5.678   0.805 -0.2417  0.1539 -0.4313
 4734SOL    HW114796   4.143   5.771   0.803 -0.0345  0.2422  0.5638
 4734SOL    HW214797   4.247   5.676   0.859 -1.0572 -0.7808  0.7620
 4735SOL     OW14798   0.179   6.140   2.290  0.4068 -0.0177 -0.3019
 4735SOL    HW114799   0.255   6.197   2.304  1.6913 -1.7532  0.0100
 4735SOL    HW214800   0.134   6.138   2.375  0.9414 -0.2827 -0.0228
 4736SOL     OW14801   6.560   2.353   2.658 -0.3270  0.5877 -0.1727
 4736SOL    HW114802   6.525   2.439   2.682  1.5748  1.0596  0.9646
 4736SOL    HW214803   6.636   2.371   2.604  0.5876 -0.3462  0.7609
 4737SOL     OW14804   2.083   2.208   3.795 -0.4504  0.3494 -0.4029
 4737SOL    HW114805   2.010   2.237   3.850  0.3790 -1.6110  1.7954
 4737SOL    HW214806   2.160   2.248   3.835  0.0441 -0.1505 -0.8556
 4738SOL     OW14807   6.862   7.189   0.875 -0.1162  0.0959 -0.0123
 4738SOL    HW114808   6.944   7.190   0.825  0.8401 -2.2990  1.3967
 4738SOL    HW214809   6.890   7.186   0.967 -1.7973  0.1784  0.5220
 4739SOL     OW14810   2.951   4.003   2.242  0.5668 -0.0175 -0.0392
 4739SOL    HW114811   2.955   4.035   2.332  1.2592  1.0711 -0.4547
 4739SOL    HW214812   2.868   4.038   2.208  0.1984 -0.6127  0.2415
 4740SOL     OW14813   4.540   6.120   2.890 -0.4719 -0.5574 -0.3111
 4740SOL    HW114814   4.571   6.140   2.802 -1.7574 -0.0125 -0.6513
 4740SOL    HW214815   4.583   6.038   2.913  1.1405  0.1319 -0.8037
 4741SOL     OW14816   5.533   3.191   3.274  0.4880  0.9753 -0.4599
 4741SOL    HW114817   5.543   3.115   3.333  0.3785  1.4641  0.1936
 4741SOL    HW214818   5.487   3.256   3.327 -1.9610  0.4848 -1.9074
 4742SOL     OW14819   7.020   3.374   4.775 -0.4602 -0.3083  0.4665
 4742SOL    HW114820   6.958   3.310   4.741  1.1588 -1.4819 -0.3183
 4742SOL    HW214821   6.996   3.385   4.867 -2.3602 -0.1073 -0.0500
 4743SOL     OW14822   2.773   1.063   1.667  0.5042 -0.0216 -0.1653
 4743SOL    HW114823   2.703   1.129   1.664 -1.2422 -1.7840  0.4415
 4743SOL    HW214824   2.836   1.092   1.601 -0.9614  1.4249 -0.9856
 4744SOL     OW14825   5.328   5.275   5.925 -0.0142 -0.2337 -0.0997
 4744SOL    HW114826   5.408   5.223   5.935 -0.4503 -1.2033 -1.5590
 4744SOL    HW214827   5.297   5.288   6.015  2.1640  0.7982  0.5459
 4745SOL     OW14828   0.180   0.583   6.522 -0.1239  0.4567 -0.1600
 4745SOL    HW114829   0.103   0.625   6.484 -0.8043 -1.3491 -0.8565
 4745SOL    HW214830   0.146   0.536   6.598 -0.2205 -2.4875 -1.9609
 4746SOL     OW14831   4.302   7.092   2.741 -0.4611 -0.4591  0.5029
 4746SOL    HW114832   4.340   7.059   2.822  1.5089 -1.8946 -0.9552
 4746SOL    HW214833   4.208   7.078   2.751  0.0897 -4.3150  0.9617
 4747SOL     OW14834   1.868   6.383   5.775 -0.0185 -0.8618  0.4649
 4747SOL    HW114835   1.901   6.470   5.753 -2.5493 -0.2127 -1.0414
 4747SOL    HW214836   1.857   6.384   5.870  0.5923  0.2374  0.5294
 4748SOL     OW14837   5.752   7.086   4.122 -0.5664  0.5299 -0.2628
 4748SOL    HW114838   5.801   7.079   4.040  0.3879  0.6513  0.2856
 4748SOL    HW214839   5.819   7.100   4.189 -1.5138  2.8937  0.2413
 4749SOL     OW14840   3.318   2.032   3.454  0.4090 -0.4807  0.4206
 4749SOL    HW114841   3.392   2.090   3.439  1.1325 -1.7418 -0.9716
 4749SOL    HW214842   3.342   1.981   3.531  1.2168 -1.2141 -0.3008
 4750SOL     OW14843   0.017   6.448   4.780  0.1140 -0.2076 -0.1368
 4750SOL    HW114844   0.007   6.503   4.702  0.6486  0.1119  0.0238
 4750SOL    HW214845   0.060   6.368   4.748 -1.5031 -0.9450 -0.5466
 4751SOL     OW14846   4.233   0.103   1.194 -0.1321  0.0568 -0.4844
 4751SOL    HW114847   4.286   0.106   1.114  0.0519 -0.0160 -0.3666
 4751SOL    HW214848   4.217   0.010   1.209 -0.7426  0.1079 -0.8107
 4752SOL     OW14849   5.400   2.661   6.633  0.4966  0.3788 -0.5020
 4752SOL    HW114850   5.451   2.580   6.631  0.0719  0.1047 -0.2691
 4752SOL    HW214851   5.357   2.664   6.548  2.1323  1.4105 -1.3214
 4753SOL     OW14852   0.097   6.088   2.565  0.3369  0.4602 -0.0588
 4753SOL    HW114853   0.070   6.151   2.632 -0.2311 -0.7958  0.9163
 4753SOL    HW214854   0.181   6.055   2.597  0.5123  0.5277 -0.4471
 4754SOL     OW14855   3.821   0.159   4.902  0.0522  0.2512  0.0618
 4754SOL    HW114856   3.837   0.067   4.880  0.9520  0.1848  0.9348
 4754SOL    HW214857   3.798   0.200   4.818 -0.6137 -0.8201 -0.2830
 4755SOL     OW14858   2.453   0.939   1.488  0.3068  0.5601  0.1334
 4755SOL    HW114859   2.479   0.847   1.491  0.5699  0.6972  3.0810
 4755SOL    HW214860   2.437   0.956   1.395  0.6680 -2.3322 -0.5064
 4756SOL     OW14861   2.557   2.254   0.063  0.5843  0.1256  0.3723
 4756SOL    HW114862   2.586   2.190   0.127 -0.1958 -0.6141  0.0043
 4756SOL    HW214863   2.582   2.217  -0.021 -0.4224 -0.0061  0.1219
 4757SOL     OW14864   3.235   4.518   1.285 -0.0229 -0.0326  0.2445
 4757SOL    HW114865   3.266   4.572   1.358  1.7634  1.1094 -1.3162
 4757SOL    HW214866   3.155   4.560   1.256 -0.2071  0.0788  0.9130
 4758SOL     OW14867   6.873   0.273   6.021  0.1472  0.1930  0.3038
 4758SOL    HW114868   6.935   0.319   6.078  0.4897  0.7659 -0.5139
 4758SOL    HW214869   6.906   0.183   6.018  0.4930  0.3131  0.4923
 4759SOL     OW14870   1.900   2.982   2.931 -0.3301  0.0423  0.2277
 4759SOL    HW114871   1.830   3.003   2.993  1.2368  0.6620  1.8176
 4759SOL    HW214872   1.979   2.980   2.984  0.9944  0.2240 -1.7010
 4760SOL     OW14873   6.465   1.085   6.922  0.2697  0.3174 -0.1881
 4760SOL    HW114874   6.390   1.101   6.864 -1.3936 -0.6420  1.6282
 4760SOL    HW214875   6.465   1.159   6.982  0.8516  0.3762 -0.2614
 4761SOL     OW14876   6.646   0.357   0.775 -0.5686  0.0399  0.7212
 4761SOL    HW114877   6.633   0.445   0.809 -2.3411 -0.1314  0.5201
 4761SOL    HW214878   6.600   0.355   0.692  0.6347 -0.6738  0.0474
 4762SOL     OW14879   1.050   3.165   2.614 -0.3805 -0.0011 -0.1066
 4762SOL    HW114880   1.063   3.072   2.632  1.2302  0.2076 -0.0522
 4762SOL    HW214881   1.041   3.205   2.700 -0.4601 -0.0259 -0.1038
 4763SOL     OW14882   4.784   0.739   4.217 -0.4225  0.5791  0.0044
 4763SOL    HW114883   4.698   0.714   4.184  0.0089 -0.9322  0.0104
 4763SOL    HW214884   4.769   0.823   4.261 -1.8552  0.3926 -0.1070
 4764SOL     OW14885   6.142   2.019   0.089 -0.0587 -0.3031  0.2612
 4764SOL    HW114886   6.226   1.991   0.055 -0.2109 -0.1297 -0.2730
 4764SOL    HW214887   6.134   2.110   0.060 -0.4391 -0.3266  0.2877
 4765SOL     OW14888   6.816   3.712   1.763  0.3758 -0.0698  0.0583
 4765SOL    HW114889   6.740   3.762   1.733  1.4227  0.3379 -2.0071
 4765SOL    HW214890   6.861   3.687   1.682  2.3048 -0.5204  1.2567
 4766SOL     OW14891   3.883   4.458   0.342  0.7506 -0.5300  0.2667
 4766SOL    HW114892   3.908   4.485   0.254  0.1510 -2.1235 -0.4093
 4766SOL    HW214893   3.964   4.461   0.392  0.9141  1.3213 -0.0895
 4767SOL     OW14894   5.188   1.159   2.577 -0.3838 -0.0781  0.1372
 4767SOL    HW114895   5.109   1.212   2.568 -0.8265 -0.8807 -0.7917
 4767SOL    HW214896   5.174   1.084   2.519  0.7861 -0.5555  0.4462
 4768SOL     OW14897   4.094   3.574   4.577  0.9297  0.0526  0.7347
 4768SOL    HW114898   4.071   3.524   4.499  1.7817  0.4084  0.2461
 4768SOL    HW214899   4.019   3.564   4.635 -0.0659  0.4695 -0.4670
 4769SOL     OW14900   6.077   6.758   3.233 -0.0367 -0.0171 -0.2166
 4769SOL    HW114901   5.982   6.765   3.219  0.0859  0.6720 -0.6949
 4769SOL    HW214902   6.085   6.721   3.321 -0.7292  2.4467  0.9350
 4770SOL     OW14903   3.701   1.539   3.185 -0.0712  0.3927 -0.2617
 4770SOL    HW114904   3.722   1.515   3.276 -0.0035 -1.2045 -0.6861
 4770SOL    HW214905   3.770   1.498   3.133 -2.7713 -2.8968 -1.4749
 4771SOL     OW14906   2.759   1.318   2.241 -0.5886 -0.0666  0.3431
 4771SOL    HW114907   2.676   1.339   2.198  0.3383  2.1590 -0.4212
 4771SOL    HW214908   2.770   1.385   2.308  0.6644 -0.2471  0.3440
 4772SOL     OW14909   0.828   6.412   5.841  0.0482  0.3610  0.5037
 4772SOL    HW114910   0.921   6.433   5.852 -0.1360  0.7080  1.4736
 4772SOL    HW214911   0.789   6.435   5.925 -0.9401  0.3455  0.0485
 4773SOL     OW14912   4.060   3.106   0.314 -0.1272 -0.0104  0.4360
 4773SOL    HW114913   4.129   3.142   0.369 -0.3725  0.9440  0.1373
 4773SOL    HW214914   4.024   3.033   0.364  1.2326 -0.6404  0.4928
 4774SOL     OW14915   4.257   2.078   4.744 -0.2129  0.0819  0.1600
 4774SOL    HW114916   4.221   2.166   4.751 -0.8361 -0.2641  1.4953
 4774SOL    HW214917   4.227   2.033   4.823  3.6788 -0.0185  1.6949
 4775SOL     OW14918   2.060   3.054   2.471  0.1692  0.1656  0.2614
 4775SOL    HW114919   1.991   3.033   2.534  0.0751  1.2881  0.5451
 4775SOL    HW214920   2.125   2.985   2.483 -1.0514 -1.1131 -0.2583
 4776SOL     OW14921   4.133   3.192   5.521 -0.5397 -0.4303 -0.0856
 4776SOL    HW114922   4.201   3.249   5.557  0.9695 -2.4475  0.3590
 4776SOL    HW214923   4.060   3.251   5.500  1.4130  1.8021 -0.7621
 4777SOL     OW14924   0.802   1.669   3.435 -0.0916 -0.1477 -0.1151
 4777SOL    HW114925   0.876   1.647   3.491  0.3055  1.2726 -0.0557
 4777SOL    HW214926   0.731   1.612   3.464  1.1833 -2.0225 -0.6473
 4778SOL     OW14927   4.346   4.575   6.511 -0.1502  0.3194  0.1660
 4778SOL    HW114928   4.330   4.570   6.605 -1.2742  0.6957  0.0063
 4778SOL    HW214929   4.439   4.598   6.503  0.5508 -2.0133  1.1330
 4779SOL     OW14930   4.245   7.163   0.942  0.1768  0.1618  0.4072
 4779SOL    HW114931   4.198   7.144   1.023 -1.5273 -0.6064 -0.7312
 4779SOL    HW214932   4.294   7.243   0.960  1.1223 -0.8942  2.7029
 4780SOL     OW14933   4.614   1.891   4.379  0.2587  0.0095 -0.6407
 4780SOL    HW114934   4.694   1.926   4.419 -0.4751  0.5220  0.4183
 4780SOL    HW214935   4.544   1.949   4.411 -0.6062 -0.7799 -1.0785
 4781SOL     OW14936   3.050   1.480   2.780  0.1038  0.0746  0.1670
 4781SOL    HW114937   3.016   1.450   2.695 -1.2682 -0.7678  0.9916
 4781SOL    HW214938   2.992   1.440   2.844  1.3306  0.4442  1.5320
 4782SOL     OW14939   0.157   0.617   3.724  0.2233  0.5100  0.4603
 4782SOL    HW114940   0.170   0.538   3.671  1.0288  0.1978  1.1247
 4782SOL    HW214941   0.085   0.663   3.680 -0.2240 -0.5662  0.0404
 4783SOL     OW14942   6.645   3.816   5.999 -0.7272 -0.0612 -0.1169
 4783SOL    HW114943   6.707   3.884   5.974 -2.4599  1.1066 -1.4163
 4783SOL    HW214944   6.645   3.756   5.924  0.2762 -1.1449  0.7279
 4784SOL     OW14945   6.758   7.213   0.012 -0.2717 -0.4291 -0.0583
 4784SOL    HW114946   6.708   7.268  -0.047 -0.8824  0.1530  0.9855
 4784SOL    HW214947   6.849   7.242   0.002 -0.3016 -0.6770 -1.0657
 4785SOL     OW14948   0.485   3.000   3.358  0.2372  0.1879 -0.3835
 4785SOL    HW114949   0.433   3.007   3.278  0.2857 -0.1636 -0.4441
 4785SOL    HW214950   0.541   3.077   3.357  2.2221 -1.2267 -2.0748
 4786SOL     OW14951   5.070   0.897   3.531  0.4733 -0.0478 -0.4020
 4786SOL    HW114952   5.000   0.857   3.480  0.6716  1.7225 -2.1144
 4786SOL    HW214953   5.151   0.860   3.495  0.5678  0.4593 -0.7190
 4787SOL     OW14954   0.202   1.610   0.777  0.5327  0.1817  0.1018
 4787SOL    HW114955   0.278   1.668   0.789 -0.1861  0.9498  1.0122
 4787SOL    HW214956   0.201   1.555   0.855 -0.9507  1.4736  1.0242
 4788SOL     OW14957   1.129   7.030   1.291 -0.0473  0.4322  0.1620
 4788SOL    HW114958   1.222   7.050   1.284  0.9961 -2.9382  2.9179
 4788SOL    HW214959   1.094   7.099   1.348  1.0796  0.8468  0.3653
 4789SOL     OW14960   6.956   3.197   2.259 -0.3258  0.6577 -0.2376
 4789SOL    HW114961   7.026   3.248   2.218 -0.5959  1.7115  0.6024
 4789SOL    HW214962   6.880   3.212   2.203  0.2785 -1.0603 -1.5568
 4790SOL     OW14963   5.143   3.464   5.183  0.3467 -0.5956 -0.0480
 4790SOL    HW114964   5.208   3.415   5.233 -0.5171 -2.5258 -0.7489
 4790SOL    HW214965   5.123   3.540   5.238  1.2345 -1.3775  1.3888
 4791SOL     OW14966   7.182   4.429   6.345  0.8383  0.4005 -0.2753
 4791SOL    HW114967   7.274   4.408   6.329  0.4473 -0.8509 -0.9189
 4791SOL    HW214968   7.180   4.525   6.351  2.3453  0.3659  0.8485
 4792SOL     OW14969   2.732   7.140   5.268  0.0028 -0.8451  0.5256
 4792SOL    HW114970   2.683   7.221   5.251  1.4172 -0.4785 -2.1155
 4792SOL    HW214971   2.820   7.170   5.291  0.5799 -1.5995 -0.6473
 4793SOL     OW14972   5.886   1.299   0.074 -0.3018  0.2646 -0.3415
 4793SOL    HW114973   5.886   1.342  -0.012  0.3395  2.9613  0.9552
 4793SOL    HW214974   5.806   1.331   0.116 -1.8370 -2.8712 -0.7688
 4794SOL     OW14975   4.905   2.078   1.255 -0.3442  0.5258  0.0581
 4794SOL    HW114976   4.810   2.072   1.261 -0.3342 -0.3407 -0.5123
 4794SOL    HW214977   4.922   2.167   1.226 -0.9096  1.1548  1.6249
 4795SOL     OW14978   6.101   6.807   5.584 -0.3758  0.2523  0.0947
 4795SOL    HW114979   6.153   6.737   5.546 -1.9119 -0.9144  0.1077
 4795SOL    HW214980   6.096   6.874   5.516 -1.9247 -1.2158 -1.2636
 4796SOL     OW14981   5.449   4.456   0.756  0.2836 -0.2353 -0.3041
 4796SOL    HW114982   5.501   4.505   0.692  1.4613 -2.3069 -0.9776
 4796SOL    HW214983   5.514   4.415   0.813 -0.6774 -1.1170  0.1673
 4797SOL     OW14984   4.631   3.488   4.247 -0.3726 -0.2438  0.1802
 4797SOL    HW114985   4.720   3.465   4.221 -1.1133 -0.2328 -2.4378
 4797SOL    HW214986   4.633   3.583   4.260  0.2948 -0.4147  1.4051
 4798SOL     OW14987   7.189   5.885   4.165  0.2039  0.2998 -0.1960
 4798SOL    HW114988   7.182   5.905   4.258 -2.3384  3.0053 -0.9011
 4798SOL    HW214989   7.153   5.796   4.157  1.9375 -0.5982  1.5654
 4799SOL     OW14990   1.944   5.183   1.058 -0.1433  0.2693 -0.0194
 4799SOL    HW114991   2.005   5.215   0.992 -0.5941  1.9681  0.3479
 4799SOL    HW214992   1.980   5.213   1.141 -1.6630  1.6479  0.1701
 4800SOL     OW14993   0.142   6.575   6.155  0.6412  0.2247  0.1122
 4800SOL    HW114994   0.060   6.544   6.193 -0.6949 -0.1400 -2.8755
 4800SOL    HW214995   0.122   6.664   6.126  1.9402  0.8720  1.1603
 4801SOL     OW14996   4.284   4.363   6.997  0.6284 -0.0652  0.1751
 4801SOL    HW114997   4.191   4.364   6.975  0.7042 -2.5188 -0.3692
 4801SOL    HW214998   4.289   4.321   7.083  1.2411  0.0354  0.1955
 4802SOL     OW14999   6.399   2.987   0.190  0.3134  0.3053 -0.0857
 4802SOL    HW115000   6.488   3.024   0.192 -0.2333  1.6064  1.6160
 4802SOL    HW215001   6.409   2.903   0.146  2.4461  0.3315  0.2860
 4803SOL     OW15002   6.809   6.129   0.567 -0.0582 -0.1551  0.3288
 4803SOL    HW115003   6.891   6.109   0.522  1.8374  3.4047  2.0331
 4803SOL    HW215004   6.826   6.105   0.659 -0.8288  0.8408  0.7379
 4804SOL     OW15005   1.015   3.123   1.348  0.2692 -0.0488 -0.4700
 4804SOL    HW115006   1.054   3.061   1.409 -2.8881  0.8531  2.5731
 4804SOL    HW215007   0.946   3.073   1.304  0.5109  0.1865 -1.1380
 4805SOL     OW15008   6.689   6.251   4.619  0.2456 -0.8532 -0.3346
 4805SOL    HW115009   6.600   6.241   4.586  0.4798  0.8432 -1.5088
 4805SOL    HW215010   6.745   6.225   4.546  0.7762  3.2029 -1.4542
 4806SOL     OW15011   2.750   4.289   3.541  0.1893  0.0224 -0.5312
 4806SOL    HW115012   2.717   4.265   3.455  2.0755 -0.5737 -1.1288
 4806SOL    HW215013   2.824   4.348   3.523 -0.3970  1.1945  0.7395
 4807SOL     OW15014   4.629   4.104   6.751  0.3977  0.3771 -0.2943
 4807SOL    HW115015   4.547   4.088   6.799  0.4251  0.9725 -0.0487
 4807SOL    HW215016   4.626   4.041   6.679  0.0227 -0.0435  0.0777
 4808SOL     OW15017   0.204   5.123   2.435 -0.5102 -0.0232  0.7030
 4808SOL    HW115018   0.271   5.157   2.376 -0.1819 -2.0788 -0.1710
 4808SOL    HW215019   0.130   5.183   2.425  0.2502  0.7633 -0.3257
 4809SOL     OW15020   2.226   5.975   0.935  0.2346 -0.2587 -0.2469
 4809SOL    HW115021   2.277   6.045   0.895  0.3043 -0.5970 -0.7551
 4809SOL    HW215022   2.146   6.019   0.966  0.7725  0.2420  0.4318
 4810SOL     OW15023   0.447   4.010   5.277  0.7988  0.8541  0.1688
 4810SOL    HW115024   0.411   3.958   5.205  1.5492  1.0299 -0.3469
 4810SOL    HW215025   0.390   3.992   5.351  0.4134  0.1395 -0.2960
 4811SOL     OW15026   3.010   4.340   4.910 -0.5020  0.2898 -0.0536
 4811SOL    HW115027   3.008   4.252   4.947 -2.3216  1.7916  3.6909
 4811SOL    HW215028   2.918   4.358   4.888  0.2228  0.3070 -3.3974
 4812SOL     OW15029   5.637   4.544   0.157  0.2200  0.4818 -0.3085
 4812SOL    HW115030   5.664   4.452   0.151  2.1400  0.9070  1.4208
 4812SOL    HW215031   5.581   4.547   0.235  1.2545  1.0214  0.4214
 4813SOL     OW15032   0.224   0.067   5.115  0.5367 -0.2598 -0.5734
 4813SOL    HW115033   0.173   0.107   5.185  0.7220 -1.7543  0.4294
 4813SOL    HW215034   0.201   0.117   5.037 -1.4666 -0.0949  0.1051
 4814SOL     OW15035   0.625   0.083   0.387 -0.0936  0.2003 -0.3796
 4814SOL    HW115036   0.714   0.116   0.393 -0.6779  2.5410 -3.5567
 4814SOL    HW215037   0.570   0.159   0.405 -1.4567 -0.5630 -1.2128
 4815SOL     OW15038   1.825   2.711   3.492  0.4974 -0.2488  0.6666
 4815SOL    HW115039   1.886   2.719   3.566  0.2891 -1.7337  1.0155
 4815SOL    HW215040   1.858   2.638   3.441  0.0307  0.0997 -0.1454
 4816SOL     OW15041   2.626   4.985   5.773  0.2974  0.0516  0.0190
 4816SOL    HW115042   2.654   4.897   5.799  0.0449 -0.0664 -0.1025
 4816SOL    HW215043   2.559   4.970   5.706 -0.0019  0.3323  0.2569
 4817SOL     OW15044   0.235   2.834   3.366  0.0535 -0.2383 -0.0426
 4817SOL    HW115045   0.215   2.928   3.371 -1.9971 -0.4463 -2.6821
 4817SOL    HW215046   0.157   2.792   3.403  0.8095 -0.8992  0.7874
 4818SOL     OW15047   3.602   0.775   4.935 -0.5047  0.1531 -0.2080
 4818SOL    HW115048   3.615   0.772   5.030 -2.0763  1.0311  0.0399
 4818SOL    HW215049   3.508   0.762   4.922 -0.2381 -0.4827 -1.6799
 4819SOL     OW15050   6.687   6.735   4.582  0.0436 -0.1000  0.0742
 4819SOL    HW115051   6.596   6.708   4.571 -0.0037 -0.5903  1.5373
 4819SOL    HW215052   6.729   6.661   4.625  1.3399 -0.1999 -1.3287
 4820SOL     OW15053   6.362   0.105   1.644 -0.3333 -0.3637  0.0611
 4820SOL    HW115054   6.452   0.073   1.640 -0.4229 -0.7803  1.1438
 4820SOL    HW215055   6.334   0.110   1.553  0.6035 -0.7433 -0.2525
 4821SOL     OW15056   1.143   0.872   7.102 -0.0910 -0.0149  0.7671
 4821SOL    HW115057   1.225   0.901   7.143  0.3000 -0.2115  0.1246
 4821SOL    HW215058   1.079   0.875   7.173  0.2615  1.0431  1.0583
 4822SOL     OW15059   1.907   3.645   3.180  0.2721  0.0880 -0.0315
 4822SOL    HW115060   1.855   3.671   3.256  0.1421  0.2307 -0.1694
 4822SOL    HW215061   1.891   3.714   3.115 -0.6930 -0.7367 -0.6837
 4823SOL     OW15062   6.789   5.743   2.953 -0.1064  0.3747  0.2807
 4823SOL    HW115063   6.809   5.749   2.860 -0.1867 -0.6174  0.1943
 4823SOL    HW215064   6.695   5.758   2.959 -0.1441  0.1752  0.1771
 4824SOL     OW15065   4.485   4.908   2.336  0.1688  0.0903 -0.0281
 4824SOL    HW115066   4.426   4.905   2.411  0.1947  0.6574  0.0218
 4824SOL    HW215067   4.436   4.867   2.264 -1.0959  2.4158 -0.5367
 4825SOL     OW15068   7.122   4.890   3.105  0.0730 -0.3917 -0.8498
 4825SOL    HW115069   7.150   4.980   3.087  1.1727 -0.2744  1.3060
 4825SOL    HW215070   7.176   4.836   3.048  0.1320  0.2538 -1.4088
 4826SOL     OW15071   1.948   2.478   5.622 -0.1122 -0.3615  0.2842
 4826SOL    HW115072   1.941   2.554   5.680 -1.7324  2.3041 -3.2038
 4826SOL    HW215073   1.887   2.414   5.659  0.6798  0.2883  2.8343
 4827SOL     OW15074   0.627   3.685   2.520 -0.0108  0.5725  0.2778
 4827SOL    HW115075   0.701   3.709   2.464 -0.2561 -1.4336 -0.9444
 4827SOL    HW215076   0.663   3.622   2.583 -0.2938  0.9259  0.8032
 4828SOL     OW15077   1.290   4.215   2.585 -0.4115 -0.5473  0.2656
 4828SOL    HW115078   1.272   4.148   2.519 -1.0997 -0.0987  0.0021
 4828SOL    HW215079   1.260   4.297   2.546  2.1673  0.2329 -0.1832
 4829SOL     OW15080   1.351   5.709   2.015 -0.5564 -0.1286 -0.1722
 4829SOL    HW115081   1.307   5.786   2.052 -0.9465 -0.9024  1.0079
 4829SOL    HW215082   1.416   5.745   1.954 -2.4722  1.0369 -1.5595
 4830SOL     OW15083   4.352   6.615   2.872 -0.0271 -0.0086  0.0292
 4830SOL    HW115084   4.324   6.557   2.801 -1.5252 -1.6818  1.8974
 4830SOL    HW215085   4.445   6.629   2.856 -0.5199  0.4412 -2.7764
 4831SOL     OW15086   1.589   6.856   2.027 -0.0857  0.7220  0.0702
 4831SOL    HW115087   1.532   6.779   2.022  0.8761 -0.0638  0.9955
 4831SOL    HW215088   1.568   6.896   2.111  1.1800  0.0552  0.7155
 4832SOL     OW15089   4.502   2.146   6.251  0.1428  0.8100 -0.1789
 4832SOL    HW115090   4.505   2.052   6.233  0.3003  0.8567 -0.3894
 4832SOL    HW215091   4.544   2.187   6.175  0.3755  1.0307  0.0680
 4833SOL     OW15092   1.476   5.538   3.066 -0.5188  0.1509  0.1187
 4833SOL    HW115093   1.417   5.605   3.031  0.4146  1.9099  1.7976
 4833SOL    HW215094   1.454   5.532   3.158  1.9592  0.9407  0.8047
 4834SOL     OW15095   2.873   4.806   1.868  0.4405  0.2603 -0.1715
 4834SOL    HW115096   2.956   4.833   1.829  0.1313 -0.2397 -1.1941
 4834SOL    HW215097   2.815   4.881   1.856  0.3658  0.1324 -0.6290
 4835SOL     OW15098   6.651   4.532   3.796  0.0156  0.4557 -0.2191
 4835SOL    HW115099   6.599   4.451   3.804 -0.8181  0.7738 -2.0644
 4835SOL    HW215100   6.598   4.599   3.839  0.3259  0.1962  0.5831
 4836SOL     OW15101   6.138   0.290   0.114 -0.2912  0.0900 -0.1096
 4836SOL    HW115102   6.180   0.274   0.030 -0.9184  2.4252 -0.9013
 4836SOL    HW215103   6.207   0.325   0.170  0.0810 -1.2856  0.3187
 4837SOL     OW15104   1.758   7.038   0.758  0.5340 -0.6474  0.7239
 4837SOL    HW115105   1.715   6.955   0.736 -1.1071  0.6441 -1.1447
 4837SOL    HW215106   1.686   7.101   0.767  1.8586  0.9298  0.4571
 4838SOL     OW15107   2.371   4.548   4.566  0.1067 -0.0008 -0.0882
 4838SOL    HW115108   2.340   4.607   4.497  0.8948 -1.7038 -1.9497
 4838SOL    HW215109   2.291   4.507   4.601 -0.6041  3.1704  2.2613
 4839SOL     OW15110   4.980   0.501   5.271 -0.4456  0.7388  0.5036
 4839SOL    HW115111   5.004   0.498   5.364 -1.9175  1.8762  0.9496
 4839SOL    HW215112   5.062   0.520   5.226  0.1219  1.0858  1.6558
 4840SOL     OW15113   5.427   3.777   5.183  0.0088  0.2293  0.5498
 4840SOL    HW115114   5.475   3.694   5.189 -1.4720 -0.7500 -0.8865
 4840SOL    HW215115   5.409   3.801   5.274  1.3913 -0.4371  1.0231
 4841SOL     OW15116   7.134   3.583   0.601  0.0611  0.6613 -0.2428
 4841SOL    HW115117   7.141   3.639   0.524 -1.3449  1.6089  0.2774
 4841SOL    HW215118   7.049   3.539   0.591 -0.3983  1.2097  1.0003
 4842SOL     OW15119   0.571   7.254   6.115  0.1560  0.2258 -0.5667
 4842SOL    HW115120   0.580   7.300   6.198 -3.6357  2.3703 -1.2660
 4842SOL    HW215121   0.533   7.169   6.138  2.6054 -0.7363  0.1884
 4843SOL     OW15122   1.136   1.559   4.111  0.1719 -0.6551  0.0923
 4843SOL    HW115123   1.059   1.508   4.135 -1.6374  1.9468  0.0404
 4843SOL    HW215124   1.164   1.601   4.192  0.7609 -0.5840 -0.1438
 4844SOL     OW15125   5.376   7.198   0.812  0.2738 -0.0476 -0.0476
 4844SOL    HW115126   5.352   7.192   0.904 -0.7088  0.2280 -0.2774
 4844SOL    HW215127   5.463   7.158   0.807  1.0543  1.4226  1.2708
 4845SOL     OW15128   2.802   3.552   5.503  0.1179 -0.0148 -0.1365
 4845SOL    HW115129   2.761   3.480   5.456  0.3169 -0.9083  1.0232
 4845SOL    HW215130   2.750   3.629   5.481 -0.1755 -0.5435 -1.2759
 4846SOL     OW15131   1.763   1.834   5.820  0.3186 -0.0499 -0.1048
 4846SOL    HW115132   1.787   1.744   5.839 -1.1944 -0.0203  2.1138
 4846SOL    HW215133   1.728   1.831   5.731  2.4605 -1.2007 -0.9396
 4847SOL     OW15134   1.080   6.880   3.751  0.4712 -0.5783 -0.0041
 4847SOL    HW115135   1.100   6.938   3.678 -1.1309  0.3397  0.2619
 4847SOL    HW215136   1.015   6.927   3.803  0.8407 -1.6393  1.4795
 4848SOL     OW15137   3.547   1.271   3.952 -0.5339 -0.1487 -0.1187
 4848SOL    HW115138   3.566   1.338   3.887 -1.4487  0.5579  0.3304
 4848SOL    HW215139   3.451   1.268   3.956 -0.4871  0.0756  1.4406
 4849SOL     OW15140   2.605   5.698   2.976  0.4599  0.7975  0.1842
 4849SOL    HW115141   2.603   5.726   2.885 -0.4204  0.5745  0.1366
 4849SOL    HW215142   2.519   5.658   2.992  1.2747 -0.8618  0.5710
 4850SOL     OW15143   0.763   5.344   0.617  0.0357 -0.0136  0.0866
 4850SOL    HW115144   0.785   5.388   0.700 -0.2973  0.8984 -0.2998
 4850SOL    HW215145   0.784   5.252   0.632  1.4811  0.3870  0.6712
 4851SOL     OW15146   4.402   7.057   5.311  0.5329 -0.7170 -0.2591
 4851SOL    HW115147   4.365   7.123   5.371  0.8775 -0.1959 -0.6195
 4851SOL    HW215148   4.472   7.103   5.266  0.2004 -1.0838 -1.1462
 4852SOL     OW15149   5.056   5.742   3.598 -0.3682  0.3552 -0.4616
 4852SOL    HW115150   5.005   5.662   3.615 -1.0011  0.5289 -1.5154
 4852SOL    HW215151   5.109   5.720   3.521 -0.1866  0.7888 -0.4596
 4853SOL     OW15152   3.648   3.688   1.580 -0.0163  0.2784  0.2761
 4853SOL    HW115153   3.669   3.598   1.558 -2.1331 -0.5257  1.4080
 4853SOL    HW215154   3.657   3.692   1.676 -3.0701  0.3554  0.6111
 4854SOL     OW15155   5.815   4.102   4.979 -0.3008 -0.2305  0.0374
 4854SOL    HW115156   5.773   4.016   4.973  0.4296 -0.5456 -0.5567
 4854SOL    HW215157   5.755   4.154   5.033  0.4542 -1.8290  2.4961
 4855SOL     OW15158   0.417   0.558   3.824  0.0226  0.4735 -0.1015
 4855SOL    HW115159   0.413   0.653   3.829 -0.4873  0.4298  0.3637
 4855SOL    HW215160   0.370   0.528   3.902  0.7490 -0.1523  0.1037
 4856SOL     OW15161   6.439   6.845   0.473  0.2175 -0.1997 -0.3704
 4856SOL    HW115162   6.512   6.904   0.488  0.2653 -0.1725 -0.7175
 4856SOL    HW215163   6.464   6.764   0.518 -0.7103  0.6773  1.8038
 4857SOL     OW15164   1.048   6.373   3.700  0.8044 -0.2775  0.0311
 4857SOL    HW115165   0.975   6.388   3.760 -0.0611 -1.5108 -0.6832
 4857SOL    HW215166   1.050   6.450   3.644  0.1922 -0.1366  0.2046
 4858SOL     OW15167   1.364   2.176   2.899 -0.1018 -0.2526 -0.0416
 4858SOL    HW115168   1.323   2.091   2.887  0.2679 -0.4379 -0.0148
 4858SOL    HW215169   1.451   2.156   2.935 -0.4398  0.1904  1.0389
 4859SOL     OW15170   6.170   3.032   1.469 -0.2586 -0.5767  0.2207
 4859SOL    HW115171   6.095   3.005   1.415 -0.0369  0.3774 -0.5817
 4859SOL    HW215172   6.218   2.951   1.485 -0.2941 -0.8649 -1.0777
 4860SOL     OW15173   0.167   6.381   3.772 -0.9251 -0.5470 -0.4229
 4860SOL    HW115174   0.147   6.471   3.797 -0.3360 -0.7982  1.0104
 4860SOL    HW215175   0.192   6.338   3.854  1.1436 -1.3829 -1.4627
 4861SOL     OW15176   6.037   2.708   4.251 -0.5403 -0.0507  0.4289
 4861SOL    HW115177   6.027   2.796   4.288  1.8903  0.0548  0.8832
 4861SOL    HW215178   6.098   2.664   4.309  2.3496 -0.3299 -2.6868
 4862SOL     OW15179   1.077   5.729   0.274  0.4467 -0.0675 -0.1713
 4862SOL    HW115180   1.146   5.696   0.332 -0.0978 -3.2411 -1.2339
 4862SOL    HW215181   0.998   5.683   0.302 -0.2003 -0.2496 -2.2321
 4863SOL     OW15182   3.367   5.940   0.445 -0.0346 -0.5860  0.3629
 4863SOL    HW115183   3.395   6.017   0.397 -0.1675 -1.0523 -0.4796
 4863SOL    HW215184   3.276   5.958   0.468 -1.0027 -1.6864 -2.3812
 4864SOL     OW15185   3.968   2.742   5.937  0.3292 -0.6714 -0.4509
 4864SOL    HW115186   3.904   2.672   5.952 -0.6681  0.1474 -0.8624
 4864SOL    HW215187   4.023   2.741   6.016  0.4197 -2.0130 -0.5182
 4865SOL     OW15188   4.000   0.411   5.794  0.0137  0.0746 -0.1359
 4865SOL    HW115189   4.008   0.501   5.825  1.2697 -0.0395 -0.1052
 4865SOL    HW215190   3.906   0.396   5.790 -0.3180  2.3152 -2.7580
 4866SOL     OW15191   5.712   1.689   4.108 -0.6708 -0.5063  0.1543
 4866SOL    HW115192   5.805   1.671   4.092 -1.0461 -1.3909 -1.1373
 4866SOL    HW215193   5.708   1.784   4.124  0.2856 -0.2263 -1.1624
 4867SOL     OW15194   5.000   5.590   4.167  0.0215  0.1437 -0.0005
 4867SOL    HW115195   5.013   5.607   4.073  1.4476 -0.3942  0.0746
 4867SOL    HW215196   4.981   5.675   4.205 -0.1783  0.4272 -0.7314
 4868SOL     OW15197   5.446   4.304   4.415  0.3019  0.2071 -0.1522
 4868SOL    HW115198   5.409   4.260   4.492  2.7804 -2.1300 -0.2056
 4868SOL    HW215199   5.452   4.396   4.441  0.7823 -0.4858  2.3681
 4869SOL     OW15200   5.827   7.250   4.652  0.1869  0.2995  0.8534
 4869SOL    HW115201   5.901   7.190   4.649 -0.3589 -0.3478  0.3078
 4869SOL    HW215202   5.822   7.287   4.564 -0.0936  0.3991  0.9111
 4870SOL     OW15203   7.240   2.624   5.476 -0.3854  0.2496  0.2888
 4870SOL    HW115204   7.221   2.708   5.518 -1.6543 -0.5597  1.3903
 4870SOL    HW215205   7.325   2.636   5.435  0.5347  1.3479  2.4332
 4871SOL     OW15206   2.273   4.381   2.313  0.1404 -0.1504  0.0409
 4871SOL    HW115207   2.230   4.389   2.398 -0.7712 -0.7079 -0.3584
 4871SOL    HW215208   2.323   4.299   2.320  0.1406 -0.1483  0.0694
 4872SOL     OW15209   3.687   5.119   5.576 -0.3322  0.5440  0.0320
 4872SOL    HW115210   3.772   5.153   5.548 -0.4069 -0.3921 -1.3999
 4872SOL    HW215211   3.692   5.025   5.559 -1.3166  0.3379  0.8210
 4873SOL     OW15212   0.636   5.352   7.209  0.0927  0.6247  0.2901
 4873SOL    HW115213   0.561   5.407   7.183  0.6159  1.0953 -0.2548
 4873SOL    HW215214   0.687   5.343   7.129  1.3722  1.5152  0.9812
 4874SOL     OW15215   1.128   5.091   4.484 -0.1569 -0.4099 -0.2151
 4874SOL    HW115216   1.176   5.133   4.554  0.3910  0.2828 -1.0049
 4874SOL    HW215217   1.104   5.005   4.520 -0.7356  0.3092  1.1580
 4875SOL     OW15218   1.859   3.261   1.565 -0.4435  0.0108  0.0987
 4875SOL    HW115219   1.774   3.240   1.527 -0.1319  0.2899 -0.7569
 4875SOL    HW215220   1.870   3.355   1.551  1.0853 -0.4465 -2.0361
 4876SOL     OW15221   0.645   0.149   5.478 -0.1022  0.5811 -0.2805
 4876SOL    HW115222   0.651   0.229   5.530  0.0098 -0.7134  1.7622
 4876SOL    HW215223   0.553   0.144   5.451 -0.3121  0.9143  0.3709
 4877SOL     OW15224   2.486   6.254   0.660 -0.7789  0.1495  0.1915
 4877SOL    HW115225   2.434   6.323   0.617 -0.3934  0.3068 -0.0189
 4877SOL    HW215226   2.429   6.222   0.730 -1.2819  0.1151 -0.2299
 4878SOL     OW15227   3.550   3.429   2.079 -0.6249 -0.8483  0.1143
 4878SOL    HW115228   3.576   3.339   2.099 -0.7312 -1.4559 -2.2658
 4878SOL    HW215229   3.456   3.432   2.101 -0.0015 -0.4382  2.9067
 4879SOL     OW15230   7.109   0.185   0.737  0.6117 -0.0811 -0.3410
 4879SOL    HW115231   7.184   0.245   0.740 -1.7227  2.8990  1.7253
 4879SOL    HW215232   7.044   0.226   0.794 -1.9275 -3.5256 -0.6266
 4880SOL     OW15233   2.035   5.859   0.175 -0.2915  0.0247 -0.3404
 4880SOL    HW115234   2.068   5.803   0.105 -2.0867  0.8940 -1.9183
 4880SOL    HW215235   2.096   5.932   0.179 -0.6267  0.3798 -1.5589
 4881SOL     OW15236   1.346   4.943   2.817 -0.9023  0.0290  0.3019
 4881SOL    HW115237   1.431   4.982   2.837 -0.9925 -0.4203  1.5929
 4881SOL    HW215238   1.287   5.018   2.810 -0.5908  0.2846  0.3781
 4882SOL     OW15239   2.302   3.276   5.076 -0.1894 -0.1872 -0.3634
 4882SOL    HW115240   2.322   3.315   4.991 -3.8951  1.4485 -0.5687
 4882SOL    HW215241   2.290   3.351   5.134  2.0252 -1.2826  1.5693
 4883SOL     OW15242   4.238   1.437   4.125 -0.1193  0.0199  0.5062
 4883SOL    HW115243   4.331   1.432   4.146 -0.3639  2.6809  2.3728
 4883SOL    HW215244   4.198   1.367   4.177  0.6334 -0.2342  0.7593
 4884SOL     OW15245   0.933   5.399   6.137 -0.1090 -0.8351 -0.3295
 4884SOL    HW115246   0.955   5.431   6.049  0.6522  2.3552  0.9374
 4884SOL    HW215247   0.846   5.361   6.127 -0.5192  0.5128 -2.2522
 4885SOL     OW15248   5.708   0.576   4.757 -0.4709 -0.2478 -0.0884
 4885SOL    HW115249   5.786   0.619   4.792 -0.6354  0.8571 -1.0525
 4885SOL    HW215250   5.657   0.647   4.717 -1.2068 -1.1956 -0.8602
 4886SOL     OW15251   1.946   6.901   3.394 -0.1073 -0.0510  0.5567
 4886SOL    HW115252   1.956   6.807   3.379 -0.5337 -0.4172  2.4082
 4886SOL    HW215253   1.978   6.915   3.483  0.2682  1.6278  0.1836
 4887SOL     OW15254   0.922   5.145   3.698  0.1096  0.4920 -0.4415
 4887SOL    HW115255   0.890   5.116   3.613  0.0698 -0.9400  0.0376
 4887SOL    HW215256   0.845   5.141   3.755 -0.2342  2.9783 -0.6856
 4888SOL     OW15257   4.631   0.678   5.920 -0.1222  0.0297  0.0668
 4888SOL    HW115258   4.583   0.761   5.914 -1.0332 -0.4919  0.0575
 4888SOL    HW215259   4.691   0.690   5.993  0.1263  0.8915 -0.2789
 4889SOL     OW15260   4.562   6.974   1.836  0.6964 -0.2397  0.1159
 4889SOL    HW115261   4.645   6.946   1.874  0.0596 -0.5548  1.2986
 4889SOL    HW215262   4.539   6.903   1.776  0.9944 -0.4337  0.2293
 4890SOL     OW15263   1.997   6.712   3.639  0.4405 -0.2027  0.3786
 4890SOL    HW115264   2.067   6.649   3.655  1.9315  1.3881  0.3600
 4890SOL    HW215265   2.027   6.792   3.682 -0.3380  1.1343 -1.4626
 4891SOL     OW15266   3.376   5.653   1.690 -0.6738  0.0236  0.4172
 4891SOL    HW115267   3.398   5.741   1.720 -1.0593  0.2133  0.1396
 4891SOL    HW215268   3.443   5.597   1.730 -2.1404  0.0513  2.9518
 4892SOL     OW15269   1.338   2.355   5.122  0.2154 -0.1590  0.8975
 4892SOL    HW115270   1.288   2.381   5.045 -0.2193 -3.2039  0.1037
 4892SOL    HW215271   1.427   2.387   5.105  0.2200 -1.1255 -1.0861
 4893SOL     OW15272   2.864   2.219   3.729 -0.0853 -0.0197  0.4876
 4893SOL    HW115273   2.780   2.185   3.761 -0.3469  0.5270  0.3760
 4893SOL    HW215274   2.900   2.148   3.675  0.5035 -1.0868  2.2275
 4894SOL     OW15275   2.881   1.292   5.581 -0.1058  0.6233  0.4091
 4894SOL    HW115276   2.792   1.282   5.549 -0.2665 -0.8852  1.2565
 4894SOL    HW215277   2.937   1.267   5.508 -0.4456 -1.6444  0.9036
 4895SOL     OW15278   3.197   5.761   2.437 -0.2524  0.3111  0.4170
 4895SOL    HW115279   3.143   5.755   2.516 -0.1878  1.5588  0.5678
 4895SOL    HW215280   3.135   5.781   2.367 -0.3421 -1.0270  0.0901
 4896SOL     OW15281   7.046   5.806   2.990 -0.8563 -0.2020 -0.5411
 4896SOL    HW115282   6.954   5.794   2.966 -1.0174  0.0070 -0.0403
 4896SOL    HW215283   7.072   5.886   2.945 -1.2672  0.4002  0.2818
 4897SOL     OW15284   0.110   1.298   3.506  0.2534  0.2748 -0.1611
 4897SOL    HW115285   0.075   1.312   3.595  1.4896 -1.0038  0.5505
 4897SOL    HW215286   0.066   1.364   3.453 -1.6146  0.1190  1.1228
 4898SOL     OW15287   7.035   3.775   4.197  0.2462 -0.3941  0.2805
 4898SOL    HW115288   7.049   3.783   4.291 -0.7202 -0.7605  0.4673
 4898SOL    HW215289   7.080   3.850   4.159  2.5803 -1.4771  0.8193
 4899SOL     OW15290   6.708   2.503   4.096 -0.0450 -0.3565  0.6114
 4899SOL    HW115291   6.791   2.464   4.068  0.1087  1.2907 -1.3338
 4899SOL    HW215292   6.729   2.548   4.179  0.8539 -0.4915  0.4590
 4900SOL     OW15293   6.470   5.593   6.005  0.0421  0.0636 -0.0173
 4900SOL    HW115294   6.401   5.594   6.071 -0.7283 -1.3880 -0.7886
 4900SOL    HW215295   6.503   5.503   6.006 -0.2929 -0.0952 -1.9442
 4901SOL     OW15296   1.325   1.852   6.105 -0.2101  0.8645  0.8203
 4901SOL    HW115297   1.248   1.808   6.142  0.3230 -0.1313  0.7405
 4901SOL    HW215298   1.329   1.821   6.015 -0.0480  1.3762  0.6483
 4902SOL     OW15299   2.625   6.340   7.185  0.1247 -0.0493  0.5592
 4902SOL    HW115300   2.666   6.301   7.108  1.2999  2.0864  0.0566
 4902SOL    HW215301   2.535   6.359   7.157  0.6619  1.0777 -0.4381
 4903SOL     OW15302   3.893   2.548   4.512  0.1351 -0.3816  0.0441
 4903SOL    HW115303   3.812   2.597   4.496 -0.1827 -0.9958 -0.2697
 4903SOL    HW215304   3.963   2.611   4.498 -0.2586 -0.0887 -0.6173
 4904SOL     OW15305   2.686   7.078   1.669 -0.1367  0.2698 -0.1304
 4904SOL    HW115306   2.676   7.174   1.667  0.3460  0.3669  1.5870
 4904SOL    HW215307   2.774   7.063   1.701 -0.6409 -0.7601  0.8253
 4905SOL     OW15308   6.668   2.887   0.515 -0.2188  0.3243  0.1457
 4905SOL    HW115309   6.597   2.825   0.502  1.3356 -1.4483 -0.1052
 4905SOL    HW215310   6.636   2.945   0.585 -1.6891 -0.7625  0.4117
 4906SOL     OW15311   5.099   1.049   3.740  0.4214 -0.2642  0.1975
 4906SOL    HW115312   5.170   0.994   3.773 -0.5082 -0.0667  2.6765
 4906SOL    HW215313   5.079   1.015   3.653 -0.5235 -4.2989  1.8824
 4907SOL     OW15314   5.979   5.761   2.858  0.3018  0.5214  0.0963
 4907SOL    HW115315   6.017   5.813   2.928 -1.4474  0.3993  1.1529
 4907SOL    HW215316   6.016   5.798   2.777  2.1930  0.7668  1.0445
 4908SOL     OW15317   5.652   2.793   4.688  0.5780 -0.4315  0.1948
 4908SOL    HW115318   5.592   2.792   4.613  0.6799 -0.7113  0.1148
 4908SOL    HW215319   5.702   2.712   4.679 -0.8011 -1.4822  1.7098
 4909SOL     OW15320   3.959   2.477   6.506  0.1115 -0.0713  0.0109
 4909SOL    HW115321   3.915   2.552   6.467  0.9637  0.6363  0.4244
 4909SOL    HW215322   3.963   2.497   6.599 -2.2556 -1.9137  0.5851
 4910SOL     OW15323   2.840   3.515   1.984 -0.1835 -0.1629  0.3242
 4910SOL    HW115324   2.839   3.452   2.056  1.1116 -0.1405  0.3740
 4910SOL    HW215325   2.870   3.597   2.024  0.9758 -0.2617 -0.3170
 4911SOL     OW15326   1.681   3.186   3.892 -0.0615 -0.2163  0.2225
 4911SOL    HW115327   1.724   3.228   3.966 -0.7609 -0.2582  0.6619
 4911SOL    HW215328   1.662   3.097   3.923 -0.9677 -0.0255  0.2443
 4912SOL     OW15329   4.135   1.201   4.246  0.1577 -0.2616 -0.5976
 4912SOL    HW115330   4.223   1.163   4.248  1.0327  1.7358 -1.0512
 4912SOL    HW215331   4.113   1.214   4.338  0.7740  0.2605 -0.5249
 4913SOL     OW15332   0.389   4.372   3.058  0.0094 -0.7102  0.2935
 4913SOL    HW115333   0.425   4.308   2.996 -0.4026  0.5391 -1.2808
 4913SOL    HW215334   0.459   4.437   3.067  0.1404 -0.9895  1.3076
 4914SOL     OW15335   1.809   6.522   3.995  0.1949  0.1711 -0.9873
 4914SOL    HW115336   1.846   6.610   3.988 -0.1095  0.2482 -1.6469
 4914SOL    HW215337   1.827   6.482   3.911  0.8478 -0.6077 -0.4836
 4915SOL     OW15338   6.026   6.668   6.343 -0.3542  0.5037  0.1401
 4915SOL    HW115339   5.971   6.699   6.415  0.6307  0.9375  0.7140
 4915SOL    HW215340   5.977   6.690   6.264 -2.1900 -1.3711  0.6936
 4916SOL     OW15341   5.872   4.483   6.329  0.2927  0.0712  0.0565
 4916SOL    HW115342   5.939   4.506   6.394  0.9746 -1.1070 -0.2065
 4916SOL    HW215343   5.904   4.401   6.291 -1.5572 -0.7637  0.2768
 4917SOL     OW15344   6.901   4.408   6.195  0.2233  0.3057 -0.3415
 4917SOL    HW115345   6.958   4.456   6.135 -0.6750  0.1094 -1.3584
 4917SOL    HW215346   6.872   4.473   6.258 -0.0152  0.8434 -0.9997
 4918SOL     OW15347   4.009   2.569   4.788 -0.5715 -0.7214 -0.3887
 4918SOL    HW115348   3.950   2.558   4.714 -0.6276  0.4371 -0.5246
 4918SOL    HW215349   3.951   2.578   4.864 -0.5498 -0.2118 -0.4350
 4919SOL     OW15350   6.352   1.952   5.002  0.6456 -0.9179 -0.6366
 4919SOL    HW115351   6.301   1.874   4.980 -0.5098 -0.1804 -0.6155
 4919SOL    HW215352   6.308   1.989   5.078  0.0983  0.7433 -1.7439
 4920SOL     OW15353   4.184   2.096   5.511 -0.0792  0.0704  0.2052
 4920SOL    HW115354   4.100   2.121   5.549  0.6223  1.5677  0.8308
 4920SOL    HW215355   4.161   2.048   5.431 -1.5348  1.8463 -0.4883
 4921SOL     OW15356   1.102   4.779   2.393 -0.1234  0.8240 -0.1484
 4921SOL    HW115357   1.098   4.746   2.303  1.0728  0.0051  0.0952
 4921SOL    HW215358   1.018   4.755   2.431 -0.3484  0.5265 -0.8244
 4922SOL     OW15359   2.393   6.001   3.221  0.0527 -0.1960 -0.5880
 4922SOL    HW115360   2.426   5.923   3.265  0.0585  0.9886  1.6057
 4922SOL    HW215361   2.470   6.038   3.177  0.0467 -1.4040 -1.6263
 4923SOL     OW15362   1.426   1.358   1.180  0.9735 -0.4530  0.3373
 4923SOL    HW115363   1.509   1.333   1.141  0.9441 -0.8342  0.5213
 4923SOL    HW215364   1.446   1.435   1.233  0.3939  2.1858 -3.1015
 4924SOL     OW15365   6.404   0.122   6.475  0.1905 -0.1996  0.4392
 4924SOL    HW115366   6.445   0.207   6.457 -0.0484  0.2427  1.9511
 4924SOL    HW215367   6.343   0.109   6.403  1.2929  0.2200 -0.5919
 4925SOL     OW15368   4.037   4.727   6.292 -0.2512 -0.4563 -0.1925
 4925SOL    HW115369   4.003   4.786   6.224  0.5115 -2.1334 -2.0665
 4925SOL    HW215370   4.076   4.786   6.357  0.0049  1.1425 -1.7507
 4926SOL     OW15371   3.389   4.843   2.975  0.1311 -0.6016 -0.1728
 4926SOL    HW115372   3.407   4.919   2.919  0.6691  1.3262  2.5206
 4926SOL    HW215373   3.293   4.836   2.974  0.0036  0.8039  0.4098
 4927SOL     OW15374   2.453   5.527   5.520 -0.4619  0.1244  0.6005
 4927SOL    HW115375   2.409   5.572   5.592  0.6410  1.9269  0.1681
 4927SOL    HW215376   2.383   5.478   5.476 -1.8382  2.0429  0.5984
 4928SOL     OW15377   2.464   1.129   0.548 -0.4020  0.2901 -0.4023
 4928SOL    HW115378   2.375   1.149   0.577 -0.5802  0.2800 -0.9385
 4928SOL    HW215379   2.516   1.205   0.574 -0.5820  0.3286 -0.1581
 4929SOL     OW15380   5.096   5.186   4.704 -0.0871 -0.8173 -0.3383
 4929SOL    HW115381   5.032   5.153   4.640  0.4626 -0.4593 -1.0798
 4929SOL    HW215382   5.168   5.124   4.699  1.1056  0.6437 -1.9904
 4930SOL     OW15383   6.606   1.652   6.580  0.1969 -0.4715 -0.2069
 4930SOL    HW115384   6.512   1.635   6.583  0.1447 -0.3355 -0.9406
 4930SOL    HW215385   6.615   1.720   6.513  0.7493 -0.0302  0.3131
 4931SOL     OW15386   6.381   4.168   7.038 -0.3637  0.2404  1.0994
 4931SOL    HW115387   6.287   4.178   7.022 -0.2903 -0.1442  0.4094
 4931SOL    HW215388   6.403   4.238   7.099 -0.3892  2.6259 -1.5390
 4932SOL     OW15389   3.819   2.096   6.327  0.3970 -0.2713 -0.4233
 4932SOL    HW115390   3.892   2.046   6.291  0.3508  0.0084 -0.9115
 4932SOL    HW215391   3.811   2.172   6.269 -0.6199 -0.5778 -0.6940
 4933SOL     OW15392   0.074   5.569   2.716 -0.7444 -0.5598 -0.5417
 4933SOL    HW115393   0.012   5.496   2.719 -0.8820 -0.4161  0.3708
 4933SOL    HW215394   0.089   5.584   2.623 -3.1535  0.2960 -0.8430
 4934SOL     OW15395   4.995   1.117   0.396  0.7542 -0.5051  0.2685
 4934SOL    HW115396   4.917   1.126   0.450  0.9681 -0.5282  0.5831
 4934SOL    HW215397   5.006   1.204   0.356  1.1377 -0.2086  1.0048
 4935SOL     OW15398   6.918   4.673   4.401 -0.2362 -0.1345 -0.0025
 4935SOL    HW115399   6.843   4.668   4.343  0.5655  1.5891 -1.2512
 4935SOL    HW215400   6.959   4.587   4.395 -0.0521  0.0725 -2.1885
 4936SOL     OW15401   6.257   2.261   0.828 -0.3476 -0.1982 -0.4676
 4936SOL    HW115402   6.166   2.271   0.857 -0.1811 -1.1486  0.4404
 4936SOL    HW215403   6.253   2.189   0.765  0.0690 -1.6593  1.1300
 4937SOL     OW15404   3.687   4.633   5.267 -0.1153  0.3442 -0.1260
 4937SOL    HW115405   3.756   4.567   5.275 -0.1406  0.4062  0.7058
 4937SOL    HW215406   3.657   4.626   5.177  0.1471 -0.5201 -0.1521
 4938SOL     OW15407   4.535   7.169   4.719 -0.0997  0.9903 -0.0877
 4938SOL    HW115408   4.583   7.101   4.765 -1.2310  0.4813  0.3729
 4938SOL    HW215409   4.546   7.147   4.626  0.5126  0.8579  0.0151
 4939SOL     OW15410   2.371   5.163   3.899  0.0848  0.2407 -0.2667
 4939SOL    HW115411   2.466   5.154   3.894  0.4301  3.2359  0.2930
 4939SOL    HW215412   2.353   5.188   3.989 -1.0134  1.7507 -0.8672
 4940SOL     OW15413   0.856   4.004   2.561 -0.1357 -0.7800  0.1383
 4940SOL    HW115414   0.782   4.014   2.502 -0.6462  1.6648  1.1253
 4940SOL    HW215415   0.877   4.093   2.589  2.1579 -1.5780  1.1245
 4941SOL     OW15416   0.345   6.444   1.377  0.1282 -0.3260 -0.0428
 4941SOL    HW115417   0.432   6.438   1.339 -0.2241  0.0755 -0.9148
 4941SOL    HW215418   0.297   6.502   1.319 -1.4791 -2.5082 -0.9832
 4942SOL     OW15419   5.398   5.131   1.086  0.0778  0.6685 -0.3684
 4942SOL    HW115420   5.400   5.070   1.160 -0.2188  0.2973 -0.6626
 4942SOL    HW215421   5.448   5.087   1.017 -0.9914  0.2971 -0.9281
 4943SOL     OW15422   0.595   1.946   4.288  0.5471  0.8284  0.2133
 4943SOL    HW115423   0.573   1.862   4.249  0.6496  0.3178  1.2362
 4943SOL    HW215424   0.690   1.942   4.303  0.6673  1.3940 -0.3526
 4944SOL     OW15425   3.843   4.600   3.678  0.2539 -0.8144 -0.0769
 4944SOL    HW115426   3.868   4.692   3.671 -1.6749 -0.3719 -2.1855
 4944SOL    HW215427   3.763   4.601   3.730 -0.4955 -1.1095 -1.1898
 4945SOL     OW15428   1.209   6.281   4.213 -0.2030 -0.5080  0.2827
 4945SOL    HW115429   1.298   6.313   4.227 -0.2297  1.4928 -3.3217
 4945SOL    HW215430   1.210   6.245   4.124 -3.1627  0.3676 -0.1877
 4946SOL     OW15431   1.203   4.975   3.523  0.4584 -0.1201  0.1309
 4946SOL    HW115432   1.273   4.924   3.563  1.0528  0.5556 -0.0210
 4946SOL    HW215433   1.123   4.925   3.539  0.9521 -0.7909  0.4941
 4947SOL     OW15434   2.385   5.155   6.982  0.0022  0.3920  0.0900
 4947SOL    HW115435   2.401   5.227   6.922  1.1038  0.8276  0.9004
 4947SOL    HW215436   2.471   5.113   6.992 -0.8198 -1.7161 -1.2373
 4948SOL     OW15437   1.066   5.740   1.185 -0.1995  0.2966  0.7270
 4948SOL    HW115438   1.148   5.789   1.190 -0.5182  1.0638 -1.3599
 4948SOL    HW215439   0.998   5.807   1.191 -0.6657 -0.1738  0.7076
 4949SOL     OW15440   0.974   1.892   6.917  0.5137 -0.3179 -0.2396
 4949SOL    HW115441   0.984   1.822   6.853 -0.9179 -0.7873  0.0218
 4949SOL    HW215442   0.880   1.892   6.938  0.7049  0.8569  0.6868
 4950SOL     OW15443   6.578   3.774   2.970 -0.0300 -0.3192  0.8687
 4950SOL    HW115444   6.609   3.743   3.055  1.0232  1.4171  1.1593
 4950SOL    HW215445   6.540   3.697   2.928 -0.3881 -1.2487  2.8245
 4951SOL     OW15446   3.882   4.542   1.311  0.1474  0.0716 -0.1055
 4951SOL    HW115447   3.823   4.469   1.327 -0.4490  0.3136 -1.1171
 4951SOL    HW215448   3.880   4.594   1.391 -2.0438  0.7878 -0.5780
 4952SOL     OW15449   6.656   6.232   4.912 -0.4928  0.2183  0.3047
 4952SOL    HW115450   6.583   6.170   4.906 -0.5506  0.1476  1.6148
 4952SOL    HW215451   6.684   6.245   4.821  0.2419 -2.5944  0.0681
 4953SOL     OW15452   4.702   6.367   5.150  0.4371  0.0682  0.2824
 4953SOL    HW115453   4.784   6.344   5.106  0.3180 -0.6755  0.4507
 4953SOL    HW215454   4.702   6.463   5.150  0.6830  0.0849 -0.8917
 4954SOL     OW15455   5.129   4.464   2.746  0.1371  0.2478 -0.3296
 4954SOL    HW115456   5.097   4.445   2.658 -0.8238  0.7073 -0.0856
 4954SOL    HW215457   5.224   4.450   2.741 -0.0371 -0.6582 -1.1834
 4955SOL     OW15458   4.458   3.071   5.140 -0.3051 -0.6257  0.0126
 4955SOL    HW115459   4.509   3.065   5.221 -1.4846  2.4532  1.0824
 4955SOL    HW215460   4.505   3.135   5.086 -0.5402 -1.2344 -0.9266
 4956SOL     OW15461   4.325   3.604   5.795  0.3627 -0.2306 -0.1757
 4956SOL    HW115462   4.391   3.652   5.746 -0.0392  1.1231  0.5636
 4956SOL    HW215463   4.355   3.607   5.886 -0.4639  0.0190  0.1032
 4957SOL     OW15464   3.743   5.697   1.748 -0.5392  0.1931  0.0438
 4957SOL    HW115465   3.774   5.704   1.658  0.2812 -0.8435  0.2254
 4957SOL    HW215466   3.676   5.629   1.746  0.1924 -0.5645  0.3642
 4958SOL     OW15467   5.759   0.519   3.460 -0.2934 -0.2914 -0.1867
 4958SOL    HW115468   5.814   0.520   3.538 -2.8968 -0.9543  1.7296
 4958SOL    HW215469   5.697   0.591   3.474 -0.4633 -0.0852 -1.9089
 4959SOL     OW15470   4.708   4.262   3.364  0.0342 -0.3206 -0.0166
 4959SOL    HW115471   4.760   4.191   3.402 -0.5082 -1.0986 -0.6919
 4959SOL    HW215472   4.672   4.224   3.284  0.8240  1.1659 -1.0820
 4960SOL     OW15473   2.952   1.324   1.163 -0.1762  0.5056 -0.0765
 4960SOL    HW115474   2.943   1.371   1.246 -0.3540 -0.1089  0.2590
 4960SOL    HW215475   3.026   1.265   1.178  0.1037  0.7412 -0.5253
 4961SOL     OW15476   1.887   6.520   1.970 -0.0361 -0.3396  0.2656
 4961SOL    HW115477   1.903   6.435   1.929  1.1567 -0.3078  0.6476
 4961SOL    HW215478   1.856   6.576   1.899 -1.3409 -1.2297  0.1124
 4962SOL     OW15479   1.421   3.989   0.540 -0.4114  0.2136  0.0516
 4962SOL    HW115480   1.437   3.907   0.587  0.2312 -0.2966 -1.0366
 4962SOL    HW215481   1.368   3.963   0.465  0.3464  0.7007 -0.6523
 4963SOL     OW15482   4.504   5.830   5.271 -0.3438 -0.5356 -0.2283
 4963SOL    HW115483   4.438   5.879   5.320  1.2606  1.4422  0.0090
 4963SOL    HW215484   4.465   5.817   5.185 -0.8814  1.0269 -0.2387
 4964SOL     OW15485   3.416   6.621   5.934 -0.4126  0.3021 -0.5437
 4964SOL    HW115486   3.406   6.574   5.852 -0.2427 -1.2020  0.2732
 4964SOL    HW215487   3.330   6.616   5.975 -0.5871  1.3395 -0.7853
 4965SOL     OW15488   1.751   4.108   3.948 -0.8358  0.4021  0.1588
 4965SOL    HW115489   1.823   4.150   3.994 -1.0937  1.0597 -0.0335
 4965SOL    HW215490   1.754   4.145   3.860 -1.2742  0.2729  0.0884
 4966SOL     OW15491   6.949   4.817   7.057  0.3113  0.6805  0.2179
 4966SOL    HW115492   6.955   4.771   7.141  3.2314  0.4798 -0.0433
 4966SOL    HW215493   6.956   4.747   6.991 -1.4359  0.8944 -0.2283
 4967SOL     OW15494   5.321   4.010   0.349  0.1051  0.1847 -0.1429
 4967SOL    HW115495   5.370   3.927   0.350  0.4960  0.4152  0.0435
 4967SOL    HW215496   5.373   4.069   0.404  2.3000  1.9308 -3.8561
 4968SOL     OW15497   1.182   1.313   6.669  0.0281  0.0085 -0.2159
 4968SOL    HW115498   1.098   1.274   6.690  0.0283 -0.5336 -1.1983
 4968SOL    HW215499   1.206   1.362   6.748 -0.5453 -0.9657  0.5728
 4969SOL     OW15500   3.951   0.446   4.531 -0.1447  0.0838 -0.5880
 4969SOL    HW115501   4.007   0.415   4.459 -1.5356 -0.7886 -1.3148
 4969SOL    HW215502   4.011   0.492   4.589  1.0790  0.5268 -2.1468
 4970SOL     OW15503   5.673   2.475   6.629  0.0486 -0.2917 -0.0510
 4970SOL    HW115504   5.674   2.558   6.582 -0.5270 -0.7640 -0.9238
 4970SOL    HW215505   5.724   2.491   6.708 -0.1924  0.9392 -0.1294
 4971SOL     OW15506   2.283   2.202   5.896 -0.2224  0.1868  0.0412
 4971SOL    HW115507   2.215   2.224   5.960  0.5057  2.6621  0.0140
 4971SOL    HW215508   2.351   2.267   5.911  1.0037 -0.6669 -1.7007
 4972SOL     OW15509   6.655   3.113   6.763  0.2123  0.8104  0.4693
 4972SOL    HW115510   6.744   3.080   6.746  0.0135  0.7742 -0.5433
 4972SOL    HW215511   6.649   3.192   6.710 -0.4346  0.6926  0.3699
 4973SOL     OW15512   1.172   0.001   1.702  0.1132 -0.3859  0.1067
 4973SOL    HW115513   1.224   0.081   1.709  1.4911 -1.2030 -0.6603
 4973SOL    HW215514   1.140  -0.015   1.791 -1.1574  1.6589  0.0438
 4974SOL     OW15515   0.866   3.455   0.328  0.0381 -0.2169  0.0027
 4974SOL    HW115516   0.925   3.392   0.370  1.5435  0.7245 -0.6264
 4974SOL    HW215517   0.789   3.404   0.304 -0.0232 -1.1774  2.1490
 4975SOL     OW15518   6.416   0.279   3.328 -0.4259 -0.4800  0.0777
 4975SOL    HW115519   6.352   0.213   3.300 -1.9075  0.8865  0.1591
 4975SOL    HW215520   6.363   0.356   3.349  1.4094  1.3716 -1.8561
 4976SOL     OW15521   1.758   4.464   2.000 -0.0804 -0.2547 -0.2263
 4976SOL    HW115522   1.845   4.458   1.961  0.1220  0.2965  0.1282
 4976SOL    HW215523   1.716   4.537   1.953 -0.1992 -0.2501 -0.1147
 4977SOL     OW15524   5.969   5.268   5.960  0.3952  0.0104 -0.2445
 4977SOL    HW115525   5.937   5.357   5.971  0.4245  0.0359 -0.3616
 4977SOL    HW215526   5.890   5.214   5.957  0.3728  0.0458 -0.2893
 4978SOL     OW15527   6.557   6.270   5.191  0.1434 -0.1847 -0.2150
 4978SOL    HW115528   6.509   6.235   5.116  1.4817 -0.9015 -0.7568
 4978SOL    HW215529   6.560   6.197   5.253 -0.4237  0.2133  0.2854
 4979SOL     OW15530   5.478   5.681   1.596 -1.1098 -0.3903  0.0375
 4979SOL    HW115531   5.414   5.735   1.643 -0.0196  1.8314 -0.9744
 4979SOL    HW215532   5.562   5.702   1.636 -0.5235 -0.4604 -1.1451
 4980SOL     OW15533   4.955   6.765   4.081  0.3910  0.5425  0.7490
 4980SOL    HW115534   4.971   6.679   4.121 -0.7223 -0.0659 -0.1015
 4980SOL    HW215535   4.984   6.755   3.990 -2.3197  0.2121 -0.1112
 4981SOL     OW15536   1.288   6.665   1.235  0.0470 -0.2552 -0.1762
 4981SOL    HW115537   1.377   6.697   1.224  0.1132 -0.3829 -0.0186
 4981SOL    HW215538   1.298   6.574   1.262 -0.1286 -0.2339 -0.0346
 4982SOL     OW15539   0.294   3.387   4.003 -0.2272  0.0430  0.2358
 4982SOL    HW115540   0.298   3.428   3.916  1.3946 -0.1003  0.2191
 4982SOL    HW215541   0.319   3.296   3.987 -1.8155 -0.4640  0.5773
 4983SOL     OW15542   6.341   1.156   4.455 -0.0674 -0.5257 -0.4059
 4983SOL    HW115543   6.392   1.210   4.516 -0.7287  2.1756 -2.1250
 4983SOL    HW215544   6.359   1.195   4.370 -4.8981  0.5107 -1.0793
 4984SOL     OW15545   0.053   1.506   3.317 -0.1473  0.8187  0.4519
 4984SOL    HW115546   0.142   1.474   3.333  0.9163  3.3562 -0.1747
 4984SOL    HW215547   0.050   1.523   3.223 -1.5646  0.0192  0.3412
 4985SOL     OW15548   0.362   2.064   4.350  0.3521 -0.2586  0.0310
 4985SOL    HW115549   0.350   2.130   4.282  0.0915  1.3284  1.5745
 4985SOL    HW215550   0.447   2.025   4.332 -0.4141 -0.9820 -2.1295
 4986SOL     OW15551   2.308   2.730   0.855  0.8526  0.0160 -0.0231
 4986SOL    HW115552   2.301   2.674   0.778 -0.7357 -0.0309  0.1428
 4986SOL    HW215553   2.256   2.807   0.833  3.4242  1.6775 -0.4504
 4987SOL     OW15554   0.317   2.026   6.946 -0.0930  0.1229  0.2375
 4987SOL    HW115555   0.351   1.943   6.979  1.0171  0.2813 -0.4770
 4987SOL    HW215556   0.334   2.088   7.016  0.9441  0.1602 -0.0342
 4988SOL     OW15557   1.565   0.442   3.187 -0.1973  0.1760 -0.2283
 4988SOL    HW115558   1.573   0.451   3.092  0.7442 -2.9946 -0.5030
 4988SOL    HW215559   1.646   0.478   3.222 -0.1107  0.4309 -0.6889
 4989SOL     OW15560   6.813   5.996   3.321  0.1608  0.3166 -0.1739
 4989SOL    HW115561   6.893   5.951   3.297  0.7789  1.9042 -1.1786
 4989SOL    HW215562   6.743   5.947   3.278  0.5790 -1.0466  0.6738
 4990SOL     OW15563   2.124   5.054   0.491 -0.4536  0.5525 -0.3689
 4990SOL    HW115564   2.093   5.121   0.431  0.2427 -0.9550 -2.4503
 4990SOL    HW215565   2.220   5.060   0.488 -0.4142  1.1554  1.4014
 4991SOL     OW15566   1.961   1.834   6.144  0.0731 -0.0683  0.2785
 4991SOL    HW115567   1.968   1.739   6.158  0.5580  0.2398  2.2224
 4991SOL    HW215568   2.049   1.861   6.119 -0.2779 -0.2590 -1.2195
 4992SOL     OW15569   2.861   2.486   1.191 -0.1407 -0.2380  0.8028
 4992SOL    HW115570   2.930   2.438   1.238 -0.9495 -0.6390  1.6075
 4992SOL    HW215571   2.796   2.419   1.169 -0.8357  0.3337  1.1052
 4993SOL     OW15572   6.478   1.612   3.967  0.4940 -0.7667 -0.4442
 4993SOL    HW115573   6.402   1.587   3.914  0.5244  0.2283 -0.9602
 4993SOL    HW215574   6.526   1.675   3.914  1.3635 -0.9229  0.1303
 4994SOL     OW15575   6.777   6.382   3.943 -0.1971 -0.3022 -0.4247
 4994SOL    HW115576   6.799   6.307   3.888 -1.1891 -0.5238 -0.5409
 4994SOL    HW215577   6.826   6.369   4.024  0.4200 -0.5451 -0.8376
 4995SOL     OW15578   1.334   1.574   3.720  0.0870  0.1570  0.0245
 4995SOL    HW115579   1.376   1.548   3.802 -1.1510  0.3645  0.7302
 4995SOL    HW215580   1.266   1.636   3.746 -0.9573 -0.5066 -1.0528
 4996SOL     OW15581   3.894   6.652   4.726  0.2147 -0.5411 -0.1930
 4996SOL    HW115582   3.824   6.589   4.744  0.0873 -0.4772 -0.4683
 4996SOL    HW215583   3.876   6.684   4.638 -0.1902  0.4961  0.2573
 4997SOL     OW15584   0.549   0.013   1.442  0.0519  0.0455  1.1000
 4997SOL    HW115585   0.511  -0.075   1.445  1.3407 -0.5395  0.4101
 4997SOL    HW215586   0.506   0.055   1.368  2.1716 -1.3034 -0.9579
 4998SOL     OW15587   4.906   2.265   6.128 -0.1387 -0.3365  0.0292
 4998SOL    HW115588   4.888   2.175   6.155 -0.0286 -0.6645 -0.9792
 4998SOL    HW215589   4.993   2.284   6.163 -0.1783 -0.6078  0.2712
 4999SOL     OW15590   5.955   0.819   5.248 -0.5116 -0.4460 -0.0078
 4999SOL    HW115591   5.863   0.823   5.274 -0.1517  2.3775  0.9718
 4999SOL    HW215592   5.975   0.726   5.245 -2.8291 -1.0426  1.8298
 5000SOL     OW15593   6.428   0.095   2.801  0.3337  0.0538  0.2645
 5000SOL    HW115594   6.464   0.180   2.775 -2.2955  1.1560  0.0474
 5000SOL    HW215595   6.407   0.052   2.718  2.0215 -1.0161  0.3617
 5001SOL     OW15596   0.742   2.304   2.701  0.0965 -0.1578  0.0580
 5001SOL    HW115597   0.828   2.293   2.661 -0.9791 -1.8122 -1.9071
 5001SOL    HW215598   0.689   2.347   2.633 -0.7140  0.6290  1.1586
 5002SOL     OW15599   3.027   1.616   5.114 -0.3797 -1.0313  0.1477
 5002SOL    HW115600   3.060   1.627   5.203 -2.0236  0.4849  0.5907
 5002SOL    HW215601   3.085   1.670   5.060 -0.9054  0.0452  0.6494
 5003SOL     OW15602   5.423   4.400   3.584  0.3451 -0.3707  0.1676
 5003SOL    HW115603   5.449   4.310   3.562  0.9920 -0.7589  2.4376
 5003SOL    HW215604   5.493   4.455   3.548  0.4822 -0.8473 -0.3007
 5004SOL     OW15605   6.953   4.967   6.662  0.5828  0.4455  0.3052
 5004SOL    HW115606   7.024   5.028   6.680  0.7224  0.6024 -0.7532
 5004SOL    HW215607   6.875   5.010   6.694  0.5840  1.4905 -1.0363
 5005SOL     OW15608   1.737   5.197   4.382 -0.1425  0.0754  0.8625
 5005SOL    HW115609   1.675   5.239   4.441 -0.0494  0.0815  0.9574
 5005SOL    HW215610   1.692   5.193   4.297 -0.6028 -0.7045  1.1347
 5006SOL     OW15611   4.317   4.680   5.691  0.4871  0.1790 -0.3917
 5006SOL    HW115612   4.273   4.705   5.771 -2.1449  0.8767 -2.0092
 5006SOL    HW215613   4.276   4.597   5.665  2.6203 -1.0298 -0.0689
 5007SOL     OW15614   0.717   5.411   0.862  0.3799  0.0982 -0.2975
 5007SOL    HW115615   0.651   5.354   0.901  2.7290 -2.3310  0.2327
 5007SOL    HW215616   0.747   5.466   0.934  0.3887 -0.1709 -0.0968
 5008SOL     OW15617   1.256   4.012   0.893 -0.8467  0.0854 -0.1773
 5008SOL    HW115618   1.312   4.069   0.841  0.4289  0.9050  2.0129
 5008SOL    HW215619   1.205   4.072   0.948 -2.5084 -0.7355 -0.7767
 5009SOL     OW15620   0.985   4.772   3.528 -0.5160 -0.0491  0.5257
 5009SOL    HW115621   0.974   4.715   3.604 -2.4479  1.5036  1.4580
 5009SOL    HW215622   0.979   4.713   3.453  1.8803 -1.6796  1.5297
 5010SOL     OW15623   6.906   6.147   3.860 -0.1216  0.6409 -0.1614
 5010SOL    HW115624   6.872   6.115   3.777  1.0673  1.7752 -1.1089
 5010SOL    HW215625   6.985   6.197   3.837 -0.0701  1.4315  1.5817
 5011SOL     OW15626   0.905   1.458   4.236  0.4371 -0.6259 -0.3528
 5011SOL    HW115627   0.908   1.474   4.331 -0.3151 -0.0665 -0.4169
 5011SOL    HW215628   0.812   1.446   4.217  0.3411  1.4307 -1.3555
 5012SOL     OW15629   1.517   2.852   5.203  0.2504  0.1704  0.3409
 5012SOL    HW115630   1.570   2.842   5.282  0.4045  0.4771  0.2784
 5012SOL    HW215631   1.467   2.932   5.218 -1.4299 -0.9992  1.1072
 5013SOL     OW15632   5.303   0.398   6.033  0.0286 -0.1239  0.2822
 5013SOL    HW115633   5.248   0.440   5.967  0.2110  1.8511  1.3707
 5013SOL    HW215634   5.374   0.358   5.982  0.1565  1.3579 -0.7429
 5014SOL     OW15635   4.011   0.921   2.397  0.2501  0.4095 -0.5308
 5014SOL    HW115636   3.925   0.961   2.393  0.6774  1.3891  0.1063
 5014SOL    HW215637   4.066   0.975   2.340  0.3283 -0.5115 -1.3463
 5015SOL     OW15638   6.873   5.910   4.300 -0.1169 -0.0097 -0.0898
 5015SOL    HW115639   6.876   5.924   4.205  0.3118 -0.8746 -0.2088
 5015SOL    HW215640   6.823   5.984   4.333 -0.7662 -0.0040 -1.0547
 5016SOL     OW15641   5.008   0.058   0.319  0.2625 -0.0776 -0.1745
 5016SOL    HW115642   5.031   0.150   0.329 -1.7695  0.3526  0.9615
 5016SOL    HW215643   5.048   0.015   0.395 -1.2563  0.3976  0.9245
 5017SOL     OW15644   5.768   1.709   2.679 -0.0056  0.4288  0.3769
 5017SOL    HW115645   5.786   1.629   2.630 -2.5027  0.0875 -0.0242
 5017SOL    HW215646   5.810   1.778   2.628 -0.3968 -0.2491 -0.8772
 5018SOL     OW15647   3.236   2.362   4.749 -0.7749 -0.3964 -0.0266
 5018SOL    HW115648   3.208   2.424   4.682  1.8955  1.2601  0.3203
 5018SOL    HW215649   3.168   2.366   4.816 -0.4904  2.4148  0.1411
 5019SOL     OW15650   6.318   4.568   2.202 -0.1473 -1.0011  0.2799
 5019SOL    HW115651   6.321   4.635   2.271 -0.3796 -0.9321  0.2222
 5019SOL    HW215652   6.314   4.618   2.120 -1.4622 -1.0790  0.2823
 5020SOL     OW15653   3.993   0.846   4.491 -0.0983  0.4228  0.3240
 5020SOL    HW115654   4.072   0.798   4.517 -1.1626  0.2733  3.5137
 5020SOL    HW215655   4.012   0.937   4.514 -0.9955  0.3132  1.5622
 5021SOL     OW15656   6.830   6.541   5.443 -0.3566 -0.3146  0.2219
 5021SOL    HW115657   6.926   6.541   5.447 -0.3490 -1.1019  0.0193
 5021SOL    HW215658   6.804   6.605   5.510  0.3059 -0.1233  0.3042
 5022SOL     OW15659   0.507   5.423   3.294  0.2738  0.0816  0.0603
 5022SOL    HW115660   0.460   5.468   3.364  1.1506 -0.8643  1.2837
 5022SOL    HW215661   0.565   5.489   3.257  2.5936 -0.3569  2.7876
 5023SOL     OW15662   5.419   1.719   5.532 -0.0107 -0.1005 -0.4447
 5023SOL    HW115663   5.446   1.631   5.560 -1.6920 -0.6415 -0.4349
 5023SOL    HW215664   5.334   1.732   5.575 -1.3564  0.1574 -3.1007
 5024SOL     OW15665   4.962   2.599   6.048  0.1046 -0.2807  0.9274
 5024SOL    HW115666   4.976   2.542   5.972  0.8273  1.3755 -0.2051
 5024SOL    HW215667   5.025   2.670   6.037 -1.4057  1.2251  1.8460
 5025SOL     OW15668   2.313   6.570   4.621 -0.2810 -0.1243 -0.1181
 5025SOL    HW115669   2.348   6.514   4.690  0.6382  1.1746  0.4949
 5025SOL    HW215670   2.322   6.659   4.655 -2.0283  0.3911 -0.9333
 5026SOL     OW15671   7.073   6.210   2.393  0.3012 -0.1597 -0.5043
 5026SOL    HW115672   7.009   6.145   2.367 -0.6329  0.4750  0.1695
 5026SOL    HW215673   7.144   6.160   2.433  0.1370 -0.8469 -1.0756
 5027SOL     OW15674   0.510   5.724   2.697  0.1640 -0.7717 -0.3511
 5027SOL    HW115675   0.568   5.681   2.760  0.3942  0.1652  0.0934
 5027SOL    HW215676   0.429   5.740   2.747 -0.1460 -1.2475 -0.6977
 5028SOL     OW15677   6.985   7.179   3.219  0.2004 -0.1333  0.3057
 5028SOL    HW115678   7.022   7.152   3.134  1.5063  1.0445  0.4823
 5028SOL    HW215679   6.933   7.256   3.198  1.1965  0.6577  0.6824
 5029SOL     OW15680   4.974   1.612   6.516 -0.7035  0.1106 -0.1196
 5029SOL    HW115681   5.009   1.529   6.550 -0.1756  1.0202  1.6168
 5029SOL    HW215682   4.882   1.612   6.542 -0.5558  0.3357  0.4056
 5030SOL     OW15683   3.499   3.323   2.352 -0.0119 -0.8630  0.0913
 5030SOL    HW115684   3.498   3.253   2.287  0.2145  0.5722 -1.4954
 5030SOL    HW215685   3.406   3.343   2.368 -0.1064 -2.1505  1.2797
 5031SOL     OW15686   2.682   6.751   7.104 -0.4420  0.8810 -0.2637
 5031SOL    HW115687   2.657   6.709   7.022  1.3661 -1.2462  0.2137
 5031SOL    HW215688   2.650   6.692   7.173  1.6865  0.4833  0.4302
 5032SOL     OW15689   0.991   3.767   5.234  0.1799 -0.1023 -0.6604
 5032SOL    HW115690   0.907   3.723   5.229 -0.2215  0.4685  0.6581
 5032SOL    HW215691   1.009   3.774   5.328  1.3600  0.4127 -0.9078
 5033SOL     OW15692   0.152   2.391   1.683  0.0690 -0.2214  0.2246
 5033SOL    HW115693   0.229   2.378   1.628 -0.4670 -0.0656 -0.5728
 5033SOL    HW215694   0.121   2.479   1.661  0.3576  0.1956  1.4205
 5034SOL     OW15695   6.167   3.093   0.102  0.1987 -0.0281 -0.5618
 5034SOL    HW115696   6.239   3.044   0.143  1.0939  2.3519  0.7942
 5034SOL    HW215697   6.205   3.126   0.021  0.0256 -0.3637 -0.7828
 5035SOL     OW15698   6.950   3.967   7.251 -0.1317  0.5606 -0.1514
 5035SOL    HW115699   7.020   4.021   7.287  0.1206  0.4989 -0.5543
 5035SOL    HW215700   6.994   3.907   7.191 -0.5130  0.4324 -0.3017
 5036SOL     OW15701   1.726   5.731   1.559 -0.2761  0.1297 -0.2922
 5036SOL    HW115702   1.716   5.748   1.465  1.6097  1.3364 -0.2959
 5036SOL    HW215703   1.818   5.707   1.569 -0.6481 -0.7343  1.1501
 5037SOL     OW15704   0.919   1.523   4.493  1.0392  0.0487  0.2819
 5037SOL    HW115705   0.974   1.600   4.508  1.5524 -0.1224 -0.6552
 5037SOL    HW215706   0.832   1.550   4.522  1.0962  1.1790 -0.5559
 5038SOL     OW15707   4.302   2.368   5.899 -0.2423 -0.4252 -0.1677
 5038SOL    HW115708   4.383   2.334   5.939 -0.4829  2.7231  3.2705
 5038SOL    HW215709   4.331   2.442   5.846 -0.8168  0.9468  1.3699
 5039SOL     OW15710   2.186   3.020   1.691 -0.1688 -0.0441 -0.1905
 5039SOL    HW115711   2.271   2.988   1.722 -0.8123  0.0757  1.7616
 5039SOL    HW215712   2.203   3.111   1.667  0.2842 -0.0380  0.1334
 5040SOL     OW15713   1.484   1.580   6.455 -0.1061  0.5803  0.0373
 5040SOL    HW115714   1.554   1.588   6.391 -0.3589  0.8228 -0.2078
 5040SOL    HW215715   1.513   1.510   6.514 -1.5189 -2.1423 -2.4187
 5041SOL     OW15716   0.699   2.326   4.293  0.0238 -0.4879 -0.4003
 5041SOL    HW115717   0.775   2.292   4.246  0.2401  0.3713 -0.6769
 5041SOL    HW215718   0.625   2.311   4.234 -0.1315 -1.9021  0.1305
 5042SOL     OW15719   2.178   0.321   0.310  0.3525 -0.6328  0.4650
 5042SOL    HW115720   2.160   0.407   0.273 -0.4177 -1.3932 -1.0169
 5042SOL    HW215721   2.176   0.334   0.405  0.6338  1.0424  0.2476
 5043SOL     OW15722   3.192   6.353   4.995  0.6979  0.7012  0.4952
 5043SOL    HW115723   3.202   6.270   4.949  2.2964  0.9149  0.4086
 5043SOL    HW215724   3.121   6.398   4.949 -0.8882 -1.0423  1.2071
 5044SOL     OW15725   6.138   5.184   3.630  0.0566  0.6175  0.0803
 5044SOL    HW115726   6.148   5.116   3.563  2.4337  1.8727 -0.8904
 5044SOL    HW215727   6.073   5.244   3.593  0.9759  1.0290 -0.9128
 5045SOL     OW15728   3.894   1.008   0.365 -0.0694  0.2508 -0.4877
 5045SOL    HW115729   3.904   1.100   0.389 -0.4765  1.0772 -3.3118
 5045SOL    HW215730   3.800   0.991   0.370 -0.0922  0.2537 -0.8988
 5046SOL     OW15731   2.878   5.801   1.236 -0.1637 -0.1386  0.2221
 5046SOL    HW115732   2.806   5.742   1.216 -1.3344  0.8445  1.4780
 5046SOL    HW215733   2.839   5.873   1.286  1.8076 -0.0426  1.7247
 5047SOL     OW15734   5.480   0.631   3.755 -0.0103 -0.0508  0.5622
 5047SOL    HW115735   5.568   0.666   3.742 -0.1544 -0.1382 -0.6493
 5047SOL    HW215736   5.483   0.594   3.844  1.7289 -1.6636 -0.1238
 5048SOL     OW15737   3.980   6.740   1.009 -0.2380  0.1448  0.0736
 5048SOL    HW115738   3.930   6.762   1.087 -0.0565  1.9317 -0.2906
 5048SOL    HW215739   4.071   6.752   1.034  0.0549 -3.0331  0.7136
 5049SOL     OW15740   2.611   6.156   6.084  0.2863 -0.7849  0.3388
 5049SOL    HW115741   2.693   6.202   6.095  1.5042 -2.9587  0.7446
 5049SOL    HW215742   2.572   6.192   6.005  2.1888 -0.5338 -0.4882
 5050SOL     OW15743   2.337   0.867   5.787  0.3687  0.0159 -0.2774
 5050SOL    HW115744   2.268   0.932   5.791  1.2294  0.8328  1.9961
 5050SOL    HW215745   2.363   0.853   5.878  1.9537 -1.6143 -0.9336
 5051SOL     OW15746   5.731   6.451   2.039  0.2830  0.4341  0.2850
 5051SOL    HW115747   5.820   6.480   2.060  1.6278 -2.2711 -1.3873
 5051SOL    HW215748   5.718   6.374   2.094  0.2898 -1.1421 -1.8508
 5052SOL     OW15749   7.078   4.081   5.478 -0.0515 -0.0698 -0.7779
 5052SOL    HW115750   7.086   4.024   5.554 -0.7945 -1.0051 -1.3922
 5052SOL    HW215751   7.141   4.046   5.415  1.2536  1.2743 -0.2685
 5053SOL     OW15752   6.231   2.100   6.638 -0.2361 -0.7537 -0.4893
 5053SOL    HW115753   6.301   2.058   6.688  0.3590  0.3007 -0.4264
 5053SOL    HW215754   6.258   2.091   6.547  0.8723  1.1952 -0.3780
 5054SOL     OW15755   6.438   5.469   0.262 -0.1797 -0.6307  0.1521
 5054SOL    HW115756   6.465   5.378   0.271  0.6994 -0.3737  0.1429
 5054SOL    HW215757   6.476   5.498   0.179  0.6792  0.1403  0.8048
 5055SOL     OW15758   6.147   2.491   0.603  0.2942 -0.2888 -0.3477
 5055SOL    HW115759   6.078   2.503   0.538  0.0382 -0.7454 -0.1567
 5055SOL    HW215760   6.105   2.510   0.686  0.4227 -0.4945 -0.2362
 5056SOL     OW15761   2.693   6.045   0.784  0.5015  0.0337 -0.2458
 5056SOL    HW115762   2.712   5.954   0.765 -2.4247 -1.0250  1.6626
 5056SOL    HW215763   2.653   6.079   0.704  1.2617 -0.4410 -0.8288
 5057SOL     OW15764   4.749   2.103   5.936  0.8105  0.1079  0.7341
 5057SOL    HW115765   4.839   2.133   5.948  1.0467 -0.9646  1.8725
 5057SOL    HW215766   4.756   2.007   5.938 -0.3127  0.0145  0.5132
 5058SOL     OW15767   5.495   5.554   2.827 -0.1615 -0.2429 -0.2459
 5058SOL    HW115768   5.542   5.478   2.862  0.0110 -0.1476 -0.2692
 5058SOL    HW215769   5.537   5.629   2.869 -1.1251 -0.2261  0.7059
 5059SOL     OW15770   0.622   6.798   2.509  0.1422  0.2488 -0.5758
 5059SOL    HW115771   0.623   6.703   2.522 -0.9038  0.0846 -1.6476
 5059SOL    HW215772   0.693   6.814   2.446 -1.4004 -0.1577 -2.4724
 5060SOL     OW15773   4.393   3.201   4.664  0.4397  0.1088  0.4225
 5060SOL    HW115774   4.345   3.186   4.746 -1.7546  1.6177 -0.5420
 5060SOL    HW215775   4.458   3.267   4.686  0.3857 -0.0704  1.1396
 5061SOL     OW15776   5.434   1.628   1.760  0.2490  0.0096  0.3408
 5061SOL    HW115777   5.490   1.590   1.693 -1.3714 -4.1782  1.1962
 5061SOL    HW215778   5.490   1.632   1.838  0.2895 -1.2805  0.3974
 5062SOL     OW15779   3.186   0.551   0.843  0.4121  0.2368 -0.1647
 5062SOL    HW115780   3.232   0.510   0.916 -0.4237 -0.6962 -0.1383
 5062SOL    HW215781   3.094   0.527   0.857  0.4325 -1.2584 -2.3581
 5063SOL     OW15782   1.962   5.063   6.546 -0.0034  0.2121 -0.6774
 5063SOL    HW115783   2.030   5.130   6.552 -1.2810  1.3726  1.5586
 5063SOL    HW215784   1.920   5.080   6.461  2.3039 -0.3760 -1.9619
 5064SOL     OW15785   4.817   5.240   0.251  0.3851 -0.2405  0.6686
 5064SOL    HW115786   4.824   5.329   0.216  1.2128 -0.6962 -0.3508
 5064SOL    HW215787   4.906   5.219   0.281  0.1448 -0.6427  1.1040
 5065SOL     OW15788   3.508   0.861   3.009 -0.2381  0.0914  0.0026
 5065SOL    HW115789   3.431   0.914   2.986  1.0173  1.5767 -0.8339
 5065SOL    HW215790   3.471   0.787   3.058 -2.0200  1.8585  1.4467
 5066SOL     OW15791   5.303   3.320   5.354  0.1151  0.2827  0.7313
 5066SOL    HW115792   5.280   3.297   5.445  0.9205  0.4253  0.9716
 5066SOL    HW215793   5.363   3.251   5.326  2.6835  2.1246  1.5140
 5067SOL     OW15794   0.935   6.293   2.186 -0.4441  0.0653  0.1949
 5067SOL    HW115795   0.961   6.374   2.228 -0.0937 -0.2769  0.6402
 5067SOL    HW215796   0.844   6.307   2.159 -0.3495  0.6356  0.1809
 5068SOL     OW15797   0.789   2.674   6.971 -0.3660 -0.0167  0.0885
 5068SOL    HW115798   0.791   2.627   6.888 -2.4607  1.5614 -0.8897
 5068SOL    HW215799   0.850   2.747   6.958 -1.1030  0.5374 -0.2496
 5069SOL     OW15800   2.100   2.526   2.651  0.0493 -0.4376  0.0197
 5069SOL    HW115801   2.031   2.490   2.596 -1.7252 -1.0328  2.5597
 5069SOL    HW215802   2.176   2.470   2.634 -0.1963 -0.1081 -2.3828
 5070SOL     OW15803   4.387   0.215   5.296 -0.7183 -0.5647 -0.0755
 5070SOL    HW115804   4.378   0.172   5.211  0.4439  0.1810 -0.5863
 5070SOL    HW215805   4.397   0.143   5.358 -0.3491 -1.0834 -0.7255
 5071SOL     OW15806   4.872   3.877   5.226 -0.0388 -0.0086 -0.3802
 5071SOL    HW115807   4.894   3.954   5.279  0.2936 -0.3041 -0.0825
 5071SOL    HW215808   4.901   3.803   5.279  0.1040 -0.3183 -0.8906
 5072SOL     OW15809   5.030   0.652   4.864  0.2036  0.0664 -0.0377
 5072SOL    HW115810   5.032   0.679   4.956 -1.1254 -1.7967  0.5688
 5072SOL    HW215811   5.022   0.557   4.867  0.1914 -0.0273 -2.0975
 5073SOL     OW15812   3.936   0.924   0.881 -0.5702  0.2712 -0.3932
 5073SOL    HW115813   3.877   0.908   0.808 -0.0849  0.1670 -0.7670
 5073SOL    HW215814   3.983   0.842   0.893  0.6262  0.8243 -1.1312
 5074SOL     OW15815   7.091   1.364   4.998 -0.6197  0.2708 -0.4175
 5074SOL    HW115816   7.033   1.341   5.071  1.1963  2.1973  1.7296
 5074SOL    HW215817   7.154   1.292   4.993 -1.3852 -0.3791 -0.8056
 5075SOL     OW15818   0.276   3.108   4.701 -0.5488 -0.0241 -0.2869
 5075SOL    HW115819   0.226   3.061   4.634 -1.0032 -0.4397  0.3371
 5075SOL    HW215820   0.261   3.058   4.781  0.6542 -0.0032 -0.0339
 5076SOL     OW15821   6.207   3.219   1.689  0.6047  0.5354  0.0487
 5076SOL    HW115822   6.286   3.248   1.644  0.0764  0.4899 -0.9001
 5076SOL    HW215823   6.152   3.182   1.621 -0.5934  1.3128  0.5786
 5077SOL     OW15824   0.050   3.981   6.437 -0.3989 -0.1795 -0.0065
 5077SOL    HW115825   0.096   3.976   6.353 -1.0424 -0.2752 -0.3605
 5077SOL    HW215826   0.110   4.028   6.494 -0.1368  0.2829 -0.6501
 5078SOL     OW15827   2.214   1.188   0.616  0.0544  0.4887 -0.0424
 5078SOL    HW115828   2.188   1.178   0.524 -1.0572  1.2139  0.1788
 5078SOL    HW215829   2.163   1.263   0.647  0.5777  0.3747  1.1133
 5079SOL     OW15830   4.231   6.028   6.733  0.2604  0.2650  0.2131
 5079SOL    HW115831   4.292   5.999   6.665  0.4068 -0.8630  0.8025
 5079SOL    HW215832   4.280   6.094   6.782  1.5537 -1.5731  1.5066
 5080SOL     OW15833   3.163   3.806   3.343  0.1655  0.6968 -0.1548
 5080SOL    HW115834   3.242   3.799   3.396  0.5458  2.0174 -0.5325
 5080SOL    HW215835   3.165   3.729   3.286  0.1385 -0.3356  1.2158
 5081SOL     OW15836   2.154   4.393   2.549  0.7306 -0.1775  0.4829
 5081SOL    HW115837   2.088   4.462   2.541 -0.0343 -1.0165 -0.8477
 5081SOL    HW215838   2.186   4.399   2.638  0.0876  1.3733  0.6157
 5082SOL     OW15839   4.663   5.344   7.165 -0.2586  0.0205  0.4261
 5082SOL    HW115840   4.658   5.370   7.073 -2.2463  0.0361  0.5127
 5082SOL    HW215841   4.649   5.249   7.164 -0.6512  0.0723  0.7373
 5083SOL     OW15842   4.155   6.681   4.539 -0.5619 -0.0155  0.0960
 5083SOL    HW115843   4.113   6.606   4.497  0.7908 -0.4492 -0.5088
 5083SOL    HW215844   4.207   6.643   4.609  0.9968  0.2254 -0.9035
 5084SOL     OW15845   6.492   6.156   2.754 -0.2709  0.4854  0.0496
 5084SOL    HW115846   6.563   6.199   2.708  0.1949 -0.5051 -0.1658
 5084SOL    HW215847   6.477   6.074   2.707 -0.8358  0.1859  0.7203
 5085SOL     OW15848   6.449   2.454   2.952  0.1773 -0.1225  0.1321
 5085SOL    HW115849   6.506   2.378   2.958 -0.3518 -0.5369 -0.0392
 5085SOL    HW215850   6.487   2.508   2.882  0.5677 -0.2208  0.2720
 5086SOL     OW15851   6.509   2.145   3.454  0.2606 -0.2481 -0.0619
 5086SOL    HW115852   6.527   2.237   3.474 -1.4696 -0.0178  0.4784
 5086SOL    HW215853   6.494   2.145   3.359  0.3405  0.0066 -0.0770
 5087SOL     OW15854   1.731   6.841   4.399  0.0188 -0.2018  0.5067
 5087SOL    HW115855   1.725   6.773   4.466 -1.0581  0.8160  1.4817
 5087SOL    HW215856   1.661   6.820   4.337  0.1096 -0.3702  0.4646
 5088SOL     OW15857   2.440   2.686   2.543  0.3281 -0.0089 -0.2357
 5088SOL    HW115858   2.512   2.623   2.535 -0.6789 -1.6648  2.7783
 5088SOL    HW215859   2.364   2.640   2.506  0.6321  1.5018 -2.8520
 5089SOL     OW15860   4.657   2.207   0.109  0.1851  0.2876 -0.5124
 5089SOL    HW115861   4.709   2.280   0.077  1.2171  0.6963  1.9973
 5089SOL    HW215862   4.567   2.238   0.108  0.4398  1.0072 -1.0124
 5090SOL     OW15863   3.775   1.282   1.599  0.2109  0.2373  0.7170
 5090SOL    HW115864   3.846   1.340   1.571 -1.2573  0.7907 -2.1096
 5090SOL    HW215865   3.720   1.273   1.521 -2.4390 -0.7293  2.6329
 5091SOL     OW15866   5.032   3.176   2.867  0.1839 -0.3548  0.0892
 5091SOL    HW115867   5.037   3.262   2.910 -1.6307 -1.4299  2.5781
 5091SOL    HW215868   5.110   3.130   2.896  0.2575 -0.1613  0.1983
 5092SOL     OW15869   6.249   2.069   0.644 -0.2626 -0.4018 -0.0041
 5092SOL    HW115870   6.185   2.010   0.683 -0.1478 -0.2945  0.3464
 5092SOL    HW215871   6.230   2.067   0.550 -0.2150 -1.0490 -0.0007
 5093SOL     OW15872   3.887   5.901   6.376  0.2408  0.4193 -0.2394
 5093SOL    HW115873   3.961   5.862   6.330  1.4007  0.7612  1.3249
 5093SOL    HW215874   3.870   5.844   6.450 -0.0182  1.2232  0.3326
 5094SOL     OW15875   2.463   3.002   0.915 -0.3600  0.4845 -0.2318
 5094SOL    HW115876   2.509   3.055   0.981 -0.5090  0.0645  0.2096
 5094SOL    HW215877   2.520   2.927   0.900 -1.3585 -0.5582  1.0619
 5095SOL     OW15878   5.862   6.557   5.803  0.3834  0.1095  0.1395
 5095SOL    HW115879   5.877   6.599   5.718  2.9189  0.8937  0.9078
 5095SOL    HW215880   5.940   6.579   5.854 -0.8441 -0.8205  2.4925
 5096SOL     OW15881   6.325   1.493   6.740  0.3152  0.4021 -0.0407
 5096SOL    HW115882   6.360   1.447   6.663 -1.2251 -1.5468  0.3994
 5096SOL    HW215883   6.399   1.496   6.801  0.5610 -1.0922 -0.2534
 5097SOL     OW15884   4.376   3.670   3.377 -0.4932 -0.0182  0.3779
 5097SOL    HW115885   4.385   3.634   3.289  0.4457 -0.0357  0.4776
 5097SOL    HW215886   4.339   3.597   3.428 -0.9859 -0.0266  0.0221
 5098SOL     OW15887   6.582   0.965   3.469 -0.3180 -0.1396  0.1635
 5098SOL    HW115888   6.621   0.967   3.382 -0.9875  1.5990 -0.1018
 5098SOL    HW215889   6.526   0.886   3.467  0.0913 -0.4222 -0.7808
 5099SOL     OW15890   7.253   7.048   3.215 -0.1506 -0.2019 -0.3374
 5099SOL    HW115891   7.246   6.998   3.133  2.2534  0.2958 -0.8809
 5099SOL    HW215892   7.165   7.047   3.251 -1.1649 -0.7937 -2.7380
 5100SOL     OW15893   3.524   2.560   5.192  0.4143  0.0250  0.2799
 5100SOL    HW115894   3.618   2.573   5.202  0.3757  0.5394  0.0497
 5100SOL    HW215895   3.485   2.639   5.231  0.2911  2.2151 -3.9488
 5101SOL     OW15896   0.908   6.107   0.682 -0.2713 -0.4573 -0.0464
 5101SOL    HW115897   0.956   6.186   0.656 -0.2555 -0.6721 -0.6761
 5101SOL    HW215898   0.817   6.134   0.686 -0.0842  0.0341  1.4576
 5102SOL     OW15899   6.631   1.475   3.712 -0.0365 -0.0867 -0.1691
 5102SOL    HW115900   6.671   1.465   3.626 -0.6425  0.2298 -0.4890
 5102SOL    HW215901   6.697   1.520   3.764  0.0014  0.5154 -0.7228
 5103SOL     OW15902   4.942   0.577   7.181  0.3926 -0.1404 -0.2758
 5103SOL    HW115903   4.927   0.668   7.158 -0.2832 -0.1318  0.1831
 5103SOL    HW215904   5.024   0.578   7.232 -0.0496  0.3183  0.4326
 5104SOL     OW15905   0.540   4.819   0.776 -0.7802 -0.0752  0.3548
 5104SOL    HW115906   0.559   4.905   0.739 -0.8237 -0.4327 -0.5300
 5104SOL    HW215907   0.625   4.784   0.801 -0.7110  0.0382  0.2808
 5105SOL     OW15908   6.342   3.710   6.321 -0.1992 -0.2269  0.8525
 5105SOL    HW115909   6.260   3.726   6.367 -0.7052 -0.8190  0.1711
 5105SOL    HW215910   6.395   3.659   6.383 -0.0559  0.7631  1.5624
 5106SOL     OW15911   1.482   1.812   1.699 -0.0923  0.1116 -0.4755
 5106SOL    HW115912   1.440   1.882   1.650  0.4375  0.4355 -0.4690
 5106SOL    HW215913   1.566   1.849   1.727 -0.0588 -0.3283  0.0154
 5107SOL     OW15914   4.356   5.140   2.602 -0.1320  0.0543  0.1190
 5107SOL    HW115915   4.296   5.095   2.542 -0.9817  3.2333 -1.5276
 5107SOL    HW215916   4.302   5.166   2.676 -0.1844  0.4549 -0.0573
 5108SOL     OW15917   1.745   5.351   6.188 -0.3082 -0.1885 -0.0019
 5108SOL    HW115918   1.709   5.298   6.117  0.1137 -0.0697 -0.3114
 5108SOL    HW215919   1.723   5.303   6.267 -2.0868  0.4429 -0.1010
 5109SOL     OW15920   3.698   6.996   5.125  0.1139  0.2215  0.3526
 5109SOL    HW115921   3.794   6.990   5.125  0.0272 -1.5962 -1.5912
 5109SOL    HW215922   3.669   6.912   5.162 -0.7447  0.4652  0.2337
 5110SOL     OW15923   2.362   2.198   1.396  0.0587  0.3460 -0.4186
 5110SOL    HW115924   2.346   2.247   1.315 -1.5027 -0.2395 -0.4797
 5110SOL    HW215925   2.275   2.172   1.426  0.7747 -1.2500  0.3307
 5111SOL     OW15926   1.529   6.886   2.342  0.0770 -0.0902  0.3222
 5111SOL    HW115927   1.575   6.966   2.368 -1.0608  1.3692 -2.0010
 5111SOL    HW215928   1.440   6.915   2.321 -0.7073 -2.1758  0.6415
 5112SOL     OW15929   6.382   5.425   6.483 -0.4055 -0.3232 -0.3875
 5112SOL    HW115930   6.406   5.343   6.526 -2.4235 -0.9101 -0.2857
 5112SOL    HW215931   6.403   5.493   6.546  0.0290 -0.8838  0.0799
 5113SOL     OW15932   4.920   2.189   3.495 -0.6408 -0.1495 -0.6861
 5113SOL    HW115933   4.939   2.275   3.534 -2.1888 -0.0074 -0.2263
 5113SOL    HW215934   4.940   2.200   3.402  0.6881  0.2402 -0.3706
 5114SOL     OW15935   7.249   0.180   2.415 -0.0675  0.2002  0.3759
 5114SOL    HW115936   7.247   0.248   2.348  0.1850 -0.6910 -0.5429
 5114SOL    HW215937   7.342   0.162   2.428 -0.1809 -2.2431 -1.7451
 5115SOL     OW15938   4.647   6.643   0.508 -0.6520  0.2332  0.8618
 5115SOL    HW115939   4.612   6.557   0.483  2.8047 -0.5914 -1.4949
 5115SOL    HW215940   4.654   6.690   0.425  2.8517  0.6742  1.3664
 5116SOL     OW15941   3.522   1.433   5.552 -0.4763  0.0702  0.1245
 5116SOL    HW115942   3.473   1.356   5.525  0.4589  0.6316 -3.4649
 5116SOL    HW215943   3.614   1.408   5.542 -0.1512  1.3072 -0.0891
 5117SOL     OW15944   3.138   7.182   3.971  0.0627  0.4184 -0.0318
 5117SOL    HW115945   3.073   7.238   3.929 -0.6088  0.1977  0.7039
 5117SOL    HW215946   3.130   7.098   3.927  1.0877  0.8999 -1.1537
 5118SOL     OW15947   3.646   4.994   7.052 -0.0846 -0.5482 -0.3901
 5118SOL    HW115948   3.608   4.965   7.135 -0.3858 -2.6675 -1.2270
 5118SOL    HW215949   3.740   5.000   7.070  0.1425 -3.1813 -0.4423
 5119SOL     OW15950   3.519   5.667   4.817  0.4085 -0.6531  0.0644
 5119SOL    HW115951   3.574   5.637   4.745  1.9522 -2.0136  1.7680
 5119SOL    HW215952   3.580   5.700   4.882 -1.0035  1.0977  0.5397
 5120SOL     OW15953   6.114   3.672   7.244 -0.2464 -0.3259 -0.3298
 5120SOL    HW115954   6.075   3.611   7.182 -0.8866 -0.8827  0.6138
 5120SOL    HW215955   6.117   3.755   7.197 -0.3382 -0.8351 -1.2490
 5121SOL     OW15956   4.684   4.550   2.274 -0.9324 -0.0312  0.3656
 5121SOL    HW115957   4.776   4.571   2.265 -1.3279  1.0283 -1.5276
 5121SOL    HW215958   4.658   4.587   2.358  0.3375 -0.2319  0.8450
 5122SOL     OW15959   3.122   5.639   0.884 -0.9955 -0.3574  0.0827
 5122SOL    HW115960   3.201   5.623   0.936 -0.6796  1.7637  0.2934
 5122SOL    HW215961   3.054   5.589   0.929  0.6489 -4.1637 -1.4434
 5123SOL     OW15962   2.893   5.002   4.011  0.0481 -0.0763  0.2722
 5123SOL    HW115963   2.889   5.042   4.098  1.5429  0.6118  0.0452
 5123SOL    HW215964   2.929   5.071   3.955  0.3128 -0.9399 -0.6218
 5124SOL     OW15965   3.195   4.842   2.684 -0.0224 -0.4804  1.0802
 5124SOL    HW115966   3.284   4.868   2.663  0.4919 -1.1703  2.3469
 5124SOL    HW215967   3.148   4.924   2.697  0.2539 -0.1041 -0.2865
 5125SOL     OW15968   3.536   6.840   7.206  0.6987 -0.3748 -0.5206
 5125SOL    HW115969   3.568   6.759   7.245  0.5743 -1.5780 -2.8234
 5125SOL    HW215970   3.578   6.910   7.257  2.2390 -1.8899  0.3244
 5126SOL     OW15971   0.234   3.712   5.437  0.6941  0.3424 -0.5973
 5126SOL    HW115972   0.174   3.688   5.508 -0.4292  0.4929 -1.4793
 5126SOL    HW215973   0.246   3.806   5.447 -1.9918  0.9381 -2.4817
 5127SOL     OW15974   3.002   1.476   0.653  0.8554 -0.0404  0.1203
 5127SOL    HW115975   3.088   1.449   0.683  1.1531 -2.0736 -2.4095
 5127SOL    HW215976   3.016   1.510   0.565 -0.6697  1.2106  0.3440
 5128SOL     OW15977   6.189   4.277   2.848 -0.5189 -0.3689  0.2182
 5128SOL    HW115978   6.271   4.232   2.871 -2.1252 -3.2716  0.4162
 5128SOL    HW215979   6.161   4.234   2.767 -1.3130  1.3440 -0.4238
 5129SOL     OW15980   1.982   0.822   2.555  0.0766  0.2290  0.4542
 5129SOL    HW115981   1.958   0.735   2.522  1.4283 -0.0256  0.1422
 5129SOL    HW215982   1.898   0.862   2.579 -0.6441 -0.7580 -0.3817
 5130SOL     OW15983   1.363   0.632   6.157  0.3832 -0.1219  0.3040
 5130SOL    HW115984   1.435   0.685   6.193 -0.3367  0.6611  0.6104
 5130SOL    HW215985   1.375   0.545   6.197  0.4200  0.3537  1.3595
 5131SOL     OW15986   6.968   2.565   1.270 -0.6609 -0.3098 -0.7503
 5131SOL    HW115987   7.057   2.585   1.298 -0.7201 -2.8823  1.4806
 5131SOL    HW215988   6.979   2.528   1.183 -0.0157  3.2880 -2.3120
 5132SOL     OW15989   4.317   1.566   4.406 -0.0538  0.4378 -0.8550
 5132SOL    HW115990   4.330   1.616   4.486  0.2347 -2.0153  0.7068
 5132SOL    HW215991   4.387   1.595   4.347 -0.4931  2.5247 -0.3833
 5133SOL     OW15992   4.588   5.563   5.631  0.0531 -0.0787 -0.4434
 5133SOL    HW115993   4.561   5.530   5.545 -2.2397  0.4956  0.0206
 5133SOL    HW215994   4.577   5.658   5.625  1.6315  0.1327 -0.0905
 5134SOL     OW15995   4.838   1.398   4.449  0.5062 -0.3704  0.2637
 5134SOL    HW115996   4.826   1.484   4.489  2.3089 -0.0472  0.1442
 5134SOL    HW215997   4.821   1.336   4.520 -2.6006  0.0006 -0.1077
 5135SOL     OW15998   5.525   4.503   5.485  0.3035 -0.5629 -0.1096
 5135SOL    HW115999   5.554   4.487   5.396  0.8148 -1.3938  0.1987
 5135SOL    HW216000   5.576   4.579   5.514  1.5976 -1.5084  0.1490
 5136SOL     OW16001   4.928   0.678   2.851  0.7003 -0.4827 -0.1596
 5136SOL    HW116002   4.956   0.668   2.942 -1.7201 -2.4254  0.4045
 5136SOL    HW216003   5.010   0.692   2.803  1.9030  1.9854  2.4463
 5137SOL     OW16004   2.255   4.831   1.811 -0.0487  0.4929  0.4959
 5137SOL    HW116005   2.336   4.874   1.836 -0.6645  1.0942  1.5060
 5137SOL    HW216006   2.202   4.900   1.771 -0.2858  0.2352  0.3604
 5138SOL     OW16007   5.593   6.177   5.372 -0.4772 -0.1917 -0.5211
 5138SOL    HW116008   5.599   6.121   5.294 -0.8103 -2.4265  1.0121
 5138SOL    HW216009   5.536   6.129   5.431 -0.6956  1.7627  0.8956
 5139SOL     OW16010   6.886   1.240   3.491 -0.4720  0.1591 -0.2310
 5139SOL    HW116011   6.889   1.307   3.423 -0.4722  1.1101  0.7060
 5139SOL    HW216012   6.976   1.208   3.496 -0.6723 -0.6239 -1.3683
 5140SOL     OW16013   4.333   1.953   3.165  0.5874  0.3620 -0.3680
 5140SOL    HW116014   4.351   2.032   3.115  1.1341  1.0053  0.8185
 5140SOL    HW216015   4.376   1.968   3.250  1.6899 -1.6921 -0.5369
 5141SOL     OW16016   1.807   2.325   5.835 -0.1064 -0.1956  0.3035
 5141SOL    HW116017   1.715   2.301   5.828 -0.0187 -0.4912  0.1545
 5141SOL    HW216018   1.807   2.411   5.878 -0.4116 -0.5759  1.0714
 5142SOL     OW16019   0.374   7.161   4.238 -0.3488 -0.0205 -0.5935
 5142SOL    HW116020   0.313   7.212   4.292  0.5661  0.6281 -0.1431
 5142SOL    HW216021   0.346   7.178   4.149 -0.2642  1.0487 -0.4352
 5143SOL     OW16022   5.953   5.009   4.589  0.3987 -0.0143  0.4915
 5143SOL    HW116023   5.865   5.044   4.577  1.6670  2.8153 -0.8920
 5143SOL    HW216024   5.982   5.044   4.673  0.2347 -0.9368  0.9416
 5144SOL     OW16025   7.006   4.988   1.661 -0.2599  0.1645  0.1841
 5144SOL    HW116026   7.009   5.006   1.567  1.3897 -2.4103 -0.3115
 5144SOL    HW216027   7.090   4.946   1.679 -0.2315  1.3601  2.9936
 5145SOL     OW16028   0.277   3.514   1.427 -0.3584  0.2068  0.4060
 5145SOL    HW116029   0.367   3.531   1.400 -0.6707 -1.3765 -1.7640
 5145SOL    HW216030   0.282   3.435   1.481 -0.3812  0.3963  0.6841
 5146SOL     OW16031   1.878   4.043   0.589 -0.1790  0.1562 -0.0808
 5146SOL    HW116032   1.918   4.080   0.510  0.2495 -1.0227 -0.4178
 5146SOL    HW216033   1.844   4.119   0.636  0.3554  0.9489 -0.9608
 5147SOL     OW16034   4.920   4.644   3.516 -0.4266  0.2055  0.0289
 5147SOL    HW116035   4.977   4.568   3.522 -0.0603  0.6104  2.0655
 5147SOL    HW216036   4.847   4.615   3.460  1.1952 -0.6419 -1.6904
 5148SOL     OW16037   5.718   2.337   5.277  0.2058  0.1151 -0.2015
 5148SOL    HW116038   5.789   2.389   5.239 -0.0094  1.4286  1.1322
 5148SOL    HW216039   5.640   2.362   5.227  0.3680 -0.0977 -0.5700
 5149SOL     OW16040   0.708   6.709   6.923 -0.1875  0.6470  0.5431
 5149SOL    HW116041   0.782   6.726   6.865 -0.1851  0.3825  0.4657
 5149SOL    HW216042   0.648   6.658   6.869  0.9592 -1.8576  1.5480
 5150SOL     OW16043   1.534   3.685   3.800  0.1503 -0.0857 -0.0002
 5150SOL    HW116044   1.508   3.593   3.797  0.2528 -0.0766 -1.3685
 5150SOL    HW216045   1.582   3.699   3.719  1.3630  0.8187  0.8560
 5151SOL     OW16046   5.892   2.323   3.017  0.4302 -0.7341  0.0871
 5151SOL    HW116047   5.922   2.236   2.991 -1.6572 -0.9793 -1.5477
 5151SOL    HW216048   5.855   2.310   3.105 -0.9314 -1.7322 -0.6215
 5152SOL     OW16049   4.731   5.913   0.401  0.4318  0.3872 -1.0129
 5152SOL    HW116050   4.745   5.909   0.306  2.8924 -0.3447 -0.6330
 5152SOL    HW216051   4.731   6.006   0.421  1.1451  0.5112 -1.5632
 5153SOL     OW16052   5.623   1.956   5.206  0.4366  0.3436  0.1400
 5153SOL    HW116053   5.616   2.029   5.145 -0.8309  0.2192  0.1115
 5153SOL    HW216054   5.542   1.960   5.257 -0.2778 -1.8207 -0.7492
 5154SOL     OW16055   6.167   5.250   6.704  0.1928 -0.4995 -0.4486
 5154SOL    HW116056   6.231   5.314   6.736  0.9078 -1.3152 -0.2227
 5154SOL    HW216057   6.213   5.167   6.708 -0.5003 -0.9329 -1.4109
 5155SOL     OW16058   4.650   1.813   2.961 -0.6601  0.6089  0.1037
 5155SOL    HW116059   4.578   1.850   3.011  0.5596  2.6294  0.4398
 5155SOL    HW216060   4.610   1.780   2.880 -2.2128 -0.0357  1.1252
 5156SOL     OW16061   6.022   4.509   3.775 -0.0666  0.1082  0.1336
 5156SOL    HW116062   6.010   4.546   3.863 -0.5119  0.5685 -0.1137
 5156SOL    HW216063   5.961   4.436   3.771 -0.5498  0.5117 -0.0249
 5157SOL     OW16064   3.621   6.294   6.833  0.5933 -0.7371 -1.0313
 5157SOL    HW116065   3.563   6.369   6.817 -1.0468 -1.6337  0.6049
 5157SOL    HW216066   3.617   6.243   6.753 -0.7101 -0.6782 -1.0065
 5158SOL     OW16067   0.072   3.826   3.931 -0.1548  0.4751 -0.1051
 5158SOL    HW116068   0.118   3.887   3.873  1.2402  0.7909  1.3138
 5158SOL    HW216069   0.140   3.769   3.964 -0.7894  0.8950  1.9697
 5159SOL     OW16070   4.356   3.811   1.506  0.4145  0.0451 -0.2346
 5159SOL    HW116071   4.450   3.823   1.494  0.4537  1.3882  1.2875
 5159SOL    HW216072   4.333   3.871   1.577 -1.5207 -0.5609 -0.3275
 5160SOL     OW16073   3.504   4.134   0.355 -0.0043  0.4443 -0.1490
 5160SOL    HW116074   3.563   4.076   0.404  0.2045 -1.0988 -2.1454
 5160SOL    HW216075   3.422   4.132   0.403  1.1658  1.6187  1.9723
 5161SOL     OW16076   7.087   1.278   4.504  0.2915  0.9182  0.3039
 5161SOL    HW116077   7.040   1.249   4.425 -0.6031  1.7158  0.5289
 5161SOL    HW216078   7.125   1.198   4.540 -1.6740  0.0864  0.6126
 5162SOL     OW16079   4.281   3.249   1.078 -0.6937 -0.2478  0.1641
 5162SOL    HW116080   4.249   3.283   1.161 -1.4310 -1.6820  0.4757
 5162SOL    HW216081   4.363   3.296   1.063 -0.3971 -0.2058  1.8456
 5163SOL     OW16082   2.296   3.752   1.917  0.0109 -0.4214 -0.5245
 5163SOL    HW116083   2.308   3.670   1.869  1.3602 -0.7415  0.3306
 5163SOL    HW216084   2.307   3.820   1.850  1.3085 -0.8777 -0.7986
 5164SOL     OW16085   3.245   7.214   2.050 -0.2415 -0.3174 -0.1617
 5164SOL    HW116086   3.244   7.220   1.955  0.4071  1.5033 -0.0667
 5164SOL    HW216087   3.326   7.166   2.070  0.5688  0.9106 -0.4560
 5165SOL     OW16088   1.500   5.356   6.508 -0.0650  0.1212 -0.4285
 5165SOL    HW116089   1.458   5.438   6.482 -0.3011  0.0491 -0.2691
 5165SOL    HW216090   1.466   5.338   6.595  0.4288  0.1564 -0.2263
 5166SOL     OW16091   3.713   4.498   5.784  0.4816 -0.4269  0.3086
 5166SOL    HW116092   3.630   4.539   5.808  0.4943 -0.2201 -0.0027
 5166SOL    HW216093   3.778   4.567   5.794  0.3757 -0.1300 -1.0708
 5167SOL     OW16094   0.180   3.439   6.932  0.4702 -0.1094 -0.1729
 5167SOL    HW116095   0.244   3.469   6.868  0.1554  0.5415 -0.1863
 5167SOL    HW216096   0.158   3.517   6.984 -0.0227 -0.4072  0.0777
 5168SOL     OW16097   3.739   2.549   3.813 -0.4089  0.0124  0.2560
 5168SOL    HW116098   3.694   2.487   3.871  0.8706  0.1051  1.3504
 5168SOL    HW216099   3.748   2.629   3.864 -1.0011  0.7352 -0.7526
 5169SOL     OW16100   1.487   2.004   3.642 -0.1657  0.6712 -0.3244
 5169SOL    HW116101   1.409   2.007   3.697 -0.8497  0.6504 -1.2881
 5169SOL    HW216102   1.461   1.956   3.564  1.3713 -1.0710  0.1888
 5170SOL     OW16103   0.391   2.582   2.239  0.5000  0.3821 -0.4454
 5170SOL    HW116104   0.389   2.640   2.163 -0.3145 -1.5435 -1.9227
 5170SOL    HW216105   0.317   2.609   2.292  0.4725  1.0693 -0.8247
 5171SOL     OW16106   6.985   4.162   0.279 -0.1057  0.7415 -0.1116
 5171SOL    HW116107   6.951   4.091   0.333 -0.8337  0.6964 -0.6289
 5171SOL    HW216108   6.971   4.241   0.331 -0.3113  0.6384 -0.0105
 5172SOL     OW16109   3.674   0.515   4.574  0.2404 -0.2262  0.0746
 5172SOL    HW116110   3.760   0.480   4.554  1.0167  2.3244 -1.3715
 5172SOL    HW216111   3.630   0.522   4.489 -1.2720 -1.2070  0.7567
 5173SOL     OW16112   6.309   4.191   3.657 -0.0754 -0.0365  0.0921
 5173SOL    HW116113   6.302   4.277   3.697 -1.9336 -0.1592  0.1146
 5173SOL    HW216114   6.390   4.193   3.607  0.6982  1.1660  1.3805
 5174SOL     OW16115   0.374   4.070   2.417  0.0361  0.1280  0.0462
 5174SOL    HW116116   0.332   3.993   2.455  1.1668 -0.6048 -0.1804
 5174SOL    HW216117   0.337   4.144   2.466 -1.2440 -0.5240  0.0949
 5175SOL     OW16118   1.214   6.702   6.419  0.1748  0.1307  0.4630
 5175SOL    HW116119   1.178   6.777   6.372  2.1960  0.2045 -1.0435
 5175SOL    HW216120   1.240   6.641   6.350 -1.6295 -2.0733  1.6632
 5176SOL     OW16121   3.057   7.110   4.465  0.1410  0.0864 -0.2183
 5176SOL    HW116122   3.118   7.065   4.524 -0.7488 -2.0236 -0.8736
 5176SOL    HW216123   2.990   7.145   4.523  0.5205  0.0490  0.2484
 5177SOL     OW16124   7.188   4.679   6.417 -0.5073 -0.0062  0.6120
 5177SOL    HW116125   7.265   4.733   6.400 -1.0318  0.3784 -0.5836
 5177SOL    HW216126   7.164   4.698   6.507 -0.4528  1.4687  0.3271
 5178SOL     OW16127   1.331   2.298   0.053 -0.2849 -0.2607 -0.2192
 5178SOL    HW116128   1.377   2.250  -0.015 -0.2539 -1.1091  0.3984
 5178SOL    HW216129   1.393   2.302   0.126 -0.0994  1.1336 -0.4304
 5179SOL     OW16130   1.777   3.382   0.223 -0.2134 -0.1495  0.3753
 5179SOL    HW116131   1.841   3.385   0.152  0.3783 -1.6582  0.8297
 5179SOL    HW216132   1.693   3.394   0.180  0.2918  0.9264 -0.3403
 5180SOL     OW16133   4.007   5.041   5.768  0.2620 -0.4130 -0.1726
 5180SOL    HW116134   4.007   5.094   5.689 -1.2822 -1.7379 -1.0825
 5180SOL    HW216135   4.097   5.046   5.800  0.2736  2.2962 -0.5205
 5181SOL     OW16136   5.128   5.687   3.327 -0.0188  0.0955 -0.2957
 5181SOL    HW116137   5.172   5.638   3.258  0.8568  0.4772 -0.0058
 5181SOL    HW216138   5.061   5.737   3.281 -0.0720 -0.3839 -0.7507
 5182SOL     OW16139   4.826   2.381   1.494 -0.2193  0.2108  0.2411
 5182SOL    HW116140   4.743   2.334   1.488  0.6024 -1.1337 -1.0900
 5182SOL    HW216141   4.832   2.429   1.411 -0.0961  1.0371  0.7288
 5183SOL     OW16142   0.714   3.134   2.769  0.0684  0.4820 -0.1705
 5183SOL    HW116143   0.809   3.122   2.772  0.1096  0.1364 -1.9346
 5183SOL    HW216144   0.684   3.065   2.709 -1.4406 -0.1862  1.3120
 5184SOL     OW16145   1.237   3.293   6.943  0.2324  0.7623  0.5123
 5184SOL    HW116146   1.286   3.263   6.867  0.3203 -0.5530  1.0672
 5184SOL    HW216147   1.171   3.352   6.908  0.8996  0.9382 -0.4699
 5185SOL     OW16148   4.792   4.388   3.818 -0.2067  0.0628  0.4738
 5185SOL    HW116149   4.814   4.420   3.905  0.5689  0.3449  0.1790
 5185SOL    HW216150   4.712   4.435   3.794  0.4909  1.2117  0.3632
 5186SOL     OW16151   4.886   1.912   0.421 -0.7178 -0.2178  0.1826
 5186SOL    HW116152   4.950   1.972   0.382 -1.1436 -1.8818 -3.2119
 5186SOL    HW216153   4.803   1.960   0.417 -0.4501  0.2966  0.6999
 5187SOL     OW16154   0.514   1.800   2.249 -0.3782 -0.2398  0.1608
 5187SOL    HW116155   0.487   1.892   2.241  0.8262  0.0982 -0.1402
 5187SOL    HW216156   0.497   1.763   2.162 -0.3104 -0.1406  0.1042
 5188SOL     OW16157   6.618   3.209   0.005 -0.0865 -0.2928  0.2190
 5188SOL    HW116158   6.694   3.266   0.014 -0.8630  0.7517  0.3000
 5188SOL    HW216159   6.569   3.246  -0.069 -1.1690 -0.1830  0.9848
 5189SOL     OW16160   0.642   6.521   4.023 -0.2385  0.1142 -0.2707
 5189SOL    HW116161   0.721   6.481   3.987  0.2690 -0.7860  1.7625
 5189SOL    HW216162   0.670   6.607   4.054 -0.6889  0.9142 -1.9898
 5190SOL     OW16163   4.751   4.310   4.777  0.0282 -0.0397  0.2367
 5190SOL    HW116164   4.826   4.259   4.747 -0.4706 -0.1746 -0.8105
 5190SOL    HW216165   4.720   4.263   4.855  2.0932  1.0169  1.7220
 5191SOL     OW16166   6.126   3.342   0.225 -0.2903 -0.2223  0.0266
 5191SOL    HW116167   6.062   3.397   0.180 -0.2904  0.1253  0.4396
 5191SOL    HW216168   6.112   3.255   0.190 -2.6405 -0.6218  1.8191
 5192SOL     OW16169   1.236   3.504   5.124  0.0028  0.1213  0.3755
 5192SOL    HW116170   1.294   3.480   5.052 -0.6411 -0.6807  0.1131
 5192SOL    HW216171   1.216   3.597   5.110  0.0004  0.0040 -0.3945
 5193SOL     OW16172   2.181   6.876   1.856 -0.3279  0.4931 -0.3236
 5193SOL    HW116173   2.273   6.901   1.855 -0.2900  0.4534  1.2400
 5193SOL    HW216174   2.154   6.885   1.947 -1.2899 -1.6186 -0.3658
 5194SOL     OW16175   7.135   2.194   3.971  0.1956 -0.3992  0.3057
 5194SOL    HW116176   7.230   2.206   3.974  0.0668  0.7257 -0.0150
 5194SOL    HW216177   7.115   2.183   3.878  0.1524 -1.8340  0.4821
 5195SOL     OW16178   4.194   2.307   2.213 -0.3163  0.3912 -0.0720
 5195SOL    HW116179   4.212   2.310   2.119  1.6613  0.5704  0.2902
 5195SOL    HW216180   4.158   2.394   2.233  0.0170  0.6373 -0.5188
 5196SOL     OW16181   0.200   1.033   3.520  0.5481 -0.4655  0.1696
 5196SOL    HW116182   0.282   1.030   3.570  1.9506  0.0742 -2.0666
 5196SOL    HW216183   0.171   1.124   3.528  2.9598  0.7020 -3.3792
 5197SOL     OW16184   2.217   1.752   3.041 -0.2697 -0.6009  0.0976
 5197SOL    HW116185   2.178   1.687   3.100 -0.1714 -0.8907 -0.1560
 5197SOL    HW216186   2.306   1.764   3.073  0.0716 -1.4242 -0.5317
 5198SOL     OW16187   1.561   0.579   2.610  0.0394  0.0407 -0.2718
 5198SOL    HW116188   1.619   0.609   2.539 -1.4865  2.0968 -0.6792
 5198SOL    HW216189   1.604   0.607   2.690  1.2567 -1.3924 -0.3893
 5199SOL     OW16190   5.175   5.874   5.308  0.2187  0.2261 -0.2564
 5199SOL    HW116191   5.120   5.949   5.331 -0.8577 -0.9066  1.0065
 5199SOL    HW216192   5.251   5.911   5.263 -0.4412  2.0304  0.1083
 5200SOL     OW16193   1.103   0.892   3.335 -0.0348 -0.2359 -0.4840
 5200SOL    HW116194   1.149   0.827   3.281  1.4154  0.4574 -0.0955
 5200SOL    HW216195   1.143   0.976   3.310 -2.5612  0.6530 -1.6992
 5201SOL     OW16196   4.143   1.199   3.774  0.4610  0.2828  0.4623
 5201SOL    HW116197   4.066   1.185   3.829 -1.3159  0.8962 -1.7959
 5201SOL    HW216198   4.174   1.286   3.800 -0.4974  0.6666  0.3547
 5202SOL     OW16199   4.817   0.788   3.766  0.2935 -0.0137 -0.1164
 5202SOL    HW116200   4.804   0.756   3.677  0.0433  2.8532 -1.1766
 5202SOL    HW216201   4.778   0.721   3.822 -0.6749 -1.2679 -2.2325
 5203SOL     OW16202   6.115   2.793   3.831 -0.4309 -0.0692 -0.1115
 5203SOL    HW116203   6.199   2.805   3.874 -0.7218  0.6701  0.2659
 5203SOL    HW216204   6.069   2.729   3.886 -0.9233  1.1123  0.8758
 5204SOL     OW16205   4.529   1.434   6.584  0.1487  0.4316  0.1687
 5204SOL    HW116206   4.474   1.362   6.553  0.6865 -0.4011  1.1057
 5204SOL    HW216207   4.480   1.472   6.656  0.6328 -0.0950  0.7841
 5205SOL     OW16208   5.729   0.796   0.761 -0.4184  0.6258 -0.3320
 5205SOL    HW116209   5.634   0.801   0.752 -0.3934  0.7129 -0.5572
 5205SOL    HW216210   5.759   0.886   0.749 -0.2120  0.4177 -1.4148
 5206SOL     OW16211   4.898   2.858   2.369 -0.2647  0.2542  0.1937
 5206SOL    HW116212   4.943   2.774   2.364 -0.3430  0.2000  0.4113
 5206SOL    HW216213   4.947   2.914   2.309 -1.7058 -0.6226 -1.8597
 5207SOL     OW16214   5.969   6.979   1.232  0.3353  0.5794  0.4654
 5207SOL    HW116215   5.954   7.071   1.254 -0.6408  0.5641 -0.1031
 5207SOL    HW216216   5.882   6.946   1.208  1.0878  0.1789 -1.8126
 5208SOL     OW16217   3.605   2.870   6.685  0.0706  0.3932  0.1867
 5208SOL    HW116218   3.574   2.945   6.735  1.1650  0.0829  1.3869
 5208SOL    HW216219   3.531   2.810   6.683 -0.3039  0.8349  0.5940
 5209SOL     OW16220   2.966   7.065   4.904  0.2561  0.2657 -0.0128
 5209SOL    HW116221   3.020   6.987   4.893 -0.3903 -0.3803  1.2400
 5209SOL    HW216222   3.013   7.116   4.970 -0.2328  0.0897  0.4739
 5210SOL     OW16223   5.787   1.194   1.246 -0.2297  0.0647  0.1600
 5210SOL    HW116224   5.724   1.199   1.318 -1.1647 -0.7501 -0.5914
 5210SOL    HW216225   5.745   1.138   1.181  1.3466 -0.6423 -0.2778
 5211SOL     OW16226   1.954   5.088   7.106  0.1597 -0.9220 -0.7182
 5211SOL    HW116227   1.978   5.084   7.198  0.8070 -1.5806 -0.9099
 5211SOL    HW216228   2.037   5.096   7.060 -0.2467  1.2560 -1.1602
 5212SOL     OW16229   0.344   6.029   1.957  0.1096 -0.6219 -0.7793
 5212SOL    HW116230   0.436   6.023   1.983  0.1805 -0.8018 -1.0668
 5212SOL    HW216231   0.338   6.108   1.904 -0.6485  1.4580  2.2819
 5213SOL     OW16232   0.819   2.136   7.115  0.5477  0.1487 -0.7388
 5213SOL    HW116233   0.749   2.123   7.178  1.2125  0.3896  0.0593
 5213SOL    HW216234   0.891   2.172   7.166  1.2833 -0.1677 -1.5354
 5214SOL     OW16235   2.483   0.380   4.061 -0.0090  0.3635  0.1789
 5214SOL    HW116236   2.575   0.405   4.051 -0.3330  1.2773 -0.6445
 5214SOL    HW216237   2.436   0.463   4.068 -0.7600 -0.1016  0.6717
 5215SOL     OW16238   6.272   3.352   0.728 -0.0610 -0.1840 -0.3098
 5215SOL    HW116239   6.233   3.303   0.799 -1.6655  0.5038 -0.6889
 5215SOL    HW216240   6.278   3.290   0.656 -4.1038  0.6214 -1.4968
 5216SOL     OW16241   1.626   2.482   6.996  0.1242 -0.3764  0.0565
 5216SOL    HW116242   1.604   2.431   7.074  0.2594 -1.2731 -0.4860
 5216SOL    HW216243   1.649   2.417   6.930 -0.7262  0.3434 -0.9700
 5217SOL     OW16244   4.738   5.079   5.834  0.7308 -0.1754  0.1220
 5217SOL    HW116245   4.740   5.008   5.899 -1.0634  0.4484  0.9030
 5217SOL    HW216246   4.732   5.159   5.886  5.1839  0.7994 -0.6653
 5218SOL     OW16247   2.963   5.603   3.580  0.4896  0.3378 -0.5937
 5218SOL    HW116248   3.031   5.666   3.605 -0.2689  1.1987 -0.6525
 5218SOL    HW216249   2.949   5.619   3.487  0.2686  0.1023 -0.6010
 5219SOL     OW16250   4.025   0.555   4.832  0.8341  0.5600  0.6612
 5219SOL    HW116251   3.941   0.531   4.871  0.9477  0.5893  0.9227
 5219SOL    HW216252   4.021   0.651   4.824  1.5294  0.7503  2.2727
 5220SOL     OW16253   4.679   5.918   2.981  0.4710 -0.3266 -0.7678
 5220SOL    HW116254   4.621   5.873   3.043 -0.4564 -0.8498 -1.9955
 5220SOL    HW216255   4.738   5.969   3.036 -0.6199 -0.4475  0.5320
 5221SOL     OW16256   3.594   2.365   1.682 -0.8441  0.5269  0.7330
 5221SOL    HW116257   3.587   2.434   1.616 -0.2235 -1.0881 -1.0555
 5221SOL    HW216258   3.508   2.323   1.683 -0.3089 -0.6180 -0.3710
 5222SOL     OW16259   0.585   6.109   5.153 -0.0915 -0.1895 -0.0638
 5222SOL    HW116260   0.593   6.204   5.157 -0.3045 -0.2416  2.8167
 5222SOL    HW216261   0.646   6.077   5.220 -0.9145 -2.0047 -0.1493
 5223SOL     OW16262   2.160   6.246   5.807 -0.2229 -0.0543  0.5527
 5223SOL    HW116263   2.240   6.196   5.826  1.0946  1.8978  0.3132
 5223SOL    HW216264   2.123   6.266   5.892 -0.9575 -1.7159  0.6430
 5224SOL     OW16265   7.123   2.521   3.110 -0.0439  0.5822  0.6683
 5224SOL    HW116266   7.035   2.554   3.096 -0.0225  0.6631  0.7299
 5224SOL    HW216267   7.116   2.427   3.094 -0.4293  0.3754  1.9683
 5225SOL     OW16268   5.168   3.791   2.995  0.2786 -0.1488 -0.5343
 5225SOL    HW116269   5.120   3.818   3.073 -1.2577 -0.4107 -1.3651
 5225SOL    HW216270   5.247   3.846   2.995  0.9674 -1.0839  1.8895
 5226SOL     OW16271   1.811   6.490   1.097 -0.0616 -0.6574  0.1728
 5226SOL    HW116272   1.724   6.481   1.059  0.2782 -1.5836 -0.4043
 5226SOL    HW216273   1.862   6.418   1.059  0.4953 -1.1379  1.7878
 5227SOL     OW16274   6.351   5.410   6.849 -0.3916  0.8229  0.1156
 5227SOL    HW116275   6.381   5.488   6.896 -2.9932  1.0319  1.5249
 5227SOL    HW216276   6.416   5.343   6.869  0.8750  2.1189  0.4024
 5228SOL     OW16277   7.095   6.821   5.815  0.6089  0.1153  0.1287
 5228SOL    HW116278   7.052   6.897   5.776  0.2643 -0.1910 -0.0983
 5228SOL    HW216279   7.026   6.776   5.864  1.3312  1.2134  2.2089
 5229SOL     OW16280   4.590   6.614   5.160 -0.3094 -0.1797 -0.4208
 5229SOL    HW116281   4.630   6.679   5.102  0.1875 -0.3996 -0.3323
 5229SOL    HW216282   4.545   6.666   5.227  1.9027  0.1235  0.9048
 5230SOL     OW16283   6.199   1.350   3.994  0.1032  0.9004  0.3248
 5230SOL    HW116284   6.213   1.444   3.986 -2.1733  1.0639 -2.4909
 5230SOL    HW216285   6.262   1.312   3.932  0.3076  0.6330  0.6979
 5231SOL     OW16286   2.632   0.482   0.649 -0.6169 -0.4387 -0.1991
 5231SOL    HW116287   2.721   0.446   0.654 -0.6018 -0.6039 -1.6689
 5231SOL    HW216288   2.645   0.577   0.643 -0.5359 -0.4882 -0.7734
 5232SOL     OW16289   4.955   5.379   3.093  0.4547 -0.2508  0.0098
 5232SOL    HW116290   4.916   5.449   3.145 -1.7782 -0.3862 -1.4484
 5232SOL    HW216291   4.881   5.331   3.058  1.9235 -0.6426 -2.6585
 5233SOL     OW16292   0.484   2.831   6.007  0.0084  0.0442  0.1545
 5233SOL    HW116293   0.490   2.888   5.930  0.0319 -0.8857 -0.5402
 5233SOL    HW216294   0.555   2.768   5.996 -2.1698 -2.3344 -0.9456
 5234SOL     OW16295   5.789   4.139   0.666  0.1468  0.1534 -0.1953
 5234SOL    HW116296   5.872   4.093   0.685 -0.8276 -0.2639  3.4867
 5234SOL    HW216297   5.725   4.069   0.655 -0.1051  0.5145 -1.0207
 5235SOL     OW16298   0.000   0.698   5.745 -0.0949 -0.4410 -0.3748
 5235SOL    HW116299  -0.080   0.736   5.709 -0.5784 -0.0772  1.0887
 5235SOL    HW216300  -0.030   0.623   5.797  0.4001  0.5184  1.3065
 5236SOL     OW16301   4.328   6.894   4.081 -0.1677  0.6188 -0.1012
 5236SOL    HW116302   4.330   6.989   4.065  0.2487  0.8364  1.1781
 5236SOL    HW216303   4.419   6.871   4.102 -0.1898 -0.1443 -0.8165
 5237SOL     OW16304   2.161   1.702   1.456 -0.2168  0.3696  0.5067
 5237SOL    HW116305   2.236   1.760   1.443 -0.4532  0.3371 -1.0599
 5237SOL    HW216306   2.181   1.656   1.538  2.1112 -0.5927 -0.5689
 5238SOL     OW16307   4.378   4.449   1.650  0.1277  0.7541  0.3774
 5238SOL    HW116308   4.436   4.418   1.720 -0.7560  1.2302  1.3286
 5238SOL    HW216309   4.423   4.524   1.613  0.7962  0.2481  0.1651
 5239SOL     OW16310   3.262   6.838   6.306 -0.4145  0.3287  0.7114
 5239SOL    HW116311   3.269   6.861   6.213  0.7431  0.3756  0.8075
 5239SOL    HW216312   3.175   6.869   6.331 -1.2776 -0.8734 -0.6790
 5240SOL     OW16313   0.183   2.308   6.059  0.0832  0.0476  0.3262
 5240SOL    HW116314   0.219   2.391   6.029  0.9284 -0.2282  0.5422
 5240SOL    HW216315   0.089   2.315   6.046  0.4041  0.0369 -2.1065
 5241SOL     OW16316   5.297   2.024   0.084 -0.0159 -0.6380 -0.3422
 5241SOL    HW116317   5.350   2.013   0.005  2.1005 -0.1079  0.9568
 5241SOL    HW216318   5.282   1.935   0.115  1.3016 -0.7449  0.0233
 5242SOL     OW16319   6.999   2.419   1.044  0.4494  0.3825 -0.1352
 5242SOL    HW116320   6.955   2.334   1.039 -0.0338  0.4884  1.8897
 5242SOL    HW216321   6.972   2.465   0.964  0.6939 -1.3385 -1.2335
 5243SOL     OW16322   6.511   5.187   0.899 -0.4817  0.5215  0.0144
 5243SOL    HW116323   6.568   5.245   0.848 -0.5779  0.2986 -0.3408
 5243SOL    HW216324   6.425   5.228   0.895 -0.8358 -0.3554 -1.3439
 5244SOL     OW16325   4.770   1.692   6.944 -0.8831  0.3181  0.2089
 5244SOL    HW116326   4.778   1.697   7.039  0.8354 -1.0570  0.1540
 5244SOL    HW216327   4.724   1.610   6.928  0.4303 -0.3359 -0.2194
 5245SOL     OW16328   5.530   5.608   4.185  0.8774 -0.1500 -0.5566
 5245SOL    HW116329   5.477   5.654   4.251 -0.3243 -0.8237 -1.0290
 5245SOL    HW216330   5.605   5.665   4.170  0.4015  0.7174  0.3064
 5246SOL     OW16331   3.209   4.605   6.692  0.0104 -0.0435 -0.6330
 5246SOL    HW116332   3.122   4.571   6.671  0.4713 -1.1317 -0.7941
 5246SOL    HW216333   3.248   4.627   6.608 -0.2129  0.7179 -0.5425
 5247SOL     OW16334   6.849   3.236   1.167 -0.1681  0.6648  0.0704
 5247SOL    HW116335   6.758   3.210   1.182 -0.6759  1.5121 -1.4599
 5247SOL    HW216336   6.898   3.153   1.168 -0.8231  0.2815  1.6864
 5248SOL     OW16337   0.556   6.417   3.052 -0.0746 -0.3237 -0.0125
 5248SOL    HW116338   0.556   6.384   3.142 -0.1864 -0.8281 -0.1992
 5248SOL    HW216339   0.528   6.508   3.060  1.1061 -0.0104  0.5923
 5249SOL     OW16340   4.014   3.236   4.786  0.5214  0.6460  0.2326
 5249SOL    HW116341   3.919   3.250   4.782  0.4291  1.4628  3.5750
 5249SOL    HW216342   4.038   3.206   4.698 -2.9640 -0.4915 -0.4000
 5250SOL     OW16343   4.463   6.157   0.171 -0.1226  0.3268  0.1811
 5250SOL    HW116344   4.469   6.140   0.077  1.5379  0.5202  0.2490
 5250SOL    HW216345   4.516   6.089   0.212 -0.3052  0.6369  0.9547
 5251SOL     OW16346   2.455   4.961   1.939 -0.2611 -0.4775  0.2486
 5251SOL    HW116347   2.447   5.030   2.005  0.8233  0.2256 -0.3573
 5251SOL    HW216348   2.498   4.889   1.985  1.5606  0.4376 -0.0007
 5252SOL     OW16349   1.774   6.544   7.097  0.0070  0.0923 -0.6618
 5252SOL    HW116350   1.840   6.612   7.081 -1.6945  1.3102 -2.6937
 5252SOL    HW216351   1.774   6.492   7.017  1.0853 -2.1853  0.7683
 5253SOL     OW16352   5.041   4.305   0.144 -0.3772  0.2272 -0.0281
 5253SOL    HW116353   5.130   4.286   0.113  0.2696  0.5282  1.5904
 5253SOL    HW216354   5.021   4.233   0.204 -1.4508 -0.1281 -0.8097
 5254SOL     OW16355   5.534   0.714   2.345  0.2358 -0.0864 -0.2834
 5254SOL    HW116356   5.613   0.704   2.291 -0.7622  0.0577 -1.8004
 5254SOL    HW216357   5.540   0.643   2.409  1.1415 -0.6437 -0.9769
 5255SOL     OW16358   2.121   2.793   2.486  0.4868  0.5306 -0.1660
 5255SOL    HW116359   2.142   2.715   2.435 -0.2918  0.7020 -0.7660
 5255SOL    HW216360   2.081   2.759   2.566  0.7316  0.2873 -0.1483
 5256SOL     OW16361   3.337   1.971   0.082  0.4097 -0.4467 -0.3487
 5256SOL    HW116362   3.321   1.970  -0.012 -0.7752 -0.6541 -0.1517
 5256SOL    HW216363   3.251   1.954   0.121  1.3454 -2.9662  0.7204
 5257SOL     OW16364   4.051   4.281   3.913  0.0546 -0.1365  0.2010
 5257SOL    HW116365   4.104   4.300   3.836  0.7635  1.6005  1.0996
 5257SOL    HW216366   3.985   4.350   3.916 -0.6426 -0.8050  0.5553
 5258SOL     OW16367   7.215   3.110   0.243 -0.0487 -0.0716  0.1210
 5258SOL    HW116368   7.183   3.159   0.319 -0.2123 -0.0167  0.0179
 5258SOL    HW216369   7.196   3.019   0.264  0.4214 -0.1067  0.3916
 5259SOL     OW16370   4.716   0.575   2.473 -0.2106  0.2732  0.0698
 5259SOL    HW116371   4.635   0.582   2.423 -0.5849 -0.3651  0.5780
 5259SOL    HW216372   4.696   0.617   2.557 -0.6580 -1.6439  0.9507
 5260SOL     OW16373   6.831   0.272   5.498 -0.0891 -0.2073  0.3818
 5260SOL    HW116374   6.813   0.255   5.590  0.7833  1.1463  0.8158
 5260SOL    HW216375   6.745   0.292   5.460  0.0348  3.7299  1.9057
 5261SOL     OW16376   1.120   1.952   2.336 -0.9550 -0.1864  0.6309
 5261SOL    HW116377   1.124   1.911   2.249  0.8633 -0.4512  0.8101
 5261SOL    HW216378   1.082   1.885   2.393 -0.2495 -0.7598  0.4375
 5262SOL     OW16379   0.412   5.027   6.413  0.8342 -0.0791  0.1010
 5262SOL    HW116380   0.347   5.008   6.480 -0.6089  0.5380 -1.1151
 5262SOL    HW216381   0.496   5.007   6.456 -0.1010 -0.4934  1.8029
 5263SOL     OW16382   6.611   0.325   1.924  0.6879 -0.3143 -0.5263
 5263SOL    HW116383   6.542   0.321   1.991  0.5644 -1.0385 -0.6904
 5263SOL    HW216384   6.688   0.357   1.970 -0.0520  1.6421 -0.5896
 5264SOL     OW16385   6.817   0.655   0.047 -0.1672 -0.7926 -0.0521
 5264SOL    HW116386   6.850   0.647   0.136  0.2845 -1.3961 -0.2699
 5264SOL    HW216387   6.774   0.741   0.044 -0.7313 -1.0341  0.9245
 5265SOL     OW16388   4.845   0.751   0.879  0.3111  0.2782  0.2336
 5265SOL    HW116389   4.819   0.701   0.802 -0.6506  1.9154 -0.5309
 5265SOL    HW216390   4.938   0.770   0.865 -0.3212  2.2927 -1.5588
 5266SOL     OW16391   2.665   2.360   5.588 -0.1529  0.6892 -0.0829
 5266SOL    HW116392   2.589   2.328   5.539  1.1109  0.1318 -1.7506
 5266SOL    HW216393   2.681   2.448   5.555  0.0245  0.7465  0.1498
 5267SOL     OW16394   0.383   5.252   2.293  0.1462 -0.0760 -0.3056
 5267SOL    HW116395   0.367   5.303   2.213 -0.0885  1.8965  0.9540
 5267SOL    HW216396   0.478   5.249   2.300  0.1658  2.4443  0.9630
 5268SOL     OW16397   6.409   4.449   4.648  0.1886 -0.2638  0.0671
 5268SOL    HW116398   6.352   4.514   4.607  0.8311  0.1290 -0.2055
 5268SOL    HW216399   6.363   4.366   4.637  0.4857 -0.2000 -1.6715
 5269SOL     OW16400   3.012   5.558   0.657  0.4121  0.3096 -0.0690
 5269SOL    HW116401   3.081   5.551   0.591  0.9898 -0.5395  0.6212
 5269SOL    HW216402   3.058   5.578   0.738 -0.1200 -0.5512  0.4564
 5270SOL     OW16403   0.734   6.185   1.124  0.0085 -0.3016  0.3925
 5270SOL    HW116404   0.789   6.134   1.183 -0.4877  0.2514  1.3351
 5270SOL    HW216405   0.742   6.275   1.155  1.9364  0.4453 -2.0744
 5271SOL     OW16406   1.711   1.146   3.769 -0.1438 -0.3451  0.4057
 5271SOL    HW116407   1.691   1.218   3.709 -0.5306 -1.1935 -0.4978
 5271SOL    HW216408   1.627   1.126   3.810  0.3210  0.9208  2.0137
 5272SOL     OW16409   4.672   0.303   3.990 -0.3982  0.0458 -0.4796
 5272SOL    HW116410   4.725   0.344   3.922 -0.1813 -0.8464 -0.8569
 5272SOL    HW216411   4.713   0.218   4.004 -0.9773 -0.1357  0.1298
 5273SOL     OW16412   0.639   2.767   6.312  0.4220  0.0870  0.1457
 5273SOL    HW116413   0.656   2.854   6.276 -1.2690  0.8879  1.2247
 5273SOL    HW216414   0.649   2.708   6.238 -0.1079  1.3953 -0.9927
 5274SOL     OW16415   6.874   3.787   5.200 -0.1704 -0.3086  0.4197
 5274SOL    HW116416   6.896   3.749   5.285  0.8939 -1.2481 -0.2708
 5274SOL    HW216417   6.883   3.882   5.214 -0.4546 -0.4233  1.4707
 5275SOL     OW16418   3.041   2.759   4.729 -0.0513  0.0718  0.3775
 5275SOL    HW116419   3.074   2.736   4.816 -1.2235 -0.3379  0.7094
 5275SOL    HW216420   2.947   2.773   4.741  0.0279  1.5680 -0.5085
 5276SOL     OW16421   4.439   5.241   2.993  0.0386 -0.0891 -0.4706
 5276SOL    HW116422   4.395   5.308   3.046 -0.0465  0.1356 -0.8200
 5276SOL    HW216423   4.437   5.277   2.904 -1.4283 -1.2674 -0.9426
 5277SOL     OW16424   6.607   4.097   1.295 -1.0144  0.0873 -0.2825
 5277SOL    HW116425   6.625   4.191   1.300  0.8316 -0.2352 -0.7188
 5277SOL    HW216426   6.683   4.060   1.250 -1.8690 -1.5803 -0.3873
 5278SOL     OW16427   1.904   4.109   6.453  0.0559 -0.0302 -0.0131
 5278SOL    HW116428   1.880   4.085   6.364 -1.8959  0.7749  0.2620
 5278SOL    HW216429   1.851   4.052   6.509  3.7718 -2.9722  0.7238
 5279SOL     OW16430   0.183   4.105   4.290 -0.4517  1.2262 -0.2721
 5279SOL    HW116431   0.211   4.018   4.263  0.7894  0.7532  2.4271
 5279SOL    HW216432   0.089   4.096   4.306 -0.3129  0.3780  0.0635
 5280SOL     OW16433   2.046   6.389   3.175  0.0316 -0.2189  0.6516
 5280SOL    HW116434   2.111   6.331   3.214 -0.3558 -0.4792  0.9171
 5280SOL    HW216435   1.963   6.343   3.186 -0.3614  0.6478  1.4141
 5281SOL     OW16436   3.938   2.347   2.058 -1.0078  0.2806  0.3968
 5281SOL    HW116437   3.902   2.269   2.099 -1.7430  0.9463  1.0243
 5281SOL    HW216438   3.877   2.367   1.987 -1.4518  0.9683  0.9778
 5282SOL     OW16439   5.886   2.939   4.563  0.1333 -0.6378 -0.0953
 5282SOL    HW116440   5.892   3.031   4.589 -0.5558  0.0865 -2.3695
 5282SOL    HW216441   5.800   2.911   4.596 -0.6638  0.2200 -1.3893
 5283SOL     OW16442   3.468   4.595   2.446 -0.1900  0.3233 -0.8270
 5283SOL    HW116443   3.482   4.522   2.386  0.2558  0.4062 -0.8220
 5283SOL    HW216444   3.482   4.673   2.392  0.1793  0.3983 -0.6221
 5284SOL     OW16445   3.118   2.954   2.160  0.3837 -0.3122  0.0152
 5284SOL    HW116446   3.155   3.039   2.136  0.2359 -0.4531 -0.7216
 5284SOL    HW216447   3.053   2.975   2.227  1.3291  0.0068  0.8511
 5285SOL     OW16448   5.570   6.746   3.803  0.0689 -0.4612 -0.3276
 5285SOL    HW116449   5.639   6.811   3.791  0.6741 -0.9873  0.2250
 5285SOL    HW216450   5.602   6.669   3.757  0.1904 -0.9411  0.5410
 5286SOL     OW16451   4.770   1.619   4.031 -0.1590  0.5073  0.1502
 5286SOL    HW116452   4.788   1.539   4.082 -1.1253 -0.0598 -0.3826
 5286SOL    HW216453   4.852   1.636   3.984 -0.3751 -0.9805 -0.8184
 5287SOL     OW16454   0.813   3.694   6.539 -0.8945 -0.0095  0.2664
 5287SOL    HW116455   0.811   3.721   6.631  0.2595 -0.3364  0.3929
 5287SOL    HW216456   0.830   3.600   6.542 -1.4220 -0.1288 -0.2756
 5288SOL     OW16457   5.924   2.449   5.177  0.1317 -0.0458  0.1314
 5288SOL    HW116458   5.992   2.450   5.245  0.9299 -1.3296 -0.6067
 5288SOL    HW216459   5.953   2.380   5.116 -0.5288  1.1255 -1.5430
 5289SOL     OW16460   2.522   1.539   1.466 -0.1463  0.0914  0.3692
 5289SOL    HW116461   2.464   1.542   1.542  0.5316  0.1920  0.8827
 5289SOL    HW216462   2.464   1.515   1.393 -0.8678  0.3667  0.8415
 5290SOL     OW16463   0.970   4.997   0.370 -0.4127 -0.2400  0.1569
 5290SOL    HW116464   0.927   5.073   0.331 -0.0303 -0.7739 -1.3503
 5290SOL    HW216465   1.050   4.986   0.319 -0.6060 -1.8179  0.1661
 5291SOL     OW16466   5.622   1.980   2.362 -0.6362  0.0848 -0.4410
 5291SOL    HW116467   5.539   1.987   2.410 -0.1388  0.3674  0.3875
 5291SOL    HW216468   5.681   2.039   2.408  0.7093 -1.8559  0.3871
 5292SOL     OW16469   2.387   3.359   2.554  0.4589  0.0307  0.3150
 5292SOL    HW116470   2.481   3.346   2.557  0.4129 -0.7839 -1.3304
 5292SOL    HW216471   2.351   3.291   2.611  0.7601 -0.9500 -0.6561
 5293SOL     OW16472   6.388   3.973   3.314 -0.2145  0.7707 -0.0403
 5293SOL    HW116473   6.430   4.058   3.298  0.8517  0.0648 -1.0925
 5293SOL    HW216474   6.434   3.938   3.390 -1.1316  1.4347  0.8317
 5294SOL     OW16475   3.116   1.981   3.109  0.1520 -0.1335  0.7021
 5294SOL    HW116476   3.121   1.929   3.029  0.9516 -0.7501  1.1423
 5294SOL    HW216477   3.161   2.063   3.087  0.7064 -0.4514  0.6253
 5295SOL     OW16478   0.006   2.634   0.628 -0.0360  0.0835  0.4183
 5295SOL    HW116479   0.047   2.641   0.714  1.6381 -0.4274 -0.3121
 5295SOL    HW216480  -0.062   2.701   0.628  2.2464  2.4796  0.8872
 5296SOL     OW16481   4.757   2.646   3.840 -0.7225  0.0156  0.1688
 5296SOL    HW116482   4.744   2.676   3.750 -1.6418  0.0120  0.2942
 5296SOL    HW216483   4.742   2.724   3.893 -0.8163 -0.1311  0.3573
 5297SOL     OW16484   1.133   4.998   0.116  0.2631  0.3503  0.2448
 5297SOL    HW116485   1.080   5.052   0.057  0.1230 -0.0441  0.0057
 5297SOL    HW216486   1.211   5.051   0.134  0.2058  0.5619 -0.1213
 5298SOL     OW16487   5.911   3.417   4.279  0.3836 -0.3401  0.1467
 5298SOL    HW116488   5.859   3.338   4.265  1.2223 -0.7613 -0.6559
 5298SOL    HW216489   5.973   3.393   4.348  0.4074 -0.2684  0.1497
 5299SOL     OW16490   3.476   5.288   5.576  0.5568 -0.0535 -0.2330
 5299SOL    HW116491   3.526   5.210   5.551 -0.1092 -0.7534  0.5736
 5299SOL    HW216492   3.492   5.351   5.506  0.0283 -1.3768 -1.5631
 5300SOL     OW16493   7.213   3.521   2.762 -0.5996 -0.4631 -0.2700
 5300SOL    HW116494   7.183   3.596   2.814 -0.5073 -1.5033  1.3220
 5300SOL    HW216495   7.166   3.446   2.800  0.9635 -1.5243 -0.4043
 5301SOL     OW16496   3.088   0.525   4.053  0.0251  0.6773  0.2524
 5301SOL    HW116497   3.137   0.525   3.970 -0.0283  1.1430  0.2223
 5301SOL    HW216498   3.094   0.434   4.083 -1.1320  0.1739 -0.9631
 5302SOL     OW16499   6.669   1.819   1.762  0.5360 -0.1793  0.2861
 5302SOL    HW116500   6.661   1.893   1.702  1.3225  0.8824  1.4616
 5302SOL    HW216501   6.619   1.845   1.839  1.7781 -0.3679  1.1717
 5303SOL     OW16502   4.324   6.041   5.182  0.5669  0.3577 -0.0257
 5303SOL    HW116503   4.271   6.115   5.151 -0.4726  0.0850  1.0530
 5303SOL    HW216504   4.284   5.964   5.142  1.8227  0.3890 -1.3759
 5304SOL     OW16505   4.178   3.847   3.546  0.2172  0.6930 -0.3196
 5304SOL    HW116506   4.159   3.901   3.623  0.2433  0.2424  0.0038
 5304SOL    HW216507   4.184   3.909   3.473 -1.2932  0.9634 -0.2132
 5305SOL     OW16508   1.610   3.756   1.827  0.4087  0.3244 -0.2413
 5305SOL    HW116509   1.660   3.687   1.783  1.3308  1.1642 -0.5097
 5305SOL    HW216510   1.523   3.717   1.840  0.5033 -0.4015 -1.6415
 5306SOL     OW16511   1.928   0.230   0.267 -0.0274 -0.6695  0.8528
 5306SOL    HW116512   1.870   0.289   0.314  0.1411 -0.6342  1.0145
 5306SOL    HW216513   2.016   0.248   0.302 -0.2082 -2.2651  2.1863
 5307SOL     OW16514   2.192   6.897   2.137  0.0258 -0.1816 -0.1078
 5307SOL    HW116515   2.192   6.955   2.213 -0.8027 -0.2862 -0.0194
 5307SOL    HW216516   2.249   6.824   2.162  0.4676  0.2227  0.0658
 5308SOL     OW16517   7.026   2.833   4.832 -0.1670  0.4041  0.1237
 5308SOL    HW116518   7.084   2.765   4.799  1.9326  1.2008  2.0617
 5308SOL    HW216519   6.954   2.786   4.874  0.7237 -0.6304  0.4995
 5309SOL     OW16520   0.332   3.140   6.923 -0.5208 -0.3070 -0.4486
 5309SOL    HW116521   0.285   3.184   6.853  1.8566  0.1318 -1.8248
 5309SOL    HW216522   0.288   3.168   7.003 -1.5925  1.3530 -1.5866
 5310SOL     OW16523   2.126   3.330   6.747 -0.0960 -0.0537 -0.2789
 5310SOL    HW116524   2.047   3.379   6.724  0.1410 -0.0238 -1.0624
 5310SOL    HW216525   2.186   3.396   6.782 -0.8199 -0.2571  1.3921
 5311SOL     OW16526   4.057   7.076   4.244  0.3967  0.1756 -0.1245
 5311SOL    HW116527   4.054   6.981   4.238 -1.3461  0.0557  1.9731
 5311SOL    HW216528   3.982   7.106   4.192 -1.1038  0.2019  1.9922
 5312SOL     OW16529   4.646   0.947   7.106  0.7210 -0.4847  0.1273
 5312SOL    HW116530   4.563   0.946   7.060  0.8370 -0.1264 -0.0928
 5312SOL    HW216531   4.652   0.861   7.147  0.7932 -0.9406 -0.8386
 5313SOL     OW16532   4.766   6.387   0.093  0.4572  0.3049  0.0184
 5313SOL    HW116533   4.799   6.473   0.068  1.8702  0.0925  1.0987
 5313SOL    HW216534   4.841   6.329   0.083 -0.0999 -0.5435  0.7092
 5314SOL     OW16535   1.709   4.143   4.748  0.3314 -0.6462 -0.1931
 5314SOL    HW116536   1.708   4.232   4.713  1.2454 -0.0238  1.3284
 5314SOL    HW216537   1.619   4.129   4.780  0.1245 -0.3537 -0.6504
 5315SOL     OW16538   5.290   4.535   7.119 -0.1868  0.0072 -0.3643
 5315SOL    HW116539   5.357   4.476   7.086 -1.0126 -0.7633 -0.6822
 5315SOL    HW216540   5.324   4.566   7.203 -0.1094 -1.5796  0.2094
 5316SOL     OW16541   5.032   1.394   7.030 -0.4872  0.1503 -0.0606
 5316SOL    HW116542   5.034   1.441   6.947 -1.0211  0.8640  0.3297
 5316SOL    HW216543   5.001   1.306   7.007  1.4303 -0.3134 -0.9250
 5317SOL     OW16544   1.338   1.635   1.868  0.1145  0.0357  0.0466
 5317SOL    HW116545   1.315   1.576   1.796  2.7372 -2.4263  1.1229
 5317SOL    HW216546   1.389   1.705   1.826  1.1537 -1.0795 -0.5707
 5318SOL     OW16547   2.732   5.776   0.287 -0.4397 -0.6948  0.3992
 5318SOL    HW116548   2.702   5.865   0.268  2.4152 -0.2786 -2.4055
 5318SOL    HW216549   2.652   5.724   0.290 -1.9800  1.5904  0.1102
 5319SOL     OW16550   5.608   6.261   2.486  0.3578  0.0109  0.1084
 5319SOL    HW116551   5.667   6.277   2.413  2.0619 -1.2964  1.1520
 5319SOL    HW216552   5.548   6.336   2.486  0.2585 -0.0065 -2.6488
 5320SOL     OW16553   6.839   1.012   5.125  0.2102  0.3732 -0.0523
 5320SOL    HW116554   6.764   0.966   5.087 -0.7655 -0.6832  2.9209
 5320SOL    HW216555   6.824   1.104   5.106 -1.8035  0.1535  0.3519
 5321SOL     OW16556   1.350   5.202   0.852  0.2518 -1.1465 -0.1950
 5321SOL    HW116557   1.423   5.263   0.837 -0.0886 -0.6565  0.1445
 5321SOL    HW216558   1.337   5.159   0.768  1.7209 -2.0974  0.0458
 5322SOL     OW16559   3.639   3.320   7.199 -0.4033 -0.0926 -0.2240
 5322SOL    HW116560   3.609   3.264   7.127 -1.1245 -0.2332  0.1788
 5322SOL    HW216561   3.732   3.335   7.181 -0.6073 -0.0419 -1.2336
 5323SOL     OW16562   6.477   1.387   4.113 -0.1586 -0.2226 -0.2990
 5323SOL    HW116563   6.487   1.350   4.025 -1.8151 -0.2472 -0.4855
 5323SOL    HW216564   6.523   1.471   4.109  0.4078 -0.5590 -0.9623
 5324SOL     OW16565   5.815   6.620   5.301  0.2342 -0.1698 -0.0094
 5324SOL    HW116566   5.847   6.700   5.259 -0.8282  0.4894  0.4244
 5324SOL    HW216567   5.834   6.632   5.394 -0.4216 -0.1912  0.1265
 5325SOL     OW16568   5.561   2.460   4.275 -0.0223  0.3951 -0.2640
 5325SOL    HW116569   5.466   2.461   4.280 -0.0931 -2.1440 -0.3531
 5325SOL    HW216570   5.589   2.531   4.333 -1.9605  1.6556 -0.8400
 5326SOL     OW16571   7.050   1.094   1.602  0.4139 -0.4578  0.1280
 5326SOL    HW116572   7.113   1.125   1.667 -0.2067  1.4277 -0.1424
 5326SOL    HW216573   6.969   1.079   1.652 -0.2516  1.6186 -0.2940
 5327SOL     OW16574   2.627   1.718   6.535  0.1710  0.1132 -0.8423
 5327SOL    HW116575   2.655   1.666   6.610 -0.2244  1.5139  0.3173
 5327SOL    HW216576   2.639   1.661   6.459 -0.2898 -1.6432  0.3859
 5328SOL     OW16577   4.749   1.774   2.513 -0.2531  0.0254 -0.1553
 5328SOL    HW116578   4.749   1.870   2.512 -0.8115  0.0687  2.1098
 5328SOL    HW216579   4.726   1.751   2.603 -0.7068 -2.2444 -0.8241
 5329SOL     OW16580   2.959   2.563   5.321 -0.2391 -0.0775 -0.1116
 5329SOL    HW116581   2.969   2.603   5.234  2.1884 -0.1886  0.0675
 5329SOL    HW216582   2.963   2.469   5.304 -1.3148 -0.1427 -0.0320
 5330SOL     OW16583   4.475   0.791   0.874  0.2516  0.1927 -0.0015
 5330SOL    HW116584   4.544   0.858   0.875  0.6534 -0.2247  0.1355
 5330SOL    HW216585   4.394   0.842   0.882  0.4313  0.7991 -1.8714
 5331SOL     OW16586   2.655   3.714   2.531  0.3578 -0.0276 -0.3457
 5331SOL    HW116587   2.672   3.634   2.581  0.7270 -0.8199 -1.7104
 5331SOL    HW216588   2.653   3.685   2.439  0.9103  1.5977 -0.8842
 5332SOL     OW16589   4.963   0.101   0.030 -0.4255 -0.1974  0.2738
 5332SOL    HW116590   4.994   0.137   0.113  0.7472 -0.2860 -0.1117
 5332SOL    HW216591   4.990   0.166  -0.035 -3.4380  1.0362  0.2129
 5333SOL     OW16592   2.547   2.058   0.858 -0.2423  0.2212  0.0140
 5333SOL    HW116593   2.459   2.095   0.850 -0.3334 -0.6206 -3.4287
 5333SOL    HW216594   2.606   2.132   0.839 -0.2839  0.0353 -0.8432
 5334SOL     OW16595   6.304   3.941   4.864 -0.3747 -0.8539 -0.6614
 5334SOL    HW116596   6.290   3.851   4.891 -3.9109 -0.6942 -1.7351
 5334SOL    HW216597   6.217   3.975   4.845  0.8065  2.9570  0.1545
 5335SOL     OW16598   6.217   6.021   5.344 -0.7376 -0.3007  0.1006
 5335SOL    HW116599   6.209   6.086   5.414 -1.6589 -0.4980  0.1897
 5335SOL    HW216600   6.130   6.018   5.305 -0.8756 -1.9198  0.4870
 5336SOL     OW16601   3.605   6.162   6.134 -0.2135  0.1580  0.3008
 5336SOL    HW116602   3.631   6.133   6.221 -1.5088  0.5320  0.8201
 5336SOL    HW216603   3.679   6.215   6.103 -0.0042  0.5252  1.4285
 5337SOL     OW16604   2.677   4.136   4.717  0.3527  0.3305 -0.1719
 5337SOL    HW116605   2.689   4.197   4.790 -0.2504 -0.6109  0.7270
 5337SOL    HW216606   2.647   4.191   4.645  1.4090  1.3409  0.1547
 5338SOL     OW16607   2.380   4.262   6.569 -0.0519  0.6567  0.1183
 5338SOL    HW116608   2.371   4.202   6.643 -0.9755  1.5793  0.7700
 5338SOL    HW216609   2.414   4.343   6.609  0.7217  0.7297 -0.6748
 5339SOL     OW16610   4.230   5.703   6.669  0.7200  0.3670 -0.5136
 5339SOL    HW116611   4.322   5.703   6.642  1.1820 -2.8418  0.8855
 5339SOL    HW216612   4.186   5.646   6.606  0.2190 -0.3781  0.5061
 5340SOL     OW16613   4.314   3.443   6.729 -0.1647 -0.0853  0.3242
 5340SOL    HW116614   4.263   3.461   6.649  0.6146  0.3749 -0.0710
 5340SOL    HW216615   4.252   3.459   6.800 -0.4997  0.7887 -0.1452
 5341SOL     OW16616   6.379   4.839   6.148  0.6432 -0.5983 -0.2684
 5341SOL    HW116617   6.434   4.841   6.069  1.0866  2.2744  0.0469
 5341SOL    HW216618   6.371   4.931   6.173 -1.9892 -1.2197  1.3302
 5342SOL     OW16619   1.464   6.271   2.952  0.1967  0.4610  0.3361
 5342SOL    HW116620   1.413   6.324   3.013  0.4285  1.7251 -0.5335
 5342SOL    HW216621   1.552   6.307   2.956  0.8306 -1.1505  1.1782
 5343SOL     OW16622   6.107   4.264   0.328 -0.2092 -0.0544 -0.6170
 5343SOL    HW116623   6.022   4.222   0.316  0.5255 -1.2358 -1.8757
 5343SOL    HW216624   6.158   4.202   0.380  1.0295 -0.9716 -2.8591
 5344SOL     OW16625   0.786   1.993   5.831  0.2561  0.2331 -0.1193
 5344SOL    HW116626   0.738   1.970   5.752 -1.7936  0.0993  1.1281
 5344SOL    HW216627   0.878   1.988   5.805 -0.3920  1.1490 -2.7330
 5345SOL     OW16628   0.971   4.178   0.347 -0.0300  0.1722 -0.2285
 5345SOL    HW116629   0.878   4.158   0.353 -0.0809  0.6748  0.7981
 5345SOL    HW216630   0.975   4.261   0.299 -0.1301  0.2751 -0.0603
 5346SOL     OW16631   2.357   6.260   0.014  0.0331  0.3295 -0.6238
 5346SOL    HW116632   2.288   6.322  -0.012  0.2690  1.3208  1.0309
 5346SOL    HW216633   2.381   6.288   0.102  0.0056 -2.2605  0.2334
 5347SOL     OW16634   4.732   2.929   0.347  0.5001 -0.5011  0.4320
 5347SOL    HW116635   4.814   2.946   0.299  0.3645  0.7982  0.6419
 5347SOL    HW216636   4.760   2.908   0.436  0.7051 -2.0552  0.0186
 5348SOL     OW16637   7.090   5.431   5.435 -0.3177 -0.0762 -0.4352
 5348SOL    HW116638   7.104   5.493   5.363 -0.5707  0.8335  0.2886
 5348SOL    HW216639   7.122   5.347   5.401 -1.1357  0.1766 -1.8897
 5349SOL     OW16640   1.703   1.068   2.348 -0.0799 -0.6633 -0.5185
 5349SOL    HW116641   1.674   1.130   2.415  0.5586  0.1598 -0.9905
 5349SOL    HW216642   1.773   1.114   2.302  0.1092 -1.5792 -1.1549
 5350SOL     OW16643   5.834   3.434   0.607 -0.1373 -0.0442  0.6571
 5350SOL    HW116644   5.816   3.340   0.600 -0.8621  0.1817 -0.7106
 5350SOL    HW216645   5.928   3.442   0.588  0.2699 -0.6559  2.3836
 5351SOL     OW16646   7.101   5.930   3.473 -0.1997  0.3481  0.0019
 5351SOL    HW116647   7.143   5.946   3.558 -1.2916  1.6135  0.3199
 5351SOL    HW216648   7.167   5.957   3.409  0.9996 -1.5269  0.4018
 5352SOL     OW16649   2.796   2.560   3.855  0.0778  0.0444  0.1312
 5352SOL    HW116650   2.816   2.544   3.948  1.5435 -0.5923 -0.2739
 5352SOL    HW216651   2.705   2.533   3.845 -0.5616  1.5293  1.7116
 5353SOL     OW16652   0.644   1.469   1.779 -0.1322 -0.0355 -0.1031
 5353SOL    HW116653   0.714   1.502   1.836  0.7690  0.0352 -1.2329
 5353SOL    HW216654   0.605   1.548   1.742 -0.2609 -0.1114 -0.1284
 5354SOL     OW16655   5.835   2.138   2.212 -0.4525  0.2166 -0.1748
 5354SOL    HW116656   5.913   2.182   2.176 -0.5757  2.2963  1.9762
 5354SOL    HW216657   5.850   2.137   2.307 -2.9758  0.4991  0.2556
 5355SOL     OW16658   6.080   4.294   0.063 -0.2441  0.8915  0.1397
 5355SOL    HW116659   6.163   4.262   0.027 -0.6864  0.7156 -0.7342
 5355SOL    HW216660   6.092   4.288   0.158 -0.1129 -1.3512  0.0105
 5356SOL     OW16661   4.403   6.855   2.600  0.2502  0.0859  0.3050
 5356SOL    HW116662   4.498   6.844   2.595  0.1388 -0.6025 -0.4808
 5356SOL    HW216663   4.390   6.950   2.606  0.8786  0.3827 -2.5054
 5357SOL     OW16664   6.040   7.251   1.236 -0.1258 -0.2772  0.4297
 5357SOL    HW116665   6.118   7.228   1.186  1.1073 -0.1334  2.2610
 5357SOL    HW216666   6.069   7.317   1.298 -2.3798  2.0809 -0.9191
 5358SOL     OW16667   5.439   3.327   2.937 -0.2022 -0.1198 -0.3251
 5358SOL    HW116668   5.438   3.271   3.014  1.5603 -0.1633 -0.3224
 5358SOL    HW216669   5.393   3.407   2.964  0.4942 -0.0932  0.7838
 5359SOL     OW16670   2.224   2.789   0.144 -0.3351  0.0986 -0.0312
 5359SOL    HW116671   2.131   2.767   0.142 -0.0426 -1.1062 -0.7251
 5359SOL    HW216672   2.226   2.883   0.164 -1.6362 -0.2601  1.9707
 5360SOL     OW16673   6.833   1.538   7.068  0.1467 -0.6385  0.4550
 5360SOL    HW116674   6.812   1.483   7.143 -2.9332 -0.0082  0.1206
 5360SOL    HW216675   6.817   1.481   6.992 -2.6695  0.5424  0.1225
 5361SOL     OW16676   1.917   3.645   2.358  0.3517  0.8315  0.2862
 5361SOL    HW116677   1.869   3.714   2.404 -1.7338 -0.3741 -0.0192
 5361SOL    HW216678   1.899   3.566   2.409  1.1714  0.1726 -0.4320
 5362SOL     OW16679   2.021   1.430   4.148  0.4950 -0.2233  0.5264
 5362SOL    HW116680   1.947   1.479   4.114 -0.3665 -1.7236  0.2123
 5362SOL    HW216681   2.002   1.417   4.241  0.5265 -0.3117  0.5212
 5363SOL     OW16682   1.833   1.858   5.180  0.2850 -0.1137  0.3395
 5363SOL    HW116683   1.889   1.902   5.116 -0.5425 -0.8181 -0.9065
 5363SOL    HW216684   1.817   1.924   5.248 -1.3205  1.7119 -1.7093
 5364SOL     OW16685   4.292   0.328   6.242 -0.1501 -0.1029 -0.3623
 5364SOL    HW116686   4.361   0.273   6.280 -1.2107 -0.7721  0.6158
 5364SOL    HW216687   4.226   0.334   6.311 -1.6797 -0.5535 -1.7594
 5365SOL     OW16688   6.843   6.863   1.370 -0.3086 -0.4098 -0.1138
 5365SOL    HW116689   6.808   6.922   1.436 -0.5303 -0.6290 -0.0389
 5365SOL    HW216690   6.855   6.919   1.293  0.4675 -0.0317  0.2727
 5366SOL     OW16691   2.058   4.556   4.204 -0.8694 -0.1085  0.3793
 5366SOL    HW116692   2.107   4.494   4.149 -1.6257 -0.5673  0.2172
 5366SOL    HW216693   2.038   4.629   4.146 -0.5945 -0.0377  0.3753
 5367SOL     OW16694   3.106   6.164   4.224  0.1542 -0.6985  0.1478
 5367SOL    HW116695   3.055   6.244   4.214  1.8063  0.1654 -1.7355
 5367SOL    HW216696   3.155   6.177   4.306  1.3046  0.7423 -0.7514
 5368SOL     OW16697   4.142   0.641   1.211  0.6763 -0.4366 -0.4839
 5368SOL    HW116698   4.221   0.589   1.218 -0.1570 -1.4980  1.1213
 5368SOL    HW216699   4.160   0.720   1.262  0.4642 -0.9765  0.4325
 5369SOL     OW16700   2.128   3.339   1.879 -0.3748 -0.2790 -0.1301
 5369SOL    HW116701   2.134   3.247   1.907 -0.0985 -0.5653 -1.1026
 5369SOL    HW216702   2.130   3.389   1.960  2.1806 -0.9933  0.2735
 5370SOL     OW16703   5.809   6.807   3.200 -0.2065  0.3052 -0.0889
 5370SOL    HW116704   5.743   6.755   3.246 -0.0494  0.5272  0.3914
 5370SOL    HW216705   5.769   6.893   3.191 -0.6867 -0.0430 -1.3780
 5371SOL     OW16706   1.677   2.784   2.954 -0.5439  0.0923 -0.7234
 5371SOL    HW116707   1.615   2.785   3.027 -1.2794  2.0512 -1.3425
 5371SOL    HW216708   1.746   2.845   2.980 -0.8002  0.7896 -1.6517
 5372SOL     OW16709   4.596   6.795   4.709 -0.4493  0.4571  0.3965
 5372SOL    HW116710   4.637   6.865   4.658 -0.9311  0.4060 -0.0623
 5372SOL    HW216711   4.641   6.715   4.682 -1.7606  0.2123 -1.1053
 5373SOL     OW16712   6.150   4.259   0.672  0.1543 -0.0923  0.3152
 5373SOL    HW116713   6.090   4.270   0.746  0.5372 -1.2840  0.8064
 5373SOL    HW216714   6.237   4.255   0.712  0.5081  0.8068 -0.3327
 5374SOL     OW16715   2.585   0.110   5.191  0.3526  0.6065 -0.3682
 5374SOL    HW116716   2.632   0.164   5.127  2.6589  0.0783  0.8292
 5374SOL    HW216717   2.513   0.166   5.221  2.3512  2.8557  0.4409
 5375SOL     OW16718   3.945   1.669   2.242 -0.2266  0.4073 -0.2518
 5375SOL    HW116719   3.982   1.613   2.173 -1.9420 -0.7902 -0.2387
 5375SOL    HW216720   3.921   1.608   2.311 -0.0752  1.4312  0.7104
 5376SOL     OW16721   2.948   5.030   5.864  0.4497 -0.2086 -0.4538
 5376SOL    HW116722   3.022   4.969   5.873  1.0890  0.8227  1.4650
 5376SOL    HW216723   2.893   5.013   5.940  1.3486  2.5235  0.8842
 5377SOL     OW16724   5.045   6.730   0.958 -0.3082  0.1818 -0.0725
 5377SOL    HW116725   5.021   6.808   0.908 -1.5384  0.6648  1.2289
 5377SOL    HW216726   4.984   6.663   0.930  1.7285 -0.8105 -2.3344
 5378SOL     OW16727   2.403   2.934   6.969 -0.4178  0.6035 -0.0701
 5378SOL    HW116728   2.377   2.899   6.883  2.0194 -1.4777 -0.0143
 5378SOL    HW216729   2.336   2.902   7.029 -0.7199 -0.1170 -0.7831
 5379SOL     OW16730   0.031   4.566   6.993 -0.5079  0.4051  0.0444
 5379SOL    HW116731  -0.053   4.548   7.036 -0.6866  1.2586  0.0588
 5379SOL    HW216732   0.007   4.595   6.905 -0.2035  0.1864 -0.1127
 5380SOL     OW16733   3.246   6.191   4.480  0.2070 -0.1330 -0.1231
 5380SOL    HW116734   3.328   6.143   4.470 -0.2297 -0.8977 -0.1105
 5380SOL    HW216735   3.267   6.280   4.452  1.2137 -0.1495  0.5544
 5381SOL     OW16736   0.962   0.292   6.167  0.5212  0.3083 -0.2947
 5381SOL    HW116737   0.900   0.365   6.174  0.3211  0.1089  0.0356
 5381SOL    HW216738   1.018   0.300   6.244  1.0756  0.6409 -0.7339
 5382SOL     OW16739   6.745   1.704   4.843 -0.2914  0.0785 -0.0553
 5382SOL    HW116740   6.754   1.704   4.748 -0.2919 -0.2632 -0.0552
 5382SOL    HW216741   6.715   1.793   4.864  4.2304  1.7433  0.0090
 5383SOL     OW16742   6.572   6.348   4.320 -0.0192  0.6092  0.0506
 5383SOL    HW116743   6.495   6.344   4.263  1.2396 -1.0582 -1.6385
 5383SOL    HW216744   6.616   6.429   4.295 -0.5716  0.9263  0.1124
 5384SOL     OW16745   6.594   6.940   2.178  0.3021  0.6049  0.2215
 5384SOL    HW116746   6.680   6.898   2.181 -0.1299 -0.1922  2.0703
 5384SOL    HW216747   6.538   6.875   2.134  0.3863  0.6639  0.0247
 5385SOL     OW16748   4.313   5.063   4.610  0.2342  0.1108  0.1654
 5385SOL    HW116749   4.268   5.128   4.664 -0.2166 -0.9562  1.1062
 5385SOL    HW216750   4.339   5.111   4.532 -1.2875  1.1024  0.2359
 5386SOL     OW16751   0.405   0.317   0.060  0.6507  0.0610  0.4941
 5386SOL    HW116752   0.358   0.399   0.042  0.6541  0.4232  2.1079
 5386SOL    HW216753   0.407   0.272  -0.025  0.4253  1.6104 -0.3513
 5387SOL     OW16754   6.946   0.269   4.802 -0.2430  0.2008 -0.1389
 5387SOL    HW116755   6.927   0.231   4.716 -0.5029  1.0263 -0.4449
 5387SOL    HW216756   6.964   0.361   4.785  2.5431 -0.2121  0.3367
 5388SOL     OW16757   1.625   1.861   4.149  0.5475  0.7692 -0.3152
 5388SOL    HW116758   1.656   1.952   4.146 -0.7017  1.1657 -1.5649
 5388SOL    HW216759   1.605   1.839   4.059  0.8052 -0.7545 -0.0125
 5389SOL     OW16760   3.597   3.709   4.474  0.9284  0.2947  0.1725
 5389SOL    HW116761   3.561   3.796   4.456 -0.1410  0.1887  1.7024
 5389SOL    HW216762   3.649   3.721   4.553  1.3907 -0.3059 -0.0421
 5390SOL     OW16763   5.820   4.737   6.300  0.1792  0.3010 -0.4015
 5390SOL    HW116764   5.821   4.757   6.393 -0.3432  1.4263 -0.6335
 5390SOL    HW216765   5.846   4.645   6.295  0.5146  0.3229  0.8254
 5391SOL     OW16766   3.858   4.545   6.411 -0.1779  0.2190  0.1267
 5391SOL    HW116767   3.929   4.592   6.369  0.7846  0.4459  1.9660
 5391SOL    HW216768   3.810   4.611   6.461  0.9640 -0.6135  2.4257
 5392SOL     OW16769   1.669   2.739   3.868  0.3331 -0.5525  0.6037
 5392SOL    HW116770   1.601   2.720   3.933 -1.0442  0.2913 -0.5554
 5392SOL    HW216771   1.643   2.689   3.791  1.3927 -0.7444  0.3657
 5393SOL     OW16772   1.289   4.535   2.177 -0.2291 -0.2266  0.5429
 5393SOL    HW116773   1.329   4.453   2.206  0.1139  0.2933  1.5609
 5393SOL    HW216774   1.239   4.511   2.099 -0.7989 -1.5627  1.3047
 5394SOL     OW16775   7.186   0.989   4.449  0.1851 -0.1562  0.0319
 5394SOL    HW116776   7.117   1.037   4.404  0.4969 -0.5514 -0.8844
 5394SOL    HW216777   7.251   0.972   4.381  0.7581 -0.5914  0.6824
 5395SOL     OW16778   7.097   1.021   5.718 -0.3920  0.1816 -0.1808
 5395SOL    HW116779   7.060   0.933   5.710  1.0640 -0.5837  1.2121
 5395SOL    HW216780   7.188   1.012   5.691 -0.0062  1.0854  0.7923
 5396SOL     OW16781   6.432   1.662   5.063  0.4940  0.3887  0.2030
 5396SOL    HW116782   6.371   1.609   5.114  2.0051  0.2636  1.9338
 5396SOL    HW216783   6.377   1.712   5.003 -1.2225 -0.3403  1.1502
 5397SOL     OW16784   0.691   6.930   6.534  0.1307 -0.2145 -0.3061
 5397SOL    HW116785   0.729   6.933   6.622 -0.1827  0.8811 -0.2005
 5397SOL    HW216786   0.766   6.939   6.476  0.3186 -0.7481 -0.1510
 5398SOL     OW16787   6.518   4.012   0.020 -0.2379 -0.2760  0.4736
 5398SOL    HW116788   6.457   4.015  -0.054  0.3055  0.4182  0.0474
 5398SOL    HW216789   6.463   3.991   0.095 -0.5985 -2.3769 -0.3434
 5399SOL     OW16790   1.870   0.567   5.182  0.4565  0.1561  0.6784
 5399SOL    HW116791   1.878   0.641   5.122  0.7037  2.2556  3.2044
 5399SOL    HW216792   1.860   0.491   5.125  0.3776  2.0936 -1.9982
 5400SOL     OW16793   2.266   6.483   7.136 -0.1665  0.6285 -0.8846
 5400SOL    HW116794   2.317   6.442   7.066  1.0441  1.5743 -0.5774
 5400SOL    HW216795   2.265   6.576   7.114 -1.6724  0.6533 -0.8115
 5401SOL     OW16796   4.304   2.253   4.428  0.3566  0.0258 -0.0858
 5401SOL    HW116797   4.272   2.293   4.348  1.1455  1.1824  0.1707
 5401SOL    HW216798   4.230   2.255   4.488 -0.3369 -1.1453 -0.8740
 5402SOL     OW16799   5.303   2.710   1.776 -0.0887  0.5817  0.2881
 5402SOL    HW116800   5.272   2.730   1.687 -0.1723 -0.4450  0.0734
 5402SOL    HW216801   5.348   2.626   1.767 -0.8220  0.0546  1.3603
 5403SOL     OW16802   1.945   2.198   1.800 -0.2773  0.1153  0.3487
 5403SOL    HW116803   1.881   2.128   1.816 -0.9968  0.2175 -1.8871
 5403SOL    HW216804   1.892   2.277   1.788  0.4859  0.8937  1.9904
 5404SOL     OW16805   4.007   0.400   1.341 -0.0297  0.3518 -0.0737
 5404SOL    HW116806   4.024   0.484   1.299  2.2691 -0.7462 -1.4460
 5404SOL    HW216807   4.049   0.408   1.427 -1.1071  1.1089  0.3966
 5405SOL     OW16808   5.141   2.977   0.203  0.1871  0.0353  0.5003
 5405SOL    HW116809   5.113   3.012   0.287 -0.2008  2.6502 -0.6656
 5405SOL    HW216810   5.232   3.004   0.194  0.6783 -1.5394  0.7491
 5406SOL     OW16811   3.946   3.246   2.648  0.0094  0.1060 -0.2525
 5406SOL    HW116812   3.984   3.334   2.640  1.1003 -0.2611  0.8086
 5406SOL    HW216813   3.890   3.238   2.571  1.9915  0.7048 -1.7996
 5407SOL     OW16814   1.864   1.271   2.189  0.1340 -0.5368  0.3720
 5407SOL    HW116815   1.900   1.274   2.278 -0.2964  1.5843  0.4953
 5407SOL    HW216816   1.930   1.224   2.138  0.6874 -1.1946  1.6626
 5408SOL     OW16817   5.714   7.246   1.328 -0.0843 -0.1779  0.5563
 5408SOL    HW116818   5.665   7.169   1.298  1.7533 -1.3178  0.4164
 5408SOL    HW216819   5.725   7.232   1.422 -0.7358  0.4937  0.7387
 5409SOL     OW16820   6.351   2.534   4.275 -0.3001  0.3565  0.7486
 5409SOL    HW116821   6.384   2.624   4.269 -2.7835  1.3020  0.3656
 5409SOL    HW216822   6.369   2.508   4.365  0.1811  1.3541  0.9523
 5410SOL     OW16823   5.011   3.948   4.485  0.3964  0.1509 -0.2708
 5410SOL    HW116824   4.951   3.930   4.557 -1.5219 -0.9245 -2.0662
 5410SOL    HW216825   5.091   3.981   4.527 -0.6004 -0.6386  2.3212
 5411SOL     OW16826   5.539   2.486   2.106 -0.1805  0.2708  0.3589
 5411SOL    HW116827   5.619   2.518   2.067 -0.9212  1.6594 -0.0488
 5411SOL    HW216828   5.475   2.555   2.090 -1.1535 -0.2927  1.7219
 5412SOL     OW16829   0.837   0.063   2.578  0.2235  0.0283  0.4047
 5412SOL    HW116830   0.829  -0.027   2.547  1.1968 -0.0354  0.3142
 5412SOL    HW216831   0.902   0.103   2.520  0.8388  0.3836  1.3194
 5413SOL     OW16832   5.115   0.810   0.868 -0.7397 -0.5132 -0.3326
 5413SOL    HW116833   5.122   0.865   0.790  0.7190 -0.2559 -0.0261
 5413SOL    HW216834   5.169   0.733   0.849 -1.1874 -0.9239  0.0273
 5414SOL     OW16835   2.247   5.697   1.998 -0.5289  0.5131  0.2669
 5414SOL    HW116836   2.163   5.741   1.982 -0.6416  0.3761  0.4844
 5414SOL    HW216837   2.313   5.765   1.983 -0.5859  0.1779 -1.6714
 5415SOL     OW16838   3.753   6.457   4.966 -0.3245 -0.1914 -0.1624
 5415SOL    HW116839   3.787   6.422   4.884  0.8878 -0.6732  0.5316
 5415SOL    HW216840   3.663   6.423   4.970 -0.1563 -0.7653 -0.9392
 5416SOL     OW16841   0.324   5.291   4.880  0.0277 -0.0245  0.2827
 5416SOL    HW116842   0.309   5.319   4.790 -4.2009  1.4363  1.3358
 5416SOL    HW216843   0.276   5.209   4.889  0.1113  0.0264  1.2977
 5417SOL     OW16844   4.145   0.066   2.960 -0.0037  0.6333  0.1163
 5417SOL    HW116845   4.238   0.046   2.969 -0.3690 -1.6457 -0.9461
 5417SOL    HW216846   4.139   0.112   2.876 -0.2168 -1.8351 -1.2435
 5418SOL     OW16847   6.830   7.177   2.629  0.1803  0.0239  0.1423
 5418SOL    HW116848   6.862   7.173   2.539  0.0941 -4.5457  0.1998
 5418SOL    HW216849   6.745   7.134   2.626  1.0160 -1.9160  2.6884
 5419SOL     OW16850   6.111   1.776   6.914  0.2007 -0.0457 -0.3307
 5419SOL    HW116851   6.192   1.827   6.915 -1.1579  2.1544 -0.1004
 5419SOL    HW216852   6.094   1.757   7.006  0.8378 -1.1286 -0.4361
 5420SOL     OW16853   2.598   0.728   1.341  0.2180 -0.0682 -0.0212
 5420SOL    HW116854   2.639   0.812   1.320  0.4698  0.1466  1.2556
 5420SOL    HW216855   2.619   0.672   1.267  0.2985  0.9148 -0.7516
 5421SOL     OW16856   1.859   4.881   3.389  0.1156  0.0826 -0.5898
 5421SOL    HW116857   1.827   4.916   3.471  0.6638  0.5303 -0.5676
 5421SOL    HW216858   1.782   4.839   3.349 -0.6500  1.7214 -0.8523
 5422SOL     OW16859   2.630   1.322   6.687  0.2551  0.5674  0.0830
 5422SOL    HW116860   2.573   1.295   6.759  2.3895  0.1157  1.6506
 5422SOL    HW216861   2.583   1.295   6.608 -0.8257 -1.5505  1.3988
 5423SOL     OW16862   4.953   0.846   7.127  0.2311 -0.1345 -0.3810
 5423SOL    HW116863   4.963   0.908   7.200  1.2396 -1.2731  0.4703
 5423SOL    HW216864   4.894   0.890   7.067  1.8773  2.2040 -0.3794
 5424SOL     OW16865   1.482   1.079   2.814 -0.6559 -0.6389  0.0675
 5424SOL    HW116866   1.513   1.129   2.739  0.3572 -0.0368  0.8701
 5424SOL    HW216867   1.481   1.142   2.886  0.5551 -1.7443  1.0681
 5425SOL     OW16868   4.544   5.743   1.642  0.1270  0.0911 -0.2393
 5425SOL    HW116869   4.603   5.784   1.580 -1.4641  0.1941 -1.7085
 5425SOL    HW216870   4.535   5.806   1.713  0.2023  0.9287 -0.9724
 5426SOL     OW16871   4.404   0.146   0.999  0.0789  0.3814 -0.8467
 5426SOL    HW116872   4.387   0.152   0.905 -0.5873  0.2722 -0.7363
 5426SOL    HW216873   4.488   0.188   1.011 -0.1007  0.9055 -1.4166
 5427SOL     OW16874   0.790   3.880   3.937 -0.3834  0.2049  0.4354
 5427SOL    HW116875   0.785   3.922   3.851 -0.4640  0.8381  0.7437
 5427SOL    HW216876   0.864   3.820   3.931 -0.6313 -0.0370 -0.1981
 5428SOL     OW16877   1.319   2.178   3.272  1.1286  0.5404 -0.0246
 5428SOL    HW116878   1.415   2.181   3.274  1.1009  3.2820  0.0911
 5428SOL    HW216879   1.292   2.269   3.289 -1.4818 -0.0479 -0.7529
 5429SOL     OW16880   7.017   5.392   0.557 -0.0773  0.0158 -0.3532
 5429SOL    HW116881   6.944   5.417   0.500 -0.1110 -2.1132 -1.3036
 5429SOL    HW216882   7.041   5.304   0.528  2.5037  0.4425  0.3339
 5430SOL     OW16883   6.220   4.349   5.983 -0.0862 -0.1393  0.4022
 5430SOL    HW116884   6.279   4.330   6.056  1.9994 -0.4475 -1.3251
 5430SOL    HW216885   6.259   4.426   5.941 -0.9590 -0.3082 -0.7196
 5431SOL     OW16886   2.805   2.529   6.133  0.5266 -0.6986  0.0279
 5431SOL    HW116887   2.789   2.444   6.175 -0.6207 -0.2321  0.5866
 5431SOL    HW216888   2.827   2.588   6.205 -1.0535  0.0164 -0.0292
 5432SOL     OW16889   6.505   2.635   6.430  0.1766  0.0151 -0.3797
 5432SOL    HW116890   6.580   2.603   6.381  0.1007  0.5401 -0.8374
 5432SOL    HW216891   6.514   2.595   6.516  1.8302  1.2932  0.0716
 5433SOL     OW16892   3.500   4.408   3.101 -0.0959 -0.0667 -0.1605
 5433SOL    HW116893   3.469   4.396   3.011  1.4065 -0.7344 -0.5978
 5433SOL    HW216894   3.512   4.319   3.135 -0.1522  0.1795  0.5265
 5434SOL     OW16895   6.100   4.745   2.603  0.8522  0.1544  0.0569
 5434SOL    HW116896   6.069   4.785   2.684  0.6919  0.2918 -0.0715
 5434SOL    HW216897   6.091   4.814   2.538 -0.0503 -0.3016 -0.3019
 5435SOL     OW16898   6.083   0.302   5.318  0.3691 -0.0595 -0.2104
 5435SOL    HW116899   6.094   0.215   5.280  1.1620  0.0485 -0.2396
 5435SOL    HW216900   6.014   0.292   5.383 -0.1765 -0.5094 -0.8483
 5436SOL     OW16901   0.617   1.179   0.954  0.2168 -0.1118  0.1312
 5436SOL    HW116902   0.615   1.206   1.046 -1.7588 -0.7450  0.3030
 5436SOL    HW216903   0.528   1.198   0.922  0.9749  0.4017 -1.7353
 5437SOL     OW16904   2.938   5.348   6.918  0.2042 -0.2006  0.3105
 5437SOL    HW116905   2.995   5.388   6.983 -0.7065  0.2715  0.8329
 5437SOL    HW216906   2.853   5.341   6.961  0.4383 -3.1135  0.3746
 5438SOL     OW16907   3.956   6.342   6.331  0.0314 -0.3999 -0.0817
 5438SOL    HW116908   4.030   6.402   6.341 -0.2425  0.0436 -0.7288
 5438SOL    HW216909   3.958   6.289   6.411  1.6551 -1.0582 -0.5423
 5439SOL     OW16910   6.435   2.732   0.388 -0.4193  0.3430  0.1729
 5439SOL    HW116911   6.428   2.648   0.434  2.2157  0.2531  0.4727
 5439SOL    HW216912   6.457   2.708   0.298 -1.5257  0.6686 -0.1935
 5440SOL     OW16913   3.873   3.021   4.380 -0.0863 -0.3502 -0.4004
 5440SOL    HW116914   3.940   3.088   4.366 -0.5902  0.2455  0.0397
 5440SOL    HW216915   3.834   3.008   4.294 -0.3695  0.3279 -0.3774
 5441SOL     OW16916   1.977   2.776   1.192 -0.5284 -0.4224  0.3269
 5441SOL    HW116917   1.923   2.825   1.254  0.1022  0.4556  0.1775
 5441SOL    HW216918   2.035   2.724   1.248  0.4881  0.8650  0.4727
 5442SOL     OW16919   3.296   1.947   6.680  0.2413  0.0956 -0.0839
 5442SOL    HW116920   3.355   2.017   6.651  2.0074 -2.0793 -1.9940
 5442SOL    HW216921   3.226   1.946   6.614  1.1834 -1.0679 -1.1004
 5443SOL     OW16922   0.101   4.843   3.862 -0.2064 -0.1955  0.2200
 5443SOL    HW116923   0.142   4.926   3.888 -0.0170 -0.3475  0.4079
 5443SOL    HW216924   0.156   4.810   3.792  0.9978 -1.2446  1.6136
 5444SOL     OW16925   4.528   1.413   4.688 -0.4434  0.0213 -0.1022
 5444SOL    HW116926   4.480   1.362   4.623 -3.6720  1.3955  1.1019
 5444SOL    HW216927   4.525   1.503   4.655  3.4397 -0.1640 -1.1951
 5445SOL     OW16928   7.062   4.183   4.983  0.0329  0.1888  0.0597
 5445SOL    HW116929   6.990   4.235   4.948 -1.4398 -2.2683 -0.6832
 5445SOL    HW216930   7.056   4.193   5.078 -2.4753 -1.5101  0.0984
 5446SOL     OW16931   1.252   2.468   4.883 -0.0238  0.2207  0.6438
 5446SOL    HW116932   1.185   2.526   4.847 -0.3740  0.4638  1.6668
 5446SOL    HW216933   1.318   2.526   4.920  0.1190 -0.0228  0.7761
 5447SOL     OW16934   2.246   1.664   6.113 -0.2042 -0.0401  0.1746
 5447SOL    HW116935   2.197   1.604   6.057 -1.5257  0.7346  0.4844
 5447SOL    HW216936   2.226   1.751   6.079 -0.6734  0.4124  1.5740
 5448SOL     OW16937   5.879   3.363   3.784 -0.2475 -0.7500  0.7230
 5448SOL    HW116938   5.910   3.313   3.860 -1.0127  0.1843  1.6541
 5448SOL    HW216939   5.919   3.319   3.709  2.4544 -0.2438  1.8100
 5449SOL     OW16940   7.256   3.561   5.486  0.4470 -0.4496 -0.3662
 5449SOL    HW116941   7.266   3.486   5.427  1.6802  1.0578 -2.1255
 5449SOL    HW216942   7.161   3.570   5.497  0.0892  0.1640 -3.4259
 5450SOL     OW16943   2.417   5.348   2.840 -0.1480 -0.3317 -0.3879
 5450SOL    HW116944   2.457   5.389   2.763  0.5279  0.4264  0.3625
 5450SOL    HW216945   2.382   5.421   2.891  0.2443 -0.7422  0.4925
 5451SOL     OW16946   1.364   3.716   5.721 -0.0600 -0.3710  0.1810
 5451SOL    HW116947   1.402   3.741   5.637  0.8819 -2.0167  0.0982
 5451SOL    HW216948   1.275   3.688   5.700 -0.5553  1.2188  0.0506
 5452SOL     OW16949   4.409   3.555   2.728  0.5978  0.1642 -0.0864
 5452SOL    HW116950   4.470   3.486   2.700 -0.9302 -0.4352 -1.9998
 5452SOL    HW216951   4.427   3.628   2.668 -0.7796 -0.1251 -0.8490
 5453SOL     OW16952   5.106   1.656   3.611  0.2762  0.2527 -0.3543
 5453SOL    HW116953   5.186   1.706   3.625  0.5198 -0.1656 -0.2215
 5453SOL    HW216954   5.068   1.691   3.530  0.1124  1.0740  0.0717
 5454SOL     OW16955   6.489   2.610   4.817 -0.1203 -0.3123  0.3125
 5454SOL    HW116956   6.570   2.661   4.818  0.0562 -0.4944 -1.5381
 5454SOL    HW216957   6.420   2.673   4.839  0.4507 -0.0252  1.2898
 5455SOL     OW16958   3.168   0.517   2.370  0.1613 -0.8778  0.6689
 5455SOL    HW116959   3.147   0.600   2.326  1.6303 -1.7266 -1.7352
 5455SOL    HW216960   3.084   0.474   2.382 -0.4688  0.3081  0.5852
 5456SOL     OW16961   1.858   0.658   3.497 -0.5652  0.2043 -0.1680
 5456SOL    HW116962   1.826   0.734   3.546  0.3855  0.9079 -0.6158
 5456SOL    HW216963   1.953   0.662   3.505 -0.4510 -0.2986 -1.1394
 5457SOL     OW16964   4.508   2.863   7.231  0.2410  0.3068  0.0177
 5457SOL    HW116965   4.435   2.918   7.202  0.8610  0.6104 -0.9840
 5457SOL    HW216966   4.577   2.878   7.166  0.7914 -0.8571  0.3211
 5458SOL     OW16967   6.690   5.820   7.067 -0.0335  0.4213  0.5033
 5458SOL    HW116968   6.683   5.866   7.151 -2.9951  0.8865  0.0545
 5458SOL    HW216969   6.749   5.875   7.014 -0.0861  1.3916  1.4363
 5459SOL     OW16970   7.228   3.284   2.165  0.8681  0.1409 -0.2943
 5459SOL    HW116971   7.281   3.261   2.089  0.2925  0.8739 -0.9201
 5459SOL    HW216972   7.285   3.340   2.217  1.9594 -1.8899  0.7996
 5460SOL     OW16973   3.950   1.818   0.202  0.3653  0.3299  0.2600
 5460SOL    HW116974   3.921   1.758   0.133  0.8081 -0.8976  1.1248
 5460SOL    HW216975   3.993   1.889   0.155 -2.3280  1.2426 -0.9245
 5461SOL     OW16976   5.456   4.584   2.884 -0.1357  0.3074 -0.2564
 5461SOL    HW116977   5.492   4.588   2.972  0.5793 -1.7688 -0.4254
 5461SOL    HW216978   5.390   4.515   2.888 -0.9612  1.0401 -1.0497
 5462SOL     OW16979   0.652   4.977   2.778 -0.3157  0.9177  0.0189
 5462SOL    HW116980   0.581   4.971   2.843 -1.8898  0.7852 -1.6828
 5462SOL    HW216981   0.635   5.058   2.731 -0.0776  0.2509 -1.2467
 5463SOL     OW16982   2.135   2.118   2.641 -0.1704  0.8649 -0.1321
 5463SOL    HW116983   2.055   2.138   2.592 -1.3884  0.1841  1.5666
 5463SOL    HW216984   2.114   2.041   2.693  2.3737 -0.8444 -1.4916
 5464SOL     OW16985   0.936   2.246   3.477 -0.2908 -0.3461  0.6777
 5464SOL    HW116986   0.907   2.195   3.553  1.4026 -2.1987  0.1267
 5464SOL    HW216987   1.028   2.265   3.496  0.1896 -0.9798 -0.9819
 5465SOL     OW16988   5.862   0.218   2.864  0.3512  0.2048  0.3557
 5465SOL    HW116989   5.868   0.132   2.821 -1.8956  0.7177 -1.0501
 5465SOL    HW216990   5.904   0.205   2.949  1.5091 -1.8469 -0.4964
 5466SOL     OW16991   1.372   4.073   4.511 -0.0410 -0.7957 -0.8915
 5466SOL    HW116992   1.373   4.052   4.604 -0.2053 -0.9057 -0.9148
 5466SOL    HW216993   1.284   4.107   4.495  0.2006 -0.1676 -0.8715
 5467SOL     OW16994   4.196   7.136   0.353  0.4345  0.2378  0.8728
 5467SOL    HW116995   4.112   7.174   0.378  1.0243  0.6921  2.2145
 5467SOL    HW216996   4.173   7.054   0.310 -0.6600  0.0043  1.8783
 5468SOL     OW16997   1.701   4.425   1.532 -0.7105 -0.0008 -0.0863
 5468SOL    HW116998   1.628   4.472   1.573 -0.6604  1.4102 -1.5842
 5468SOL    HW216999   1.680   4.425   1.439  1.4901  0.9550 -0.6044
 5469SOL     OW17000   2.579   2.560   1.320 -0.3038 -0.1949 -0.1496
 5469SOL    HW117001   2.485   2.556   1.300 -0.4195 -1.1818  0.5552
 5469SOL    HW217002   2.619   2.499   1.259 -0.2671 -0.7205  0.4029
 5470SOL     OW17003   3.975   2.387   5.330  0.3040 -0.2568 -0.0055
 5470SOL    HW117004   3.964   2.454   5.263 -2.1819 -0.3816  0.2257
 5470SOL    HW217005   4.069   2.387   5.349  0.4102  2.8100 -0.3514
 5471SOL     OW17006   3.741   0.513   4.881  0.1964 -0.0411  0.0233
 5471SOL    HW117007   3.690   0.592   4.901  2.4826  1.4123  0.2737
 5471SOL    HW217008   3.734   0.504   4.786  0.2688  0.7070 -0.0572
 5472SOL     OW17009   3.188   4.477   0.955 -0.3490  0.0399  0.0282
 5472SOL    HW117010   3.138   4.500   1.033 -0.6332  0.8249 -0.3750
 5472SOL    HW217011   3.270   4.439   0.989 -0.9759 -0.7340  0.6888
 5473SOL     OW17012   0.858   1.161   4.970  0.1862  0.6265 -0.8084
 5473SOL    HW117013   0.763   1.160   4.984  0.1830  0.9375 -0.7936
 5473SOL    HW217014   0.870   1.135   4.879  0.0405  1.3119 -1.0284
 5474SOL     OW17015   4.458   4.702   2.974 -0.2756 -0.0281 -0.2545
 5474SOL    HW117016   4.553   4.703   2.985 -0.3139  1.0463  0.0490
 5474SOL    HW217017   4.438   4.784   2.930 -0.9693 -0.6850 -1.1894
 5475SOL     OW17018   1.737   4.888   2.924  0.7750  0.0356 -0.1413
 5475SOL    HW117019   1.677   4.896   2.850  2.7926  0.1366 -1.8135
 5475SOL    HW217020   1.780   4.973   2.928  2.5068 -0.8093 -0.4895
 5476SOL     OW17021   2.896   2.773   6.232  0.1231 -0.3176 -0.0746
 5476SOL    HW117022   2.845   2.854   6.231 -0.0068 -0.3981 -0.0689
 5476SOL    HW217023   2.949   2.779   6.311  1.5661  0.6463 -1.1022
 5477SOL     OW17024   2.551   3.668   3.480 -0.6054  0.6440  0.6090
 5477SOL    HW117025   2.478   3.626   3.435  0.5360  1.2171 -1.8888
 5477SOL    HW217026   2.608   3.596   3.507 -1.5121  0.2679  1.5420
 5478SOL     OW17027   5.356   0.048   5.706  0.0694 -0.8507  0.5530
 5478SOL    HW117028   5.284   0.088   5.755 -1.7951 -2.2576 -0.9969
 5478SOL    HW217029   5.349   0.086   5.618  2.4340  0.4697  0.8817
 5479SOL     OW17030   5.219   1.433   4.953  0.5351 -0.2823 -0.1374
 5479SOL    HW117031   5.276   1.460   5.026  0.0702  0.7858 -0.1607
 5479SOL    HW217032   5.182   1.515   4.920 -1.3644 -0.9919  0.1664
 5480SOL     OW17033   5.053   3.206   0.651 -0.0200  0.1674  0.3591
 5480SOL    HW117034   5.148   3.215   0.646  0.0058 -0.2555  0.0220
 5480SOL    HW217035   5.033   3.208   0.745  0.1336  2.0995  0.3662
 5481SOL     OW17036   1.715   1.453   0.255 -0.1588 -0.9429 -0.7458
 5481SOL    HW117037   1.642   1.491   0.304 -0.5587 -1.8832 -0.6058
 5481SOL    HW217038   1.677   1.432   0.169 -0.1861 -1.9007 -0.5017
 5482SOL     OW17039   0.266   0.765   5.248 -0.2194 -0.3186 -0.0060
 5482SOL    HW117040   0.201   0.697   5.262 -1.2652  0.5237 -0.7719
 5482SOL    HW217041   0.329   0.727   5.187 -1.8332  0.0702 -1.9256
 5483SOL     OW17042   3.985   1.658   7.000  0.0055  0.6200  0.4102
 5483SOL    HW117043   4.011   1.647   6.909  2.4949  1.4825  0.9822
 5483SOL    HW217044   4.016   1.578   7.044 -0.2983  0.6535  0.6917
 5484SOL     OW17045   5.019   5.287   5.314 -0.3644 -0.4464  0.1335
 5484SOL    HW117046   5.007   5.214   5.376 -0.5267  1.3589  2.2731
 5484SOL    HW217047   4.935   5.334   5.317  0.0352  0.3086 -0.6137
 5485SOL     OW17048   6.261   2.738   4.898  0.3885 -0.2093  0.1759
 5485SOL    HW117049   6.212   2.797   4.955  0.4468 -0.1406  0.1551
 5485SOL    HW217050   6.197   2.672   4.872  0.3342 -0.1795  0.2345
 5486SOL     OW17051   5.854   6.021   0.586  0.7443 -1.1311  0.0393
 5486SOL    HW117052   5.858   5.938   0.633  0.8151 -0.9315  0.3918
 5486SOL    HW217053   5.890   6.085   0.648 -1.3070 -0.4838  0.5917
 5487SOL     OW17054   1.520   0.885   4.571 -0.8302 -0.0595  0.5846
 5487SOL    HW117055   1.590   0.936   4.530 -0.5489 -2.0196 -1.4462
 5487SOL    HW217056   1.442   0.939   4.561 -0.5015  0.0800 -1.3276
 5488SOL     OW17057   0.817   1.925   0.233  0.1985  0.0181  0.3006
 5488SOL    HW117058   0.745   1.957   0.289 -0.9111 -0.8144 -0.6348
 5488SOL    HW217059   0.803   1.969   0.149  2.0321  1.4842  0.7199
 5489SOL     OW17060   4.622   4.667   0.611  0.0969 -0.0894 -0.4626
 5489SOL    HW117061   4.714   4.668   0.587  0.3031  2.2120  0.3358
 5489SOL    HW217062   4.621   4.671   0.707 -0.8210  0.0325 -0.4656
 5490SOL     OW17063   5.384   4.846   0.672 -0.3826  0.1852  0.4634
 5490SOL    HW117064   5.392   4.769   0.615  2.2258  1.2618 -0.6997
 5490SOL    HW217065   5.447   4.831   0.742  0.0727  1.2199  0.2831
 5491SOL     OW17066   3.565   0.788   0.437 -0.3469 -0.2446  0.4779
 5491SOL    HW117067   3.616   0.733   0.378  0.5574 -0.8994  1.8533
 5491SOL    HW217068   3.574   0.876   0.402 -0.7712 -0.7875 -1.0189
 5492SOL     OW17069   1.474   5.337   3.585 -0.0893  0.1024 -0.3485
 5492SOL    HW117070   1.387   5.318   3.550 -0.8896  2.7978  0.0539
 5492SOL    HW217071   1.474   5.295   3.671 -0.7900 -0.3898 -0.5781
 5493SOL     OW17072   5.449   6.948   6.336 -0.1958  0.3446  0.3166
 5493SOL    HW117073   5.470   6.895   6.413 -1.1412  1.4565  1.3560
 5493SOL    HW217074   5.415   7.030   6.372 -1.3021  0.6148 -1.2855
 5494SOL     OW17075   0.757   0.600   6.188 -0.3383 -0.3474 -0.0126
 5494SOL    HW117076   0.839   0.615   6.140  0.0045 -0.7442  0.4440
 5494SOL    HW217077   0.712   0.684   6.184  1.2300  0.6355  1.9179
 5495SOL     OW17078   2.447   6.341   2.895  0.1980  0.2511  0.8371
 5495SOL    HW117079   2.518   6.399   2.866 -0.5941  1.0558  0.4793
 5495SOL    HW217080   2.418   6.297   2.815  0.7062 -0.5434  1.0864
 5496SOL     OW17081   6.610   0.912   4.595 -0.0608  0.3947 -0.2689
 5496SOL    HW117082   6.665   0.991   4.596  1.0738 -0.3873  1.4191
 5496SOL    HW217083   6.656   0.851   4.653 -0.3114 -1.9243 -2.4598
 5497SOL     OW17084   1.234   5.510   6.070  0.2861  0.0230 -0.3387
 5497SOL    HW117085   1.256   5.531   5.979 -1.2040  3.6922  0.0714
 5497SOL    HW217086   1.143   5.483   6.067 -0.0202  0.9778  0.1481
 5498SOL     OW17087   6.762   3.710   3.573  0.5211  0.2395 -0.3545
 5498SOL    HW117088   6.791   3.801   3.575  0.3762  0.2766  0.1645
 5498SOL    HW217089   6.831   3.663   3.526  0.3568  0.6990 -1.0596
 5499SOL     OW17090   0.277   3.341   5.125 -0.6076 -0.0958 -0.5976
 5499SOL    HW117091   0.319   3.268   5.171 -1.0141 -0.9188 -1.5246
 5499SOL    HW217092   0.337   3.415   5.136  0.1890 -0.7838 -0.3601
 5500SOL     OW17093   5.646   1.066   1.048 -0.4345  0.5510  0.1256
 5500SOL    HW117094   5.559   1.032   1.028  0.0560 -0.6516 -0.0379
 5500SOL    HW217095   5.690   1.071   0.963 -0.0083  0.1567  0.3164
 5501SOL     OW17096   7.085   2.244   3.141  0.2887  0.4043  0.1194
 5501SOL    HW117097   7.027   2.281   3.208 -0.9363 -0.7325 -0.2943
 5501SOL    HW217098   7.044   2.162   3.116  1.1729  0.4116 -1.4368
 5502SOL     OW17099   2.162   2.542   1.657  0.3138 -0.5297  0.0749
 5502SOL    HW117100   2.089   2.554   1.596  0.9434 -2.8397 -1.1975
 5502SOL    HW217101   2.122   2.550   1.744 -0.7663  1.8265 -0.6016
 5503SOL     OW17102   7.030   1.709   4.927 -0.0875  0.3049  0.4238
 5503SOL    HW117103   6.949   1.723   4.877  0.5967 -2.0621 -1.4267
 5503SOL    HW217104   7.069   1.796   4.934 -1.0564  0.9423 -1.7226
 5504SOL     OW17105   1.196   2.492   5.951  0.0623 -1.0592 -0.6393
 5504SOL    HW117106   1.153   2.439   6.017 -1.5668 -1.0271 -1.6393
 5504SOL    HW217107   1.188   2.582   5.982  1.0349 -1.2143  0.0677
 5505SOL     OW17108   4.038   2.569   5.125 -0.3030 -0.2633 -0.3617
 5505SOL    HW117109   4.036   2.641   5.187 -0.7055 -0.2271 -0.4121
 5505SOL    HW217110   4.099   2.598   5.057 -0.3697 -0.0213 -0.3202
 5506SOL     OW17111   5.136   1.592   4.639  0.5195 -0.0668 -0.5361
 5506SOL    HW117112   5.213   1.644   4.618  0.9767 -0.3745  0.3792
 5506SOL    HW217113   5.074   1.611   4.567  1.7469 -0.4764 -1.7192
 5507SOL     OW17114   4.683   2.574   6.556  0.1684  0.3061  0.0825
 5507SOL    HW117115   4.592   2.604   6.562  0.4213  1.1539 -0.2419
 5507SOL    HW217116   4.691   2.507   6.624 -0.6446  0.3755  0.2473
 5508SOL     OW17117   2.544   1.330   2.848  0.4769 -0.1334 -0.2897
 5508SOL    HW117118   2.627   1.318   2.802  1.4283  2.2620  0.6816
 5508SOL    HW217119   2.505   1.407   2.806  1.3230  2.0475  2.7228
 5509SOL     OW17120   7.240   6.661   4.553  0.2095  0.2308 -0.5779
 5509SOL    HW117121   7.211   6.740   4.599  0.0997 -0.0709 -0.1177
 5509SOL    HW217122   7.322   6.687   4.511  1.1490  0.0849  1.1078
 5510SOL     OW17123   5.729   1.818   4.697  0.1173 -0.0510 -0.0892
 5510SOL    HW117124   5.665   1.845   4.763  2.1785  0.7128  1.6942
 5510SOL    HW217125   5.733   1.892   4.635 -2.1455 -0.9587 -1.3398
 5511SOL     OW17126   1.151   4.400   1.449 -0.5643 -0.3672 -0.4668
 5511SOL    HW117127   1.203   4.473   1.417 -0.9795 -0.1960 -0.7550
 5511SOL    HW217128   1.066   4.410   1.406 -0.3977 -1.4097 -1.0463
 5512SOL     OW17129   7.156   4.041   5.920 -0.7651 -0.2797 -0.1189
 5512SOL    HW117130   7.247   4.028   5.895  0.0014  1.8390  1.4261
 5512SOL    HW217131   7.124   4.110   5.863  0.1922  2.6555  2.7603
 5513SOL     OW17132   5.323   4.508   3.216  0.2542  0.3513 -0.6497
 5513SOL    HW117133   5.296   4.587   3.262  0.4016  1.1116 -1.8351
 5513SOL    HW217134   5.265   4.503   3.140  0.0834 -0.8244 -0.4553
 5514SOL     OW17135   3.250   5.664   6.154  0.2095  0.4683 -0.4857
 5514SOL    HW117136   3.305   5.586   6.146  0.6149  0.7687 -0.5851
 5514SOL    HW217137   3.175   5.645   6.098  0.3044  0.1452 -0.5059
 5515SOL     OW17138   0.877   5.297   3.990 -0.6071  0.2396 -0.4385
 5515SOL    HW117139   0.921   5.276   3.907  1.0543  2.9376 -0.2956
 5515SOL    HW217140   0.891   5.221   4.045 -2.7761 -2.1231 -3.0083
 5516SOL     OW17141   5.223   3.666   7.151  0.5910 -0.3953 -0.0502
 5516SOL    HW117142   5.252   3.757   7.157  1.4984 -0.5655 -1.5838
 5516SOL    HW217143   5.137   3.671   7.111  0.7665 -0.2259 -0.4117
 5517SOL     OW17144   5.258   4.212   2.972 -0.4272  0.4359 -0.4783
 5517SOL    HW117145   5.299   4.127   2.989 -0.0843  0.4841 -1.0331
 5517SOL    HW217146   5.294   4.239   2.887 -3.3437 -0.5888 -2.1162
 5518SOL     OW17147   5.727   0.676   2.689  0.5801 -0.2753 -0.1051
 5518SOL    HW117148   5.766   0.592   2.665  0.5951 -0.4825  0.6285
 5518SOL    HW217149   5.755   0.736   2.620 -1.1235 -1.3189 -1.7529
 5519SOL     OW17150   0.171   3.490   4.579  0.1471 -0.7107  0.1104
 5519SOL    HW117151   0.139   3.415   4.630 -2.8387  0.0466 -0.6050
 5519SOL    HW217152   0.180   3.456   4.490  0.3854 -0.6272  0.1001
 5520SOL     OW17153   2.644   3.786   1.402  0.5358  0.2930  0.0098
 5520SOL    HW117154   2.572   3.838   1.366 -2.2922 -2.5315  1.4679
 5520SOL    HW217155   2.629   3.784   1.496  1.8004 -1.4206  0.2037
 5521SOL     OW17156   6.365   2.816   3.928  0.1459  0.4088 -0.3012
 5521SOL    HW117157   6.425   2.845   3.996  0.3594 -3.8295  1.4747
 5521SOL    HW217158   6.416   2.754   3.876 -0.9246  1.3204 -2.5253
 5522SOL     OW17159   1.351   6.231   5.707  0.2920 -0.4399 -0.4336
 5522SOL    HW117160   1.307   6.264   5.629 -0.9701 -0.2467  0.3464
 5522SOL    HW217161   1.444   6.239   5.688 -0.0003 -0.9491 -2.1543
 5523SOL     OW17162   6.384   4.218   4.463 -0.1883 -0.3260 -0.3278
 5523SOL    HW117163   6.296   4.229   4.498 -0.4018 -1.0775 -0.6161
 5523SOL    HW217164   6.390   4.281   4.391 -1.1566 -1.5961 -1.5342
 5524SOL     OW17165   0.544   0.542   0.941 -0.0146 -0.5157 -0.3375
 5524SOL    HW117166   0.591   0.605   0.887  1.1791 -0.3760  0.8419
 5524SOL    HW217167   0.554   0.459   0.894  0.7255 -0.3336 -0.5050
 5525SOL     OW17168   6.720   5.032   5.462 -0.6526 -0.2285 -0.0328
 5525SOL    HW117169   6.705   4.941   5.436  0.3091  0.1658 -2.0592
 5525SOL    HW217170   6.632   5.071   5.466 -1.0488 -1.1822  0.6542
 5526SOL     OW17171   1.510   0.151   1.361  0.0417  0.1987 -0.1209
 5526SOL    HW117172   1.416   0.165   1.375  0.3343  1.8541  0.2856
 5526SOL    HW217173   1.518   0.138   1.266 -0.7931 -1.7110  0.0428
 5527SOL     OW17174   6.298   5.252   7.181 -0.2611  0.9368 -0.5068
 5527SOL    HW117175   6.373   5.308   7.162  0.4780 -0.1115 -0.7022
 5527SOL    HW217176   6.302   5.182   7.116 -0.8550  0.3477  0.0738
 5528SOL     OW17177   5.654   5.533   0.559  0.2220 -0.4832  0.0186
 5528SOL    HW117178   5.579   5.478   0.582  0.2852 -0.6633 -0.2050
 5528SOL    HW217179   5.724   5.470   0.540  0.4020 -0.3171  0.1351
 5529SOL     OW17180   2.512   6.218   2.235 -0.3907 -0.0918  0.0751
 5529SOL    HW117181   2.584   6.261   2.189 -1.8187  1.9063 -0.3241
 5529SOL    HW217182   2.516   6.127   2.205 -0.6119  0.9256 -3.1572
 5530SOL     OW17183   6.978   3.407   3.785 -0.6500  0.1698 -0.0792
 5530SOL    HW117184   6.911   3.455   3.834 -0.0270  1.7349 -0.7432
 5530SOL    HW217185   7.048   3.470   3.770 -0.2873 -0.6290 -1.9246
 5531SOL     OW17186   0.221   3.738   3.145 -0.0011  0.2432  0.2520
 5531SOL    HW117187   0.213   3.795   3.069  0.2264 -0.5058 -0.3424
 5531SOL    HW217188   0.131   3.724   3.175 -0.0949  0.4901  0.0855
 5532SOL     OW17189   3.306   6.481   5.190  0.6618  0.1111  0.3990
 5532SOL    HW117190   3.257   6.557   5.220  1.2581  0.1293  1.3703
 5532SOL    HW217191   3.253   6.443   5.120  0.4140  1.4810 -0.1591
 5533SOL     OW17192   4.274   6.331   5.322  0.1435  0.5454  0.3679
 5533SOL    HW117193   4.203   6.376   5.368  0.6424 -0.0021  1.6692
 5533SOL    HW217194   4.290   6.386   5.244 -1.3893  0.9140  0.2997
 5534SOL     OW17195   2.547   1.073   2.571 -0.4423  0.2234 -0.2192
 5534SOL    HW117196   2.635   1.085   2.606 -1.4383  1.6512  1.8785
 5534SOL    HW217197   2.509   1.161   2.570 -2.6580 -0.6742  1.1304
 5535SOL     OW17198   2.036   5.612   4.487  0.0771  0.2047 -0.1906
 5535SOL    HW117199   2.036   5.520   4.462 -1.8466  0.4911 -1.3857
 5535SOL    HW217200   1.992   5.614   4.572 -0.3569  0.0648 -0.4099
 5536SOL     OW17201   5.305   5.026   3.392 -0.2761  0.4416 -0.2376
 5536SOL    HW117202   5.381   5.050   3.445 -0.2000 -0.5169  0.0986
 5536SOL    HW217203   5.341   4.979   3.317 -0.4044  1.6105 -1.0474
 5537SOL     OW17204   1.504   5.860   0.346 -0.0804  0.1213  0.0695
 5537SOL    HW117205   1.465   5.886   0.430 -1.2663  1.2668 -0.8140
 5537SOL    HW217206   1.438   5.883   0.281  1.2015  0.0919 -1.2692
 5538SOL     OW17207   3.262   5.945   6.069  0.3821 -0.0743  0.1383
 5538SOL    HW117208   3.215   5.879   6.018  0.1173 -1.5727  2.2306
 5538SOL    HW217209   3.211   5.954   6.150  0.2937  2.9128 -0.2076
 5539SOL     OW17210   2.425   2.595   3.720 -0.1753 -0.3212  0.2004
 5539SOL    HW117211   2.436   2.638   3.635 -0.9143 -1.1718 -0.3297
 5539SOL    HW217212   2.349   2.538   3.708  1.0662 -2.1136  0.7594
 5540SOL     OW17213   4.388   5.197   1.895 -0.1501  0.2211  0.2579
 5540SOL    HW117214   4.471   5.162   1.927 -0.5217 -0.3253  0.6237
 5540SOL    HW217215   4.406   5.220   1.804 -0.2897 -2.3242 -0.4680
 5541SOL     OW17216   1.481   6.339   2.401  0.3922 -0.0278  0.2889
 5541SOL    HW117217   1.468   6.431   2.378  0.9719 -0.1346 -0.4705
 5541SOL    HW217218   1.473   6.337   2.496  0.5496  0.8426  0.3257
 5542SOL     OW17219   3.552   5.500   1.835  0.0764 -0.2408 -0.2181
 5542SOL    HW117220   3.634   5.484   1.881  0.8831  1.0390 -1.1801
 5542SOL    HW217221   3.486   5.453   1.886  0.7962  1.7914  2.7249
 5543SOL     OW17222   0.305   2.590   7.246  0.0928  0.3099  0.0511
 5543SOL    HW117223   0.235   2.524   7.241  0.4963 -0.2036  1.0271
 5543SOL    HW217224   0.345   2.588   7.159 -1.5906  1.1695 -0.7839
 5544SOL     OW17225   0.966   3.465   1.178 -0.6346 -0.6989 -0.2193
 5544SOL    HW117226   0.901   3.474   1.247 -1.1407 -0.7985 -0.6761
 5544SOL    HW217227   0.915   3.442   1.100 -0.2150  0.7752 -0.9488
 5545SOL     OW17228   3.449   1.743   1.266  0.2581  0.0863 -0.8384
 5545SOL    HW117229   3.449   1.838   1.255  0.0570  0.4554  1.9476
 5545SOL    HW217230   3.357   1.721   1.279  0.4905 -0.2111  0.3857
 5546SOL     OW17231   6.923   2.489   0.767 -1.0093 -0.1143  0.4517
 5546SOL    HW117232   6.974   2.428   0.713 -1.3494  0.5594 -0.6447
 5546SOL    HW217233   6.861   2.529   0.706 -1.6273  0.4090  1.4140
 5547SOL     OW17234   1.769   2.224   0.435 -0.1247  0.1003  0.3174
 5547SOL    HW117235   1.837   2.274   0.481 -1.5325  1.3728  1.0679
 5547SOL    HW217236   1.717   2.185   0.505 -1.2348  0.6085 -0.2136
 5548SOL     OW17237   1.347   4.820   1.874 -0.2137  0.2130 -0.3458
 5548SOL    HW117238   1.431   4.799   1.913  0.6191  0.7131 -1.8149
 5548SOL    HW217239   1.331   4.912   1.898 -0.5135  0.0157  0.2218
 5549SOL     OW17240   4.867   6.705   6.165 -0.0508 -0.3202 -0.0755
 5549SOL    HW117241   4.894   6.614   6.157  0.6738 -0.0019 -1.3639
 5549SOL    HW217242   4.771   6.701   6.171 -0.0782 -1.1263 -0.8863
 5550SOL     OW17243   6.712   1.726   0.340 -0.2846 -0.5216 -0.1158
 5550SOL    HW117244   6.641   1.788   0.326  0.5873  0.4770 -0.1187
 5550SOL    HW217245   6.703   1.699   0.432 -0.8266 -0.6044 -0.1928
 5551SOL     OW17246   4.487   5.385   0.141  0.2729 -0.2403 -0.5822
 5551SOL    HW117247   4.549   5.410   0.072 -0.0600  1.6974 -0.2046
 5551SOL    HW217248   4.409   5.357   0.094  0.7240 -0.7883 -1.0203
 5552SOL     OW17249   4.599   4.265   2.958  0.2002  0.6707  0.1153
 5552SOL    HW117250   4.521   4.316   2.976  1.0315  1.8682  0.4040
 5552SOL    HW217251   4.605   4.203   3.031 -1.9769 -1.2913 -1.3345
 5553SOL     OW17252   0.051   6.744   2.012  0.6344 -0.0309 -0.1178
 5553SOL    HW117253  -0.014   6.678   1.987  0.6946 -0.1164 -0.0488
 5553SOL    HW217254   0.055   6.739   2.107  0.1731  0.5116 -0.0661
 5554SOL     OW17255   6.472   5.186   1.724 -0.1215 -0.2727  0.7492
 5554SOL    HW117256   6.556   5.219   1.692 -0.3807  0.2996  0.6438
 5554SOL    HW217257   6.457   5.106   1.675 -0.1587  0.2011 -0.0190
 5555SOL     OW17258   6.185   1.543   2.196  0.5595 -0.2136  0.3628
 5555SOL    HW117259   6.154   1.572   2.110 -2.7264 -1.4081  1.1035
 5555SOL    HW217260   6.216   1.623   2.238  0.2898  0.6986 -1.1369
 5556SOL     OW17261   3.943   7.205   0.458 -0.7993 -0.2680 -0.2046
 5556SOL    HW117262   3.952   7.152   0.536  0.5030  1.4383  0.8410
 5556SOL    HW217263   3.882   7.274   0.482 -2.7736 -1.4677 -1.6648
 5557SOL     OW17264   0.609   2.376   3.672 -0.3759 -0.5760 -0.2459
 5557SOL    HW117265   0.652   2.428   3.740 -0.2034 -1.4855  0.3442
 5557SOL    HW217266   0.553   2.439   3.626  1.3085  0.5317 -0.8017
 5558SOL     OW17267   5.164   1.539   6.086  0.0586  0.1954  0.0837
 5558SOL    HW117268   5.224   1.527   6.159  1.0517 -1.1380 -0.9377
 5558SOL    HW217269   5.188   1.471   6.023 -1.9689  0.1650 -0.7067
 5559SOL     OW17270   5.384   6.285   0.012  0.0462 -0.1003 -0.2363
 5559SOL    HW117271   5.352   6.328   0.091  1.7832  1.1864 -0.2182
 5559SOL    HW217272   5.403   6.196   0.039 -1.3353 -0.2601  0.2787
 5560SOL     OW17273   6.748   3.697   1.252  0.8070  0.1598 -0.6135
 5560SOL    HW117274   6.805   3.774   1.261  0.4182  0.2530  1.3861
 5560SOL    HW217275   6.802   3.624   1.284  0.9727 -0.3033 -1.9502
 5561SOL     OW17276   0.008   3.681   5.801  0.3710  0.1417 -0.2430
 5561SOL    HW117277  -0.004   3.590   5.829  1.6910 -0.1370 -0.5226
 5561SOL    HW217278   0.039   3.726   5.880 -2.2449  0.8189  0.4367
 5562SOL     OW17279   0.781   3.879   3.636  0.1645  0.3991 -0.1798
 5562SOL    HW117280   0.768   3.938   3.562  0.2005  0.4620 -0.1353
 5562SOL    HW217281   0.839   3.811   3.603 -0.5847 -0.0997 -0.4962
 5563SOL     OW17282   5.582   7.139   4.846 -0.0194  0.2693  0.3196
 5563SOL    HW117283   5.624   7.213   4.803  0.6141  0.5707  1.4332
 5563SOL    HW217284   5.654   7.092   4.888 -0.7717  0.7462  2.1812
 5564SOL     OW17285   7.023   6.172   1.220 -0.0780 -0.5804  0.7116
 5564SOL    HW117286   6.991   6.124   1.144  0.4086 -0.1915  0.2593
 5564SOL    HW217287   7.054   6.105   1.280 -1.0403 -0.9250  0.8380
 5565SOL     OW17288   6.157   7.108   4.987 -0.7764 -0.2137 -0.5094
 5565SOL    HW117289   6.144   7.103   4.893 -0.3249  0.5988 -0.6232
 5565SOL    HW217290   6.222   7.178   4.999 -0.4282 -0.6740  0.3650
 5566SOL     OW17291   2.803   3.115   2.876 -0.7427  0.7350  0.1476
 5566SOL    HW117292   2.713   3.094   2.903 -0.6926  0.3879  0.0384
 5566SOL    HW217293   2.846   3.144   2.957 -0.5039 -0.6146  0.5135
 5567SOL     OW17294   5.803   5.408   0.164  0.3024 -0.9467  0.2251
 5567SOL    HW117295   5.862   5.373   0.097  0.6896 -1.2119  0.6984
 5567SOL    HW217296   5.834   5.369   0.246 -0.9495 -1.6131  0.3944
 5568SOL     OW17297   0.918   4.737   6.579  0.1891 -0.0685 -0.2989
 5568SOL    HW117298   0.942   4.645   6.570  0.8752  0.1256 -0.4656
 5568SOL    HW217299   0.825   4.740   6.556  0.4425 -0.5407 -1.3877
 5569SOL     OW17300   4.008   1.728   3.088  0.1103  0.0143  0.1800
 5569SOL    HW117301   4.036   1.813   3.124 -1.6422 -0.5915  3.1890
 5569SOL    HW217302   4.047   1.663   3.147 -0.0178 -1.2063 -1.0511
 5570SOL     OW17303   5.138   0.614   0.132  0.1468 -0.3861 -0.3552
 5570SOL    HW117304   5.217   0.582   0.174 -0.5250 -0.3278  0.9597
 5570SOL    HW217305   5.139   0.708   0.144 -0.9813 -0.5541  1.1855
 5571SOL     OW17306   2.463   2.754   6.477  0.1749 -0.0941 -0.1463
 5571SOL    HW117307   2.454   2.842   6.440 -1.1559  0.1747  0.7513
 5571SOL    HW217308   2.499   2.768   6.565 -1.7710 -0.2532  0.7209
 5572SOL     OW17309   1.567   5.188   0.253 -0.1078 -0.6648  0.5046
 5572SOL    HW117310   1.611   5.175   0.337  1.6825  0.6655 -0.1940
 5572SOL    HW217311   1.626   5.246   0.204 -3.5082  2.7251  0.2455
 5573SOL     OW17312   2.047   6.514   4.684  0.1198  0.4069  0.6852
 5573SOL    HW117313   2.061   6.471   4.768  1.5762 -0.0279  0.2423
 5573SOL    HW217314   2.135   6.539   4.655 -0.6048  2.7406  0.4268
 5574SOL     OW17315   6.127   4.611   0.945 -0.1882  0.0896 -0.6437
 5574SOL    HW117316   6.075   4.688   0.966  0.1867  0.4359 -0.9703
 5574SOL    HW217317   6.120   4.603   0.850  0.8667  0.5178 -0.7693
 5575SOL     OW17318   6.921   5.163   2.782 -0.4305  0.1240  0.2577
 5575SOL    HW117319   6.942   5.157   2.689  0.8600 -0.5691  0.5743
 5575SOL    HW217320   6.934   5.074   2.815  0.0816  0.5740  1.2864
 5576SOL     OW17321   6.400   5.207   0.631  0.5752  0.2120 -0.2352
 5576SOL    HW117322   6.415   5.299   0.610  0.5253  0.1003 -0.7546
 5576SOL    HW217323   6.487   5.175   0.657  0.7366  0.2148 -0.7695
 5577SOL     OW17324   4.288   4.690   0.195 -0.0328 -0.0600 -0.7433
 5577SOL    HW117325   4.343   4.743   0.252  2.3703 -0.6498 -2.4293
 5577SOL    HW217326   4.293   4.602   0.232  0.4291 -0.1659 -1.0398
 5578SOL     OW17327   0.912   3.811   6.781  0.2273  0.2666 -0.0834
 5578SOL    HW117328   0.953   3.742   6.833  2.3319 -0.2009 -2.2655
 5578SOL    HW217329   0.984   3.868   6.755 -1.3496  2.7689  0.8316
 5579SOL     OW17330   6.419   4.267   0.943 -0.4634  0.3687  0.3349
 5579SOL    HW117331   6.404   4.219   1.024  0.3284 -0.5850 -0.0727
 5579SOL    HW217332   6.386   4.209   0.874  2.4200 -0.5674 -0.3403
 5580SOL     OW17333   6.310   5.729   7.050 -0.0078  0.0013 -0.0193
 5580SOL    HW117334   6.230   5.681   7.069 -0.0974 -0.2812 -1.0366
 5580SOL    HW217335   6.298   5.814   7.091 -1.1201  0.1960 -0.7197
 5581SOL     OW17336   4.023   3.928   6.510  0.0533 -0.0934  0.5508
 5581SOL    HW117337   4.060   3.922   6.422  1.1634  0.3890  0.9812
 5581SOL    HW217338   3.940   3.881   6.504 -0.4418  0.9353 -1.0563
 5582SOL     OW17339   2.564   2.019   4.727  0.0049  0.2049 -0.6866
 5582SOL    HW117340   2.561   1.948   4.790 -1.0038  0.3295 -0.5733
 5582SOL    HW217341   2.648   2.010   4.683  1.0012  0.4951  1.1121
 5583SOL     OW17342   1.712   4.446   3.549  0.1219  0.0623  0.0080
 5583SOL    HW117343   1.664   4.383   3.603 -0.8336  0.2016 -0.6701
 5583SOL    HW217344   1.777   4.393   3.503 -0.7658 -0.4527 -0.6635
 5584SOL     OW17345   6.046   6.528   0.641 -0.0663  0.2761  0.3348
 5584SOL    HW117346   6.039   6.622   0.623 -0.9273 -0.0366 -1.0884
 5584SOL    HW217347   6.028   6.520   0.735  0.8898  1.6176  0.6461
 5585SOL     OW17348   6.480   3.776   1.393  0.1867 -0.1043 -0.0034
 5585SOL    HW117349   6.565   3.794   1.352 -0.5576 -1.1895 -2.1016
 5585SOL    HW217350   6.472   3.680   1.390 -0.9490 -0.0273  0.5066
 5586SOL     OW17351   2.577   3.803   3.032 -0.0353 -0.3658  0.2953
 5586SOL    HW117352   2.482   3.800   3.047 -0.3650  0.7878 -1.4023
 5586SOL    HW217353   2.587   3.792   2.937  1.6247 -1.8159  0.6140
 5587SOL     OW17354   3.937   2.166   3.038  0.0289  0.7354 -0.0520
 5587SOL    HW117355   3.965   2.124   2.957  0.1125  0.2978  0.1947
 5587SOL    HW217356   3.950   2.259   3.024  2.1307  0.5116  0.2446
 5588SOL     OW17357   1.572   5.781   4.184  0.1804 -0.6648  0.4466
 5588SOL    HW117358   1.519   5.711   4.223  1.2263 -1.7585 -0.0699
 5588SOL    HW217359   1.533   5.862   4.218 -0.3039 -1.5269  2.0107
 5589SOL     OW17360   5.757   6.947   1.044  0.0097  0.5120  0.0609
 5589SOL    HW117361   5.761   7.022   0.985 -1.7926  0.2280 -0.4564
 5589SOL    HW217362   5.775   6.871   0.989 -1.4950  0.2636 -0.1076
 5590SOL     OW17363   0.317   3.259   2.020  0.2061  0.4553 -0.1466
 5590SOL    HW117364   0.408   3.230   2.029  0.1349  0.7877  1.9416
 5590SOL    HW217365   0.315   3.346   2.061 -0.9897  0.5506 -0.3836
 5591SOL     OW17366   1.693   6.900   2.865  0.2067 -0.1026 -0.1865
 5591SOL    HW117367   1.688   6.988   2.903 -0.5576  0.3415 -1.2997
 5591SOL    HW217368   1.758   6.908   2.795  0.7158 -0.6201  0.2205
 5592SOL     OW17369   3.453   4.403   7.161  0.0738 -0.1851 -1.1085
 5592SOL    HW117370   3.437   4.442   7.075 -0.7507 -1.2349 -1.4239
 5592SOL    HW217371   3.375   4.425   7.212  0.4191  0.1517 -0.7187
 5593SOL     OW17372   0.422   4.962   2.979  0.1320  0.4876 -0.0392
 5593SOL    HW117373   0.345   4.983   3.032 -0.1231  0.0348 -0.2223
 5593SOL    HW217374   0.464   4.889   3.025  0.0815  0.2979 -0.2943
 5594SOL     OW17375   7.023   6.076   0.380 -0.5470 -0.2533  0.2231
 5594SOL    HW117376   7.084   6.114   0.443 -0.3049  0.2141 -0.2942
 5594SOL    HW217377   7.059   6.098   0.294 -0.2083 -1.9650 -0.0963
 5595SOL     OW17378   7.065   0.329   1.718 -0.2735  0.1260  0.6480
 5595SOL    HW117379   6.998   0.283   1.768 -0.6039 -0.3820 -0.2392
 5595SOL    HW217380   7.130   0.263   1.696 -0.5701  0.1433 -0.3278
 5596SOL     OW17381   4.825   7.039   2.524 -0.4573 -0.5343  0.6537
 5596SOL    HW117382   4.878   7.084   2.589 -0.1774 -0.0569  0.0972
 5596SOL    HW217383   4.775   6.974   2.574 -0.7883  0.3219  1.4426
 5597SOL     OW17384   5.061   0.318   7.083 -0.2439  0.1877  0.5332
 5597SOL    HW117385   5.010   0.395   7.109  1.1375  1.2862 -0.0065
 5597SOL    HW217386   5.146   0.352   7.058  0.2690 -1.4830 -0.0689
 5598SOL     OW17387   3.112   7.246   3.091  0.0334  0.8335 -0.0569
 5598SOL    HW117388   3.074   7.327   3.123  0.6214  1.3753 -0.7122
 5598SOL    HW217389   3.099   7.249   2.996  0.3843  0.3355 -0.1226
 5599SOL     OW17390   6.827   3.425   1.385 -0.0150 -0.4630  0.3401
 5599SOL    HW117391   6.861   3.353   1.438 -1.9216 -0.6549  1.3403
 5599SOL    HW217392   6.790   3.383   1.308 -1.8550 -0.6561  1.3035
 5600SOL     OW17393   2.658   5.244   2.912 -0.2035  0.0245  0.1423
 5600SOL    HW117394   2.572   5.282   2.893 -0.6663 -2.6767 -3.6795
 5600SOL    HW217395   2.714   5.320   2.928 -1.8634  2.2506 -3.8573
 5601SOL     OW17396   5.347   5.385   7.129  0.2169  0.3506 -0.0006
 5601SOL    HW117397   5.280   5.325   7.161  1.0559 -0.2903  0.5680
 5601SOL    HW217398   5.324   5.470   7.167  2.0031 -0.6603  3.5737
 5602SOL     OW17399   5.706   6.089   0.178 -0.6869  0.0820 -0.1053
 5602SOL    HW117400   5.784   6.055   0.220  0.3989  1.0198 -1.3234
 5602SOL    HW217401   5.738   6.133   0.099 -2.4281  0.5439 -0.5825
 5603SOL     OW17402   1.722   2.597   2.726  0.4513 -0.0220 -0.7044
 5603SOL    HW117403   1.701   2.625   2.815 -0.1277 -0.7261 -0.6188
 5603SOL    HW217404   1.792   2.656   2.699  0.6172  0.2093  0.2074
 5604SOL     OW17405   6.241   4.200   4.725 -0.0568 -0.4833 -0.4661
 5604SOL    HW117406   6.155   4.225   4.759  0.0543 -2.8243  1.6882
 5604SOL    HW217407   6.222   4.137   4.656 -0.1183  0.5220 -1.3765
 5605SOL     OW17408   3.244   4.704   4.645  0.1270  0.1194 -0.4004
 5605SOL    HW117409   3.326   4.743   4.616  0.7596  0.1678  1.3922
 5605SOL    HW217410   3.244   4.617   4.605  1.9021 -0.5444  0.9541
 5606SOL     OW17411   4.158   3.229   1.356 -0.4008 -0.5260 -0.4550
 5606SOL    HW117412   4.211   3.153   1.380 -0.5035 -0.5098 -0.1711
 5606SOL    HW217413   4.127   3.264   1.440 -0.0780  0.0246 -0.5662
 5607SOL     OW17414   3.930   4.112   3.597 -0.0824  0.7852  0.0175
 5607SOL    HW117415   4.006   4.149   3.553 -0.1812  0.5193 -0.3755
 5607SOL    HW217416   3.875   4.187   3.618 -1.1695  0.6993 -2.4253
 5608SOL     OW17417   0.510   0.843   0.571  0.7677  0.3093  0.7390
 5608SOL    HW117418   0.492   0.937   0.565 -0.2617 -0.0075 -1.6747
 5608SOL    HW217419   0.597   0.832   0.533  0.8849  0.2729  1.0143
 5609SOL     OW17420   1.491   3.965   0.150  0.2665  0.0480  0.3125
 5609SOL    HW117421   1.493   3.872   0.127  0.5929 -0.3912  2.0641
 5609SOL    HW217422   1.527   3.969   0.239 -1.2668  1.6640  0.8897
 5610SOL     OW17423   3.365   2.927   5.062 -0.0426  0.1954  0.4609
 5610SOL    HW117424   3.357   3.020   5.042 -0.5984 -0.2975 -1.7069
 5610SOL    HW217425   3.444   2.899   5.015 -1.1013 -0.8906 -0.7053
 5611SOL     OW17426   6.005   1.423   1.910 -0.1735 -0.0424 -0.1804
 5611SOL    HW117427   6.060   1.441   1.833 -1.2717 -0.2471 -1.0215
 5611SOL    HW217428   5.952   1.348   1.885 -2.8103  1.8284 -0.4211
 5612SOL     OW17429   5.039   0.336   0.300 -0.1339 -0.2041  0.5739
 5612SOL    HW117430   5.076   0.397   0.363  0.3504  1.3494 -1.1825
 5612SOL    HW217431   4.983   0.390   0.244 -1.0700 -1.6686  0.0761
 5613SOL     OW17432   2.792   6.278   2.117 -0.4325 -0.0055  0.2869
 5613SOL    HW117433   2.886   6.294   2.111 -0.3997 -0.4506 -0.3632
 5613SOL    HW217434   2.783   6.183   2.112 -1.1065  0.1582 -2.4110
 5614SOL     OW17435   6.886   3.759   0.579  0.2263  0.0690  0.6074
 5614SOL    HW117436   6.884   3.665   0.560  0.5839  0.2034 -0.1113
 5614SOL    HW217437   6.820   3.771   0.647 -2.1456 -0.2128 -1.5519
 5615SOL     OW17438   5.032   4.888   2.190 -0.0548  0.2801  0.5532
 5615SOL    HW117439   4.974   4.959   2.161  0.0137  0.3692  0.6325
 5615SOL    HW217440   5.109   4.934   2.225 -1.1547  0.2523  3.1107
 5616SOL     OW17441   6.839   2.544   5.515  0.2421 -0.1134  0.0497
 5616SOL    HW117442   6.860   2.513   5.603  0.5992 -0.1861 -0.0625
 5616SOL    HW217443   6.923   2.563   5.475  0.2123 -1.9193 -0.9479
 5617SOL     OW17444   1.548   3.205   4.826 -0.2013 -0.5247 -0.2247
 5617SOL    HW117445   1.576   3.271   4.889  1.2422 -2.4871  1.2854
 5617SOL    HW217446   1.550   3.123   4.876 -2.4071 -1.6490 -1.9148
 5618SOL     OW17447   0.926   0.936   1.111  0.2236 -0.3799  0.6698
 5618SOL    HW117448   0.999   0.890   1.070  0.9408  0.5885  0.8310
 5618SOL    HW217449   0.967   1.010   1.156 -0.8989  0.3712  0.4714
 5619SOL     OW17450   4.223   2.278   7.120  1.0696 -0.2187  0.3570
 5619SOL    HW117451   4.131   2.287   7.142  1.4013  0.5402  1.5060
 5619SOL    HW217452   4.259   2.367   7.130  1.9038 -0.4862 -0.1772
 5620SOL     OW17453   2.415   2.053   2.787  0.4244  0.0026  0.0927
 5620SOL    HW117454   2.458   2.069   2.871  0.5053 -0.6922  0.1921
 5620SOL    HW217455   2.411   2.138   2.745  0.1200  0.4103  0.9318
 5621SOL     OW17456   6.080   0.348   3.569  0.6112  0.1898 -0.6580
 5621SOL    HW117457   6.122   0.266   3.540 -0.2282 -1.0047  1.3614
 5621SOL    HW217458   6.043   0.326   3.655 -1.6435  2.0450 -1.1116
 5622SOL     OW17459   0.004   6.515   2.684  1.0546 -0.2744 -0.5233
 5622SOL    HW117460  -0.006   6.523   2.590 -0.3728  0.4430 -0.3209
 5622SOL    HW217461   0.017   6.604   2.715  0.0416 -0.3458  0.1158
 5623SOL     OW17462   5.303   6.992   2.441 -0.5697 -0.2849 -0.2036
 5623SOL    HW117463   5.353   6.946   2.508  1.1758 -0.8700 -1.8668
 5623SOL    HW217464   5.296   6.930   2.369 -3.2719 -0.0137 -0.2151
 5624SOL     OW17465   0.663   5.307   1.260 -0.2716 -0.0304  0.3401
 5624SOL    HW117466   0.758   5.298   1.268 -0.4444  0.1393  2.8212
 5624SOL    HW217467   0.635   5.227   1.216  0.9090 -0.5296  0.4739
 5625SOL     OW17468   3.624   4.775   6.004 -0.2224 -0.0361  0.0673
 5625SOL    HW117469   3.651   4.813   6.088 -0.9683 -0.0271  0.3100
 5625SOL    HW217470   3.688   4.808   5.941 -0.2598  0.7919  0.4573
 5626SOL     OW17471   1.812   6.593   3.503  0.1084 -0.1753 -0.1917
 5626SOL    HW117472   1.875   6.640   3.557 -1.0246  0.7003  0.3983
 5626SOL    HW217473   1.850   6.593   3.416  0.9812  0.2235  0.1875
 5627SOL     OW17474   3.770   5.178   3.486  0.0887  0.0581  0.6123
 5627SOL    HW117475   3.690   5.127   3.497  0.2183  0.2202  2.6645
 5627SOL    HW217476   3.840   5.117   3.509  0.4734  0.2085 -0.1622
 5628SOL     OW17477   1.954   3.592   3.524 -0.6693 -0.5186 -0.0776
 5628SOL    HW117478   2.019   3.575   3.593 -0.0789 -0.7319 -0.6853
 5628SOL    HW217479   1.887   3.643   3.568 -1.2241 -2.2415  1.1610
 5629SOL     OW17480   3.433   3.330   1.147 -0.0078 -0.0033 -0.1500
 5629SOL    HW117481   3.368   3.378   1.095  0.4478 -0.5368 -1.2180
 5629SOL    HW217482   3.517   3.372   1.125 -0.0485  1.2689  1.8800
 5630SOL     OW17483   1.241   0.876   1.337  0.1444 -0.0566  0.0515
 5630SOL    HW117484   1.221   0.782   1.340 -1.7732  0.3399  0.3167
 5630SOL    HW217485   1.337   0.880   1.342  0.4351 -2.1006 -2.4594
 5631SOL     OW17486   3.299   2.851   0.385  0.3276 -0.2943 -0.3938
 5631SOL    HW117487   3.314   2.810   0.300  0.3584 -0.3185 -0.3761
 5631SOL    HW217488   3.243   2.790   0.432  0.7765 -0.5383 -0.1845
 5632SOL     OW17489   5.434   2.329   6.224  0.3221 -0.6013  0.0034
 5632SOL    HW117490   5.523   2.363   6.220 -1.0501  3.2943  0.5564
 5632SOL    HW217491   5.409   2.339   6.315 -1.7505  1.3689 -0.7415
 5633SOL     OW17492   4.062   0.919   0.092 -0.0341 -0.4575 -0.3360
 5633SOL    HW117493   4.004   0.959   0.027 -1.0357 -1.3204  0.0081
 5633SOL    HW217494   4.016   0.928   0.175  0.4218 -0.9607 -0.0223
 5634SOL     OW17495   2.436   5.670   1.281  0.3968 -0.7550 -0.1221
 5634SOL    HW117496   2.415   5.763   1.286  1.0706 -0.6105  0.0411
 5634SOL    HW217497   2.491   5.662   1.203  1.5645 -0.7711  0.6856
 5635SOL     OW17498   3.764   4.196   2.644  0.5866 -0.0855 -0.4160
 5635SOL    HW117499   3.685   4.251   2.643  0.5128 -0.1801  0.3095
 5635SOL    HW217500   3.821   4.236   2.709  1.3122  0.2098 -1.2166
 5636SOL     OW17501   4.056   6.893   6.883  0.1946  0.1999 -0.1303
 5636SOL    HW117502   4.069   6.836   6.958  0.4738  1.1151  0.5214
 5636SOL    HW217503   4.144   6.917   6.856  0.0479  1.3936  0.4298
 5637SOL     OW17504   5.590   6.779   4.542  0.0479  0.1472 -0.0415
 5637SOL    HW117505   5.494   6.780   4.544  0.0615  1.4073  0.1928
 5637SOL    HW217506   5.616   6.773   4.633  0.1900  1.2750  0.0060
 5638SOL     OW17507   6.240   3.832   4.365  0.6183 -0.0639 -0.0157
 5638SOL    HW117508   6.273   3.749   4.399  1.5635 -0.3815 -1.6300
 5638SOL    HW217509   6.234   3.889   4.441  1.8391 -1.0111  0.8056
 5639SOL     OW17510   6.709   0.622   2.800  0.0967 -0.2508 -0.2509
 5639SOL    HW117511   6.740   0.548   2.748 -1.0537  1.1330 -2.9556
 5639SOL    HW217512   6.666   0.680   2.738  0.6578  2.5649  1.8747
 5640SOL     OW17513   2.404   6.409   3.880 -0.0659  0.1972 -0.2042
 5640SOL    HW117514   2.332   6.385   3.939  0.0509  1.0603  0.3018
 5640SOL    HW217515   2.389   6.502   3.861  0.7681  0.3102 -0.3112
 5641SOL     OW17516   0.035   3.123   3.699  0.4936  0.2193  0.2606
 5641SOL    HW117517   0.013   3.215   3.689  1.3759  0.1732 -2.5185
 5641SOL    HW217518   0.123   3.114   3.661 -0.7680 -2.2642 -2.3094
 5642SOL     OW17519   2.751   0.766   1.574  0.8280  0.3339  0.1024
 5642SOL    HW117520   2.835   0.738   1.539  0.6466  0.1563 -0.1967
 5642SOL    HW217521   2.686   0.730   1.512  0.4926 -0.2245  0.7694
 5643SOL     OW17522   6.753   3.055   2.914  0.7218  0.1110 -0.0216
 5643SOL    HW117523   6.821   3.102   2.866 -0.6754  3.5609  1.1821
 5643SOL    HW217524   6.671   3.095   2.884 -0.7209 -2.7984 -0.2079
 5644SOL     OW17525   3.001   2.310   5.257  0.2062 -0.2722  0.0387
 5644SOL    HW117526   3.084   2.288   5.215 -0.1230  0.0601 -0.7896
 5644SOL    HW217527   2.999   2.255   5.336  1.6429  0.3983  0.5787
 5645SOL     OW17528   6.905   2.077   0.743 -0.2009  0.6055 -0.5247
 5645SOL    HW117529   6.891   2.115   0.830 -0.6139  1.0363 -0.7701
 5645SOL    HW217530   6.817   2.056   0.711  0.0425 -0.7519 -0.3178
 5646SOL     OW17531   5.026   4.273   3.741 -0.0308 -0.2667  0.7810
 5646SOL    HW117532   4.952   4.334   3.748 -0.2567 -0.3884 -0.4194
 5646SOL    HW217533   5.007   4.205   3.805 -1.7379 -1.1027 -0.5594
 5647SOL     OW17534   6.372   1.640   1.967 -0.2540  0.4395 -0.0650
 5647SOL    HW117535   6.419   1.585   2.029 -1.9155 -0.7141  0.1943
 5647SOL    HW217536   6.385   1.729   2.000  1.8228  0.1785 -0.0721
 5648SOL     OW17537   0.886   1.894   1.022  0.4269  0.4870 -0.5791
 5648SOL    HW117538   0.855   1.804   1.038  1.7608 -0.0396 -0.8583
 5648SOL    HW217539   0.846   1.918   0.939 -0.8221  0.5654  0.0357
 5649SOL     OW17540   5.717   0.369   1.115  0.0238 -0.4171  0.2757
 5649SOL    HW117541   5.627   0.344   1.094  0.7609 -0.0943 -3.5790
 5649SOL    HW217542   5.725   0.459   1.086  1.1891  0.0851  2.0417
 5650SOL     OW17543   7.214   2.631   4.933 -0.6734 -0.2125 -0.0132
 5650SOL    HW117544   7.294   2.579   4.935 -0.5520  0.0137  1.5817
 5650SOL    HW217545   7.146   2.568   4.910 -0.3394 -0.8443  0.6683
 5651SOL     OW17546   0.819   2.725   7.223  0.7979  0.1925  0.0222
 5651SOL    HW117547   0.812   2.708   7.129  1.3190 -1.0934  0.2054
 5651SOL    HW217548   0.885   2.794   7.230  0.6913  0.3552 -0.5696
 5652SOL     OW17549   0.794   3.403   4.630  0.3723 -0.2410 -0.1932
 5652SOL    HW117550   0.776   3.383   4.721  2.2693 -0.6779  0.1076
 5652SOL    HW217551   0.889   3.418   4.626  0.1995  0.6051 -1.9277
 5653SOL     OW17552   4.570   1.853   0.103  0.3514  0.4137  0.0628
 5653SOL    HW117553   4.586   1.810   0.018  0.3101  0.6987 -0.0895
 5653SOL    HW217554   4.652   1.900   0.122 -0.4446  2.2409 -0.9336
 5654SOL     OW17555   1.214   4.515   3.380 -0.1590  0.7858  0.0973
 5654SOL    HW117556   1.234   4.502   3.473 -0.0789 -0.1157 -0.0404
 5654SOL    HW217557   1.294   4.555   3.344  0.6790 -0.9391 -0.0340
 5655SOL     OW17558   3.674   2.786   5.979  0.0379  0.3350  0.1369
 5655SOL    HW117559   3.685   2.877   5.950 -0.7574  0.1580 -0.7556
 5655SOL    HW217560   3.580   2.779   5.996  0.0885 -0.3397  0.1216
 5656SOL     OW17561   5.153   6.652   3.107 -0.0378 -0.1670 -0.1355
 5656SOL    HW117562   5.081   6.708   3.078 -0.4180 -0.1979  0.7168
 5656SOL    HW217563   5.206   6.710   3.163 -0.4839 -0.6811  0.8261
 5657SOL     OW17564   4.449   6.994   0.686 -0.2906 -0.0425 -0.1243
 5657SOL    HW117565   4.389   7.050   0.735 -1.9731 -0.7874 -1.2822
 5657SOL    HW217566   4.483   7.050   0.617  0.9572  0.5969  0.9933
 5658SOL     OW17567   2.328   6.232   1.399  0.0774  0.2686  0.1722
 5658SOL    HW117568   2.259   6.276   1.350  0.4256  0.3359 -0.2568
 5658SOL    HW217569   2.375   6.302   1.444 -0.1255  0.2238  0.4581
 5659SOL     OW17570   5.772   0.380   2.265  0.6039  0.3615 -0.2354
 5659SOL    HW117571   5.696   0.392   2.208  0.3434 -1.1748 -0.2250
 5659SOL    HW217572   5.740   0.327   2.338  0.7559  2.9340  1.7890
 5660SOL     OW17573   2.782   2.803   4.801 -0.0674 -0.0287 -0.3291
 5660SOL    HW117574   2.732   2.776   4.878  0.0532 -0.3456 -0.3610
 5660SOL    HW217575   2.718   2.842   4.742 -0.7632 -2.9346 -1.5613
 5661SOL     OW17576   0.318   4.382   4.882 -0.0521  0.1272  0.9423
 5661SOL    HW117577   0.300   4.395   4.788  4.2003  0.2437  0.0652
 5661SOL    HW217578   0.257   4.313   4.908  0.6266 -1.9849 -2.6694
 5662SOL     OW17579   6.057   0.989   3.394 -0.3350 -0.1329 -0.1114
 5662SOL    HW117580   6.098   0.985   3.308 -0.9148 -1.0315 -0.3536
 5662SOL    HW217581   5.966   1.014   3.376 -0.4702 -0.3653  0.2350
 5663SOL     OW17582   5.294   3.093   5.862  0.5161 -0.3532 -0.2555
 5663SOL    HW117583   5.381   3.119   5.891  1.5499 -1.5223 -2.2564
 5663SOL    HW217584   5.281   3.006   5.898  0.7123 -0.7162 -1.0584
 5664SOL     OW17585   0.752   2.522   3.834 -0.1101  0.4388  0.0266
 5664SOL    HW117586   0.780   2.612   3.820  0.6600  0.3173  0.7992
 5664SOL    HW217587   0.720   2.520   3.924  0.3705 -0.1933  0.1812
 5665SOL     OW17588   4.918   1.226   5.072  0.0979  0.0469 -0.0094
 5665SOL    HW117589   4.889   1.317   5.061  2.4055  0.8554  0.2953
 5665SOL    HW217590   4.861   1.191   5.140 -1.3634  1.0088 -0.7100
 5666SOL     OW17591   3.586   1.065   6.287 -0.6127  0.3797  0.5743
 5666SOL    HW117592   3.652   1.109   6.340 -2.1278  2.3982  0.8969
 5666SOL    HW217593   3.599   1.100   6.199 -1.5080  1.1292  0.7297
 5667SOL     OW17594   6.774   5.584   5.023 -0.3954  0.1725 -0.1881
 5667SOL    HW117595   6.717   5.583   4.946  0.0788  0.3753 -0.5409
 5667SOL    HW217596   6.727   5.531   5.088 -0.4218 -0.6628 -0.8779
 5668SOL     OW17597   0.063   0.689   1.740 -0.6016  0.0136  0.2787
 5668SOL    HW117598   0.112   0.636   1.676 -0.4098  0.1616  0.3003
 5668SOL    HW217599   0.093   0.657   1.825  1.4053  1.8275  0.3189
 5669SOL     OW17600   5.549   5.238   0.571 -0.5061  0.7646  0.3494
 5669SOL    HW117601   5.607   5.188   0.628  1.4793  2.6874  0.0667
 5669SOL    HW217602   5.486   5.279   0.630 -0.1969  0.4584  0.8944
 5670SOL     OW17603   4.286   3.946   0.898  0.4703  0.0701  0.5407
 5670SOL    HW117604   4.224   3.915   0.831  1.0536 -1.2289  0.5989
 5670SOL    HW217605   4.330   4.020   0.856  1.5140 -1.3142 -0.9020
 5671SOL     OW17606   6.543   0.081   3.726 -0.6452 -0.0369 -0.5416
 5671SOL    HW117607   6.554   0.155   3.786 -0.7964 -0.5763  0.1742
 5671SOL    HW217608   6.632   0.053   3.705 -0.5868 -0.0615 -0.2753
 5672SOL     OW17609   6.628   1.476   5.572 -0.4597 -0.1682 -0.1957
 5672SOL    HW117610   6.645   1.569   5.581 -4.6653  0.9304 -2.3958
 5672SOL    HW217611   6.574   1.454   5.649  1.1608 -1.0438  0.7390
 5673SOL     OW17612   0.630   3.523   6.147 -0.3202  0.2796 -0.7004
 5673SOL    HW117613   0.617   3.440   6.193  0.1514  0.7404  0.2858
 5673SOL    HW217614   0.544   3.565   6.148  0.1468  1.2629  1.7193
 5674SOL     OW17615   7.017   3.485   5.671  0.2288  0.0324  0.0381
 5674SOL    HW117616   7.085   3.425   5.701  1.3722 -0.2481 -2.9866
 5674SOL    HW217617   6.977   3.442   5.596 -1.4289  1.4453  0.0615
 5675SOL     OW17618   5.431   1.808   1.498 -0.3457  0.2704  0.3135
 5675SOL    HW117619   5.515   1.761   1.503  0.4640  1.5932 -0.4690
 5675SOL    HW217620   5.412   1.833   1.588  0.5066  0.6193  0.4074
 5676SOL     OW17621   4.104   6.417   4.441 -0.8864 -0.7334  0.5357
 5676SOL    HW117622   4.095   6.398   4.348  1.7033 -0.9958  0.3087
 5676SOL    HW217623   4.086   6.334   4.484 -0.5322 -0.9853  0.1919
 5677SOL     OW17624   1.710   5.604   7.238 -0.2400 -0.6485  0.2777
 5677SOL    HW117625   1.788   5.651   7.207 -0.7310  0.7142  1.0883
 5677SOL    HW217626   1.655   5.596   7.160  0.4324 -1.0782 -0.1632
 5678SOL     OW17627   5.678   4.153   6.199  0.1085 -0.3402  0.0285
 5678SOL    HW117628   5.649   4.239   6.168 -0.2315 -2.2020 -5.1948
 5678SOL    HW217629   5.604   4.120   6.249 -0.6691  1.3838  0.0697
 5679SOL     OW17630   1.930   4.137   1.110  0.2473  0.0639  0.0648
 5679SOL    HW117631   1.853   4.147   1.053  1.3264  1.1113 -1.2580
 5679SOL    HW217632   1.907   4.065   1.169 -2.6427  1.7950  1.1844
 5680SOL     OW17633   3.013   7.220   2.463  0.2459 -0.0778  0.5135
 5680SOL    HW117634   2.960   7.258   2.533 -0.3751 -0.1909  0.1155
 5680SOL    HW217635   3.081   7.285   2.446 -0.7455  0.8298 -0.0883
 5681SOL     OW17636   6.452   3.129   2.298 -0.0089  0.2763  0.0313
 5681SOL    HW117637   6.477   3.063   2.234  1.1545  1.1280 -0.4230
 5681SOL    HW217638   6.357   3.129   2.298 -0.0722 -2.9829  1.7151
 5682SOL     OW17639   3.296   5.585   0.120 -0.0337  1.0140 -0.0771
 5682SOL    HW117640   3.390   5.602   0.128  0.1681  0.4262 -1.0565
 5682SOL    HW217641   3.254   5.668   0.143  0.7040  1.1407  0.8235
 5683SOL     OW17642   5.013   3.352   7.122  0.0584  0.0227 -0.5009
 5683SOL    HW117643   5.105   3.378   7.117  0.9624 -3.0378 -0.9988
 5683SOL    HW217644   4.965   3.423   7.079  2.3222  0.9807 -1.5350
 5684SOL     OW17645   4.378   4.364   4.794  0.7019  0.3475 -0.1549
 5684SOL    HW117646   4.420   4.437   4.840  0.0824  1.1682 -0.8741
 5684SOL    HW217647   4.381   4.389   4.702  1.8625 -1.2530 -0.5669
 5685SOL     OW17648   6.277   0.214   1.364 -0.0331 -0.7134  0.2480
 5685SOL    HW117649   6.265   0.192   1.271 -1.1472 -1.4146  0.5585
 5685SOL    HW217650   6.220   0.289   1.379  2.2033  1.1386 -0.2940
 5686SOL     OW17651   2.681   5.907   3.407 -0.0771  0.4186 -0.3800
 5686SOL    HW117652   2.739   5.891   3.332  0.8777  1.2384  0.1808
 5686SOL    HW217653   2.640   5.822   3.424  1.9367 -0.4928  0.0284
 5687SOL     OW17654   5.711   4.263   5.636 -0.2278  0.2803  0.4661
 5687SOL    HW117655   5.764   4.184   5.645 -1.0226 -0.2994  0.0966
 5687SOL    HW217656   5.689   4.267   5.543  0.4718  1.3771  0.3320
 5688SOL     OW17657   0.719   4.939   5.147  0.1128  0.3016  0.3697
 5688SOL    HW117658   0.804   4.945   5.103  0.2496 -0.9891  0.4455
 5688SOL    HW217659   0.662   4.994   5.094  0.5895 -0.2037 -0.6927
 5689SOL     OW17660   3.625   6.578   5.598 -0.4284 -0.1651  0.1486
 5689SOL    HW117661   3.666   6.559   5.683 -2.7037 -1.3732  1.0142
 5689SOL    HW217662   3.542   6.531   5.600 -0.8308  0.3394 -2.5075
 5690SOL     OW17663   4.753   3.544   4.605 -0.0218 -0.1705 -0.2316
 5690SOL    HW117664   4.719   3.619   4.654  0.0030 -0.4205  0.1723
 5690SOL    HW217665   4.832   3.519   4.653 -0.0434 -0.4661 -0.3537
 5691SOL     OW17666   3.067   3.778   6.083 -0.1214  0.2221 -0.2826
 5691SOL    HW117667   3.089   3.818   5.998 -0.5935  0.4174 -0.3103
 5691SOL    HW217668   2.978   3.745   6.071  0.3778 -1.1107 -0.3610
 5692SOL     OW17669   6.649   7.150   2.355  0.0034  0.0601 -0.1108
 5692SOL    HW117670   6.724   7.197   2.320  0.1027  0.7033  0.9554
 5692SOL    HW217671   6.624   7.090   2.285  2.3209 -1.1012  0.0115
 5693SOL     OW17672   3.015   4.291   2.630  0.2957 -0.0684 -0.3370
 5693SOL    HW117673   3.025   4.361   2.565  0.6751  0.2999  0.1121
 5693SOL    HW217674   2.961   4.331   2.699  1.0959  0.0098  0.2468
 5694SOL     OW17675   4.096   4.260   0.922 -0.5560  0.2387 -0.4569
 5694SOL    HW117676   4.147   4.334   0.955  0.0762 -0.1463 -0.5622
 5694SOL    HW217677   4.158   4.209   0.869 -1.3534  0.4370 -1.6189
 5695SOL     OW17678   4.833   0.708   5.146  0.0232 -0.2363 -0.0338
 5695SOL    HW117679   4.882   0.628   5.166 -0.7440 -0.5401  0.6319
 5695SOL    HW217680   4.833   0.758   5.227  0.1477  0.2606 -0.3363
 5696SOL     OW17681   3.734   1.127   5.341 -0.1956  0.6821  0.1237
 5696SOL    HW117682   3.764   1.177   5.416 -1.3916  1.7795 -0.0990
 5696SOL    HW217683   3.805   1.133   5.277  0.7729 -0.1568  1.0962
 5697SOL     OW17684   6.527   3.147   4.145  0.1922 -0.0019 -0.2810
 5697SOL    HW117685   6.557   3.205   4.075  1.2148 -0.9803 -0.6555
 5697SOL    HW217686   6.432   3.158   4.145  0.4008  2.0468 -0.0103
 5698SOL     OW17687   5.378   1.247   6.504 -0.2786 -0.4528 -0.2729
 5698SOL    HW117688   5.444   1.267   6.570 -0.3506  0.0272 -0.3398
 5698SOL    HW217689   5.386   1.318   6.440 -1.7992  0.3903  0.4413
 5699SOL     OW17690   6.413   2.227   6.194  0.4549 -0.0968  0.0052
 5699SOL    HW117691   6.358   2.160   6.234  1.0849 -0.2203  0.6823
 5699SOL    HW217692   6.481   2.245   6.260  1.2774 -0.0253 -0.8441
 5700SOL     OW17693   0.659   6.214   2.643  0.1570  0.0720 -0.3018
 5700SOL    HW117694   0.633   6.181   2.729  0.7333  3.7002  1.3371
 5700SOL    HW217695   0.754   6.203   2.641  0.1001 -0.3780 -0.6601
 5701SOL     OW17696   7.182   0.215   1.185 -0.1306 -0.0828  0.2352
 5701SOL    HW117697   7.226   0.178   1.109 -0.8973 -1.2926  0.3560
 5701SOL    HW217698   7.252   0.236   1.246  0.3216 -1.7058  0.3062
 5702SOL     OW17699   6.077   2.569   5.455 -0.0949  0.0608 -0.5025
 5702SOL    HW117700   6.083   2.473   5.447 -2.5524 -0.2897  1.4024
 5702SOL    HW217701   6.122   2.589   5.536  2.3919  0.8217 -2.0129
 5703SOL     OW17702   5.931   1.897   4.890 -0.6162  0.3485 -0.1940
 5703SOL    HW117703   5.901   1.982   4.919 -2.3653  0.1965 -1.4689
 5703SOL    HW217704   5.899   1.890   4.800  0.5178 -1.1612 -0.5006
 5704SOL     OW17705   6.263   4.659   4.466  0.5874  0.0506 -0.1688
 5704SOL    HW117706   6.225   4.572   4.455  0.4808  0.1077 -0.2557
 5704SOL    HW217707   6.196   4.719   4.432  1.1842  0.0871 -1.3177
 5705SOL     OW17708   2.967   2.895   0.090 -0.4730 -0.4598 -0.4051
 5705SOL    HW117709   2.949   2.971   0.146 -0.5197  0.0418 -1.0953
 5705SOL    HW217710   3.059   2.905   0.065 -0.1011 -1.3467  0.5806
 5706SOL     OW17711   3.438   3.910   6.760  0.0819 -0.1006 -0.2919
 5706SOL    HW117712   3.361   3.964   6.747  0.7623  0.3307 -2.9571
 5706SOL    HW217713   3.508   3.957   6.715  0.9753 -2.4713 -1.4958
 5707SOL     OW17714   3.492   2.604   6.161 -0.7198  0.2917 -0.1601
 5707SOL    HW117715   3.402   2.595   6.130 -1.3747  2.8155  0.8563
 5707SOL    HW217716   3.540   2.535   6.116 -3.2297 -1.3442 -0.4332
 5708SOL     OW17717   3.510   0.109   1.658  0.2333 -0.3782  0.1394
 5708SOL    HW117718   3.544   0.123   1.570  1.1523  0.1027  0.5654
 5708SOL    HW217719   3.543   0.023   1.684  0.1461 -0.4252  0.0917
 5709SOL     OW17720   2.400   2.609   4.306 -0.2483 -0.0264 -0.1491
 5709SOL    HW117721   2.379   2.592   4.214 -0.9034 -1.2546  0.2095
 5709SOL    HW217722   2.495   2.596   4.312 -0.3297 -0.8117 -0.4807
 5710SOL     OW17723   1.825   5.002   2.319 -0.6429  0.1426 -0.4071
 5710SOL    HW117724   1.911   5.043   2.312 -0.0074 -1.1465 -0.0747
 5710SOL    HW217725   1.781   5.026   2.237 -0.0422  0.9329 -0.5061
 5711SOL     OW17726   0.963   7.080   5.339  0.1687 -0.0978 -0.1716
 5711SOL    HW117727   1.026   7.123   5.396 -0.2885  0.5165 -0.1261
 5711SOL    HW217728   0.885   7.069   5.393  0.3208 -1.0920 -0.1443
 5712SOL     OW17729   4.307   4.450   3.802 -0.3260  0.2075  0.3655
 5712SOL    HW117730   4.307   4.545   3.791 -0.7841  0.2524  0.7703
 5712SOL    HW217731   4.307   4.437   3.896 -1.3615 -0.2008  0.3150
 5713SOL     OW17732   4.387   3.946   4.643  0.0237  0.4741  0.0676
 5713SOL    HW117733   4.306   3.923   4.599  0.1638 -2.0297  1.0499
 5713SOL    HW217734   4.360   3.987   4.726 -0.2620 -0.6966  0.5639
 5714SOL     OW17735   3.067   0.513   4.890  0.0492 -0.2963  0.0455
 5714SOL    HW117736   3.112   0.563   4.821 -0.0087  0.3310  0.4602
 5714SOL    HW217737   2.990   0.566   4.911 -0.1950 -0.7331  0.2487
 5715SOL     OW17738   1.970   0.901   0.474 -0.0299  0.2218 -0.3637
 5715SOL    HW117739   1.898   0.839   0.487  0.1105  0.1504  0.0807
 5715SOL    HW217740   2.045   0.861   0.519  0.0117  0.8073  0.0868
 5716SOL     OW17741   6.327   4.795   7.049  0.2376  0.4698 -0.3822
 5716SOL    HW117742   6.329   4.845   6.968  0.2145 -1.0662 -1.3362
 5716SOL    HW217743   6.310   4.705   7.022 -0.5486  0.0626  1.3774
 5717SOL     OW17744   4.027   5.390   5.369 -0.5158  0.1331 -0.0553
 5717SOL    HW117745   4.094   5.435   5.420  0.1043 -1.2036  0.3329
 5717SOL    HW217746   3.944   5.430   5.396 -0.2499 -0.8859  2.3737
 5718SOL     OW17747   2.657   0.741   0.636 -0.0808 -0.1960 -0.9082
 5718SOL    HW117748   2.585   0.800   0.659  0.1272 -0.8117  1.4703
 5718SOL    HW217749   2.721   0.797   0.592 -0.3223  1.1786  0.4221
 5719SOL     OW17750   3.329   1.043   2.058  0.9175 -0.0527  0.5098
 5719SOL    HW117751   3.311   1.121   2.004 -1.2486  0.2385  1.5865
 5719SOL    HW217752   3.263   1.047   2.127  0.6097 -2.9960  0.4493
 5720SOL     OW17753   1.474   4.527   1.665 -0.7605 -0.0076  0.7135
 5720SOL    HW117754   1.450   4.435   1.680 -0.8592 -0.0139  0.5166
 5720SOL    HW217755   1.395   4.576   1.687 -0.4198  0.1013  1.7146
 5721SOL     OW17756   3.222   1.678   5.660 -0.0183 -0.3168 -0.4746
 5721SOL    HW117757   3.147   1.619   5.669 -0.9150  0.8543 -0.1551
 5721SOL    HW217758   3.285   1.645   5.724 -0.7002 -0.6473  0.0351
 5722SOL     OW17759   5.627   1.534   1.954  0.2291 -0.6306 -0.1317
 5722SOL    HW117760   5.690   1.510   2.021  0.2527 -2.3470 -0.7420
 5722SOL    HW217761   5.547   1.487   1.978  0.0510 -0.7505 -0.9383
 5723SOL     OW17762   4.753   3.768   3.924 -0.0433 -0.8341 -0.0390
 5723SOL    HW117763   4.793   3.684   3.948  0.1000 -0.5610  0.7044
 5723SOL    HW217764   4.679   3.744   3.868 -0.0921 -1.4660  0.2850
 5724SOL     OW17765   7.125   1.759   2.943 -0.3091 -0.3319  0.0725
 5724SOL    HW117766   7.202   1.793   2.989 -0.7868  0.3726  0.3585
 5724SOL    HW217767   7.128   1.800   2.857 -1.2799  1.0251  0.6656
 5725SOL     OW17768   1.276   0.555   5.882 -0.3700  0.6787 -0.1005
 5725SOL    HW117769   1.219   0.478   5.889  0.5207  0.0317  0.0348
 5725SOL    HW217770   1.315   0.564   5.969 -1.4483  2.0561  0.2651
 5726SOL     OW17771   4.756   4.293   5.358  0.3948  0.3641  0.0294
 5726SOL    HW117772   4.798   4.373   5.326  2.1361 -1.3533 -2.1845
 5726SOL    HW217773   4.829   4.238   5.387 -0.5876 -1.2501 -0.4972
 5727SOL     OW17774   1.123   3.654   1.030  0.3691 -0.5327 -0.0109
 5727SOL    HW117775   1.124   3.731   1.087  0.4271 -0.0252 -0.6910
 5727SOL    HW217776   1.066   3.591   1.074  0.8051 -0.3276  0.8448
 5728SOL     OW17777   0.926   2.601   2.808  0.3638  0.7077  0.1864
 5728SOL    HW117778   0.933   2.526   2.749 -0.0756 -0.0174  1.0467
 5728SOL    HW217779   0.984   2.579   2.881  0.2276  1.2043  0.4438
 5729SOL     OW17780   3.095   2.010   4.038  0.2641  0.1502 -0.5272
 5729SOL    HW117781   3.167   1.992   4.099  1.6578  0.9583 -1.8784
 5729SOL    HW217782   3.073   1.924   4.001 -0.4651 -0.3169  0.9458
 5730SOL     OW17783   2.099   5.821   6.260 -0.5012 -0.2180 -0.4207
 5730SOL    HW117784   2.006   5.811   6.281 -1.0842  0.9132 -2.2842
 5730SOL    HW217785   2.106   5.790   6.170  0.5588  1.4116 -0.9269
 5731SOL     OW17786   0.990   4.032   4.831  0.0396  0.0798  0.0994
 5731SOL    HW117787   0.989   4.124   4.856  0.6455 -0.1022  0.7971
 5731SOL    HW217788   0.899   4.004   4.842  0.1064  0.2496  1.2118
 5732SOL     OW17789   0.598   6.655   6.475 -0.2089  0.9410  0.2417
 5732SOL    HW117790   0.503   6.642   6.469  0.0689 -1.1054  0.0383
 5732SOL    HW217791   0.609   6.750   6.471 -2.2644  1.2163  0.5073
 5733SOL     OW17792   6.878   1.476   5.505 -0.4184  0.1226  0.1241
 5733SOL    HW117793   6.923   1.399   5.539 -0.2302  0.3593  0.4133
 5733SOL    HW217794   6.785   1.456   5.515 -0.3952 -0.6839 -1.1727
 5734SOL     OW17795   2.396   3.428   0.519  0.4570 -0.1791  0.1956
 5734SOL    HW117796   2.349   3.346   0.536 -0.0911  0.6510  2.9625
 5734SOL    HW217797   2.435   3.416   0.432  0.1815 -3.2588  0.4444
 5735SOL     OW17798   6.334   1.659   0.928 -0.7061 -0.7476 -0.4251
 5735SOL    HW117799   6.307   1.633   1.016 -0.0504 -0.1053 -0.0290
 5735SOL    HW217800   6.259   1.708   0.893  0.2672  1.8874  1.0409
 5736SOL     OW17801   4.861   2.238   0.770 -0.3851  0.2178  0.2958
 5736SOL    HW117802   4.831   2.227   0.680  0.7785  0.5781 -0.1441
 5736SOL    HW217803   4.844   2.331   0.789 -0.0180  0.3043  0.2117
 5737SOL     OW17804   6.637   5.883   5.788  0.1467  0.5121  0.0529
 5737SOL    HW117805   6.545   5.859   5.798 -0.4782  2.9933  0.4746
 5737SOL    HW217806   6.664   5.840   5.706 -1.4593  0.0239 -0.2382
 5738SOL     OW17807   4.560   3.202   5.644 -0.1376 -0.0741  0.2133
 5738SOL    HW117808   4.505   3.203   5.722 -2.1529 -1.9189 -1.1547
 5738SOL    HW217809   4.502   3.231   5.574  1.1037 -0.4144 -0.9606
 5739SOL     OW17810   6.522   6.612   1.708  0.0102  0.5056  0.4806
 5739SOL    HW117811   6.577   6.656   1.643 -0.7875 -1.8839 -1.9152
 5739SOL    HW217812   6.438   6.658   1.703  0.2652  0.9940  0.6065
 5740SOL     OW17813   5.688   3.348   6.426  0.1815  0.2417  0.7488
 5740SOL    HW117814   5.635   3.292   6.483  0.5899  1.2993  2.1888
 5740SOL    HW217815   5.635   3.360   6.348 -0.4958 -1.0120  0.9971
 5741SOL     OW17816   1.989   0.985   3.963 -0.5549  0.3794  0.7222
 5741SOL    HW117817   1.997   0.890   3.971 -1.2888 -0.0041 -2.4293
 5741SOL    HW217818   2.077   1.019   3.975  0.0807 -0.9040 -0.2555
 5742SOL     OW17819   0.486   2.368   0.621  0.2942 -0.1465 -0.9902
 5742SOL    HW117820   0.529   2.436   0.672  1.8029 -0.9776 -1.1259
 5742SOL    HW217821   0.417   2.334   0.679  0.3283  0.6607 -0.4776
 5743SOL     OW17822   5.803   0.401   5.019  0.0494 -0.2743 -0.4970
 5743SOL    HW117823   5.791   0.339   4.948 -3.0322 -0.4764  0.1288
 5743SOL    HW217824   5.818   0.485   4.975  0.4574 -0.7953 -1.3603
 5744SOL     OW17825   1.848   6.924   2.122  0.3586 -0.5057 -0.0543
 5744SOL    HW117826   1.852   7.000   2.065 -0.6092 -0.4877 -0.1027
 5744SOL    HW217827   1.774   6.873   2.090  0.3291 -0.9216  0.6528
 5745SOL     OW17828   0.832   6.331   3.153  0.4878  0.3331 -0.3169
 5745SOL    HW117829   0.794   6.357   3.069  0.6054  0.5953 -0.2895
 5745SOL    HW217830   0.761   6.343   3.216  0.0136 -1.0484 -0.5648
 5746SOL     OW17831   1.508   6.316   6.317 -0.1680  0.2363  0.1805
 5746SOL    HW117832   1.565   6.279   6.249  1.6403 -1.3645  2.4569
 5746SOL    HW217833   1.469   6.239   6.359  0.2483  1.0898  2.1769
 5747SOL     OW17834   4.711   4.956   3.208 -0.1990  0.3441  0.4965
 5747SOL    HW117835   4.776   4.986   3.144 -2.2438  1.4949 -1.1193
 5747SOL    HW217836   4.735   4.865   3.225  1.4438  0.5453 -0.5424
 5748SOL     OW17837   3.209   4.128   3.174  0.0997 -0.0956 -0.1978
 5748SOL    HW117838   3.219   4.202   3.233 -3.5692  0.3297 -0.0133
 5748SOL    HW217839   3.122   4.138   3.135 -0.4326 -4.1330 -0.3568
 5749SOL     OW17840   1.692   3.376   4.594 -0.5401 -0.3360  0.1687
 5749SOL    HW117841   1.623   3.422   4.641 -0.2654  0.8378 -0.5812
 5749SOL    HW217842   1.757   3.355   4.662 -0.7084  0.2950  0.5296
 5750SOL     OW17843   3.777   2.673   2.784  0.8235 -0.0452 -0.4200
 5750SOL    HW117844   3.848   2.708   2.836  1.8544  0.1321 -1.9077
 5750SOL    HW217845   3.705   2.660   2.846  2.5786 -1.5050  1.3649
 5751SOL     OW17846   0.873   2.436   5.131  0.2787 -0.9989  0.4450
 5751SOL    HW117847   0.880   2.382   5.052 -0.4022  1.7120 -1.5538
 5751SOL    HW217848   0.954   2.418   5.179  0.9362 -2.3470 -1.1039
 5752SOL     OW17849   1.458   1.789   4.339  0.2630 -0.2031  0.1007
 5752SOL    HW117850   1.507   1.788   4.257  1.4887 -0.8617  0.8312
 5752SOL    HW217851   1.420   1.877   4.343 -0.2081 -0.3298 -1.3993
 5753SOL     OW17852   4.669   0.337   2.608 -0.4067 -0.5159 -0.1895
 5753SOL    HW117853   4.735   0.375   2.666 -0.0087 -1.4749 -0.0063
 5753SOL    HW217854   4.674   0.391   2.528 -2.5870  2.3020  1.4878
 5754SOL     OW17855   2.392   2.932   4.465  0.1669 -0.6472 -0.0111
 5754SOL    HW117856   2.307   2.973   4.451 -0.2816 -1.4467  0.3500
 5754SOL    HW217857   2.426   2.917   4.376  0.3224  0.4578 -0.1489
 5755SOL     OW17858   3.573   2.606   1.300  0.7797  0.2727 -0.2190
 5755SOL    HW117859   3.668   2.594   1.310  1.3136  2.5224 -2.1785
 5755SOL    HW217860   3.553   2.682   1.354  0.2616  0.3874 -0.5749
 5756SOL     OW17861   7.076   3.880   4.997  0.0250  0.1329 -0.5822
 5756SOL    HW117862   7.128   3.847   5.070  0.9151  0.9740 -0.8184
 5756SOL    HW217863   7.079   3.975   5.007  2.0574  0.3670 -2.9701
 5757SOL     OW17864   1.639   5.730   3.920 -0.4073  0.2195 -0.5480
 5757SOL    HW117865   1.659   5.707   4.011 -0.1834  4.0185  0.4070
 5757SOL    HW217866   1.547   5.759   3.921 -0.1918  0.9687 -1.4115
 5758SOL     OW17867   1.367   3.529   5.948 -0.0752  0.5467 -0.1867
 5758SOL    HW117868   1.356   3.584   5.871  0.6317  0.6468 -0.2171
 5758SOL    HW217869   1.324   3.577   6.019 -1.5298  0.0358 -0.6868
 5759SOL     OW17870   5.180   2.583   6.794  0.4636 -0.3886 -0.3529
 5759SOL    HW117871   5.260   2.625   6.762  0.0837  0.9457  0.3833
 5759SOL    HW217872   5.116   2.598   6.724  0.5362 -0.4169 -0.4250
 5760SOL     OW17873   2.990   5.386   4.234 -0.8124 -0.7229  0.3271
 5760SOL    HW117874   2.943   5.426   4.307 -1.4763 -0.0872 -0.4369
 5760SOL    HW217875   3.003   5.457   4.172  2.8117 -0.4559  1.2932
 5761SOL     OW17876   1.648   1.340   6.234 -0.0689 -0.1355 -0.6630
 5761SOL    HW117877   1.629   1.304   6.147  3.5281 -1.0927 -1.1541
 5761SOL    HW217878   1.661   1.434   6.218  0.4918 -0.2919 -1.1620
 5762SOL     OW17879   0.913   2.617   4.411 -0.3316  0.3145 -0.1651
 5762SOL    HW117880   0.924   2.523   4.399 -1.2424  0.4339 -2.0129
 5762SOL    HW217881   0.997   2.647   4.447 -0.0967 -1.2156  0.5931
 5763SOL     OW17882   5.972   6.383   1.194  0.0248 -0.1513  0.3117
 5763SOL    HW117883   5.980   6.469   1.235  0.4149 -0.4393  0.8437
 5763SOL    HW217884   5.880   6.359   1.204 -0.1047  0.2427  0.0817
 5764SOL     OW17885   3.227   6.490   3.956  0.0233  0.0132  0.1220
 5764SOL    HW117886   3.166   6.469   4.026  1.5187  0.8364  1.7165
 5764SOL    HW217887   3.261   6.576   3.978  1.5871 -0.3261 -0.8446
 5765SOL     OW17888   7.180   5.108   6.755  0.5998 -0.4475  0.2692
 5765SOL    HW117889   7.122   5.153   6.818 -0.8338 -1.5272 -0.2531
 5765SOL    HW217890   7.266   5.111   6.796 -0.0191  0.2371  1.5695
 5766SOL     OW17891   3.688   0.036   5.105 -0.6623  0.2334 -0.6111
 5766SOL    HW117892   3.726   0.106   5.052 -1.0519  1.2539  0.4281
 5766SOL    HW217893   3.761   0.005   5.160 -0.3178 -0.6624 -1.5523
 5767SOL     OW17894   5.289   6.373   5.500  0.2123  0.8595 -0.4101
 5767SOL    HW117895   5.339   6.292   5.510  1.3976  1.8036  1.8087
 5767SOL    HW217896   5.251   6.369   5.412  3.2973 -0.3936 -1.7238
 5768SOL     OW17897   3.373   2.361   2.445  0.3725 -0.1039 -0.7579
 5768SOL    HW117898   3.406   2.310   2.520  1.0953 -0.0449 -1.0277
 5768SOL    HW217899   3.283   2.330   2.433  0.1526  0.0800  0.3058
 5769SOL     OW17900   1.255   5.149   5.104 -0.5066 -0.1077  0.1160
 5769SOL    HW117901   1.312   5.180   5.034 -0.8463 -0.3828 -0.2858
 5769SOL    HW217902   1.269   5.054   5.106 -1.5852 -0.2907 -0.5630
 5770SOL     OW17903   1.425   6.392   1.948 -0.1356 -0.2570  0.7864
 5770SOL    HW117904   1.495   6.374   1.885  0.8332 -0.1605  1.8142
 5770SOL    HW217905   1.434   6.485   1.968 -0.6623 -0.2074  0.8006
 5771SOL     OW17906   4.975   0.819   6.267  0.6085 -0.0390 -0.2752
 5771SOL    HW117907   5.035   0.768   6.212 -0.8870  0.1790 -2.1407
 5771SOL    HW217908   5.005   0.909   6.257  0.1054  0.0475 -1.0588
 5772SOL     OW17909   1.939   1.378   0.408 -0.1789 -0.2303  0.3681
 5772SOL    HW117910   1.996   1.304   0.388  0.2214  0.2072 -0.1211
 5772SOL    HW217911   1.879   1.383   0.333  0.7867  0.8940 -0.3434
 5773SOL     OW17912   1.128   7.059   4.178  0.3510 -0.4050 -0.3105
 5773SOL    HW117913   1.130   7.152   4.201 -0.3009 -0.1846 -1.1219
 5773SOL    HW217914   1.175   7.054   4.094 -0.0595 -0.7293 -0.5220
 5774SOL     OW17915   5.143   6.592   5.462  0.1775 -0.1125 -0.5799
 5774SOL    HW117916   5.077   6.598   5.532  0.9846 -0.3873  0.2111
 5774SOL    HW217917   5.195   6.516   5.486 -0.5208 -1.1825 -2.3386
 5775SOL     OW17918   3.027   1.711   4.780 -0.0232 -0.1885  0.2511
 5775SOL    HW117919   3.039   1.801   4.812  2.4208 -0.7330  0.9947
 5775SOL    HW217920   3.098   1.662   4.821 -0.0811 -2.0429 -1.8041
 5776SOL     OW17921   0.610   2.575   3.140 -0.3581  0.4804 -0.2935
 5776SOL    HW117922   0.629   2.509   3.074  0.1106  1.3005 -0.9836
 5776SOL    HW217923   0.553   2.530   3.203 -1.0005 -0.2365 -1.3694
 5777SOL     OW17924   1.455   2.578   3.462 -0.4156  0.4514 -0.1980
 5777SOL    HW117925   1.483   2.659   3.504  1.2061  0.2584 -0.8640
 5777SOL    HW217926   1.462   2.511   3.530  0.0632  0.5356 -0.1652
 5778SOL     OW17927   6.872   0.179   3.434 -0.5215 -0.2241 -0.1103
 5778SOL    HW117928   6.800   0.242   3.432 -0.7244 -0.4618 -0.4461
 5778SOL    HW217929   6.932   0.210   3.367 -0.7190 -0.4987 -0.4191
 5779SOL     OW17930   0.911   1.598   2.292  0.4627  0.0917 -0.3512
 5779SOL    HW117931   0.832   1.650   2.311  1.2121  1.3716 -0.6870
 5779SOL    HW217932   0.882   1.507   2.301 -1.3001  0.5198 -1.3732
 5780SOL     OW17933   1.789   4.074   2.604 -0.1996  0.0031 -0.5878
 5780SOL    HW117934   1.807   4.034   2.689 -1.3130  0.7140 -0.0056
 5780SOL    HW217935   1.783   4.000   2.544 -0.2137 -0.5633  0.1037
 5781SOL     OW17936   3.805   1.841   3.595 -0.2719  0.2867 -0.5571
 5781SOL    HW117937   3.826   1.861   3.687 -0.5977 -0.1178 -0.3884
 5781SOL    HW217938   3.825   1.921   3.547  2.4665 -0.3296 -0.5426
 5782SOL     OW17939   0.678   6.409   2.143  0.1979 -0.0817 -0.2284
 5782SOL    HW117940   0.655   6.410   2.050 -0.7179  0.6620 -0.0077
 5782SOL    HW217941   0.669   6.500   2.170  3.2537  0.2269 -0.0597
 5783SOL     OW17942   3.775   5.252   3.825  0.2774  0.0116 -0.4622
 5783SOL    HW117943   3.835   5.292   3.888  0.6384  1.6110 -1.7774
 5783SOL    HW217944   3.770   5.160   3.851 -0.6793  0.8904  2.7447
 5784SOL     OW17945   6.821   5.174   5.944  0.0928 -0.2319  0.2333
 5784SOL    HW117946   6.833   5.085   5.977 -0.8194 -0.7210 -0.7198
 5784SOL    HW217947   6.889   5.184   5.877  1.7319  0.6460  1.9599
 5785SOL     OW17948   2.874   1.377   2.941  0.5341  0.0774 -0.4615
 5785SOL    HW117949   2.854   1.467   2.966  1.1524 -0.1452  0.8251
 5785SOL    HW217950   2.894   1.332   3.023 -1.2521 -1.6129 -0.9036
 5786SOL     OW17951   4.733   3.046   4.782 -0.5755  0.3788  0.1891
 5786SOL    HW117952   4.707   2.999   4.861  0.3028  1.0906  0.9223
 5786SOL    HW217953   4.712   3.137   4.800 -1.5653  0.3804 -0.9182
 5787SOL     OW17954   0.045   3.375   3.554 -0.7599 -0.0127  0.1067
 5787SOL    HW117955  -0.001   3.384   3.470 -0.5573  0.9339  0.0912
 5787SOL    HW217956   0.013   3.449   3.607  0.1177  0.1771  0.3814
 5788SOL     OW17957   4.677   1.029   5.767  0.3478  0.3150  0.3048
 5788SOL    HW117958   4.733   1.019   5.843  2.9442  0.4732 -1.5175
 5788SOL    HW217959   4.684   0.945   5.720 -0.5727  0.4998 -0.1892
 5789SOL     OW17960   6.206   2.396   6.132 -1.0014  0.4376 -0.1474
 5789SOL    HW117961   6.286   2.343   6.129 -0.9641  0.4859  0.0029
 5789SOL    HW217962   6.225   2.465   6.194 -0.8622  0.9335 -0.7403
 5790SOL     OW17963   2.610   3.940   3.743  0.1510  0.6424 -0.0101
 5790SOL    HW117964   2.603   3.940   3.647  0.4656 -1.0735 -0.0409
 5790SOL    HW217965   2.704   3.944   3.760  0.1953 -1.0244  0.2001
 5791SOL     OW17966   2.220   3.027   4.955  0.2222  0.5461  0.3483
 5791SOL    HW117967   2.259   3.106   4.992 -0.6042  0.6677  0.9883
 5791SOL    HW217968   2.136   3.019   5.000 -0.2760  0.0309 -0.6671
 5792SOL     OW17969   1.007   4.148   3.835 -0.1813 -0.2044  0.1774
 5792SOL    HW117970   1.067   4.219   3.814 -1.8514  0.6013 -2.0854
 5792SOL    HW217971   1.063   4.070   3.839  1.3554  0.9024  0.5573
 5793SOL     OW17972   3.959   1.205   4.027  0.6247 -0.5141 -0.2538
 5793SOL    HW117973   3.877   1.182   4.070 -0.3216  1.6497 -0.8129
 5793SOL    HW217974   4.022   1.212   4.099  0.1571 -1.4451  0.2594
 5794SOL     OW17975   1.616   6.379   4.695  0.4091  0.5552  0.2242
 5794SOL    HW117976   1.537   6.352   4.648  0.2009  0.5367  0.5863
 5794SOL    HW217977   1.680   6.311   4.676  0.5215  0.8729 -0.5556
 5795SOL     OW17978   4.460   0.721   1.935 -0.1350 -0.3277 -0.0273
 5795SOL    HW117979   4.493   0.679   1.856 -0.5770 -0.6408 -0.0494
 5795SOL    HW217980   4.528   0.707   2.000 -0.9679 -2.4750  0.4082
 5796SOL     OW17981   6.384   0.610   4.459  0.1842 -0.1582 -0.6753
 5796SOL    HW117982   6.458   0.549   4.468  0.4338  0.6253  3.6771
 5796SOL    HW217983   6.418   0.681   4.406  2.3076 -0.2543  0.4974
 5797SOL     OW17984   2.618   5.479   3.656  0.6269  0.2701  0.9297
 5797SOL    HW117985   2.679   5.407   3.642  0.2976  0.2584 -0.6131
 5797SOL    HW217986   2.537   5.436   3.685  0.6622  0.0724  0.7425
 5798SOL     OW17987   7.191   6.637   1.162  0.0976  0.0654  0.2574
 5798SOL    HW117988   7.114   6.602   1.205  0.5404 -0.8248  0.3349
 5798SOL    HW217989   7.169   6.637   1.069 -0.3717  0.7694  0.3656
 5799SOL     OW17990   1.591   2.435   6.389  0.0994  0.1360  0.4576
 5799SOL    HW117991   1.514   2.491   6.398 -1.0025 -0.7152 -2.8660
 5799SOL    HW217992   1.565   2.351   6.427  0.5717  0.7977  2.3109
 5800SOL     OW17993   1.406   1.357   0.783 -0.4030 -0.4545 -0.3382
 5800SOL    HW117994   1.448   1.272   0.775 -3.3189 -2.1248  1.2936
 5800SOL    HW217995   1.401   1.373   0.878  0.4433  1.7452 -0.6218
 5801SOL     OW17996   0.285   0.647   1.517 -0.3515  0.0362  0.3675
 5801SOL    HW117997   0.325   0.614   1.436 -0.7753 -0.6005  0.4195
 5801SOL    HW217998   0.276   0.570   1.572 -0.6718  0.3640  0.7727
 5802SOL     OW17999   4.488   6.405   2.031  0.2985  0.1903 -0.7883
 5802SOL    HW118000   4.446   6.347   1.968 -0.9651  0.7024 -0.4454
 5802SOL    HW218001   4.432   6.401   2.108  0.7210  1.1160 -0.4242
 5803SOL     OW18002   1.699   6.782   3.741  0.0428 -0.2454 -0.8012
 5803SOL    HW118003   1.768   6.844   3.764 -0.9375  0.4087  0.4251
 5803SOL    HW218004   1.733   6.736   3.664  0.8517  1.6851 -1.6234
 5804SOL     OW18005   3.668   6.634   4.518  0.1868 -0.0208 -0.1312
 5804SOL    HW118006   3.711   6.587   4.446 -2.5640 -0.7667 -1.3190
 5804SOL    HW218007   3.607   6.571   4.555  1.2503  0.5019  2.6167
 5805SOL     OW18008   3.665   5.847   2.791 -0.3496  0.3237 -0.1057
 5805SOL    HW118009   3.651   5.930   2.747 -1.0866  0.1620 -0.1985
 5805SOL    HW218010   3.709   5.792   2.727  0.3372  0.7167  0.0335
 5806SOL     OW18011   0.349   6.904   1.708  0.3088  0.4997  0.0271
 5806SOL    HW118012   0.326   6.959   1.783  0.9570 -0.2746  0.8124
 5806SOL    HW218013   0.273   6.846   1.697 -0.4801  1.7116 -0.9636
 5807SOL     OW18014   6.756   7.076   1.501 -0.3966 -0.1533  0.0312
 5807SOL    HW118015   6.731   7.130   1.576  1.3741  0.1431  0.4355
 5807SOL    HW218016   6.781   7.140   1.433 -2.3037 -0.4083 -0.9450
 5808SOL     OW18017   3.928   2.527   6.797  0.2076  0.9470 -0.0745
 5808SOL    HW118018   3.942   2.542   6.890  0.2351  0.8306 -0.0610
 5808SOL    HW218019   3.834   2.540   6.785 -0.5602 -3.2836  0.7424
 5809SOL     OW18020   4.275   5.629   3.625 -0.0946 -0.3916 -0.1121
 5809SOL    HW118021   4.312   5.604   3.710  0.2388  2.8827  0.7639
 5809SOL    HW218022   4.180   5.617   3.636  0.2128 -4.0406 -0.7414
 5810SOL     OW18023   1.913   6.766   4.705  0.7200 -0.8640  0.4032
 5810SOL    HW118024   1.982   6.817   4.662  0.3922 -1.2034 -0.5362
 5810SOL    HW218025   1.954   6.681   4.722  0.2206 -1.4244 -1.1127
 5811SOL     OW18026   0.152   1.701   1.779 -0.0570 -0.0145  0.2945
 5811SOL    HW118027   0.062   1.733   1.784 -0.7397 -1.6292 -1.0068
 5811SOL    HW218028   0.200   1.752   1.844 -1.4404  2.3665 -0.5155
 5812SOL     OW18029   0.043   3.161   4.311 -0.1655 -0.0093 -0.4666
 5812SOL    HW118030  -0.026   3.209   4.357  0.6193 -0.1715  0.8889
 5812SOL    HW218031   0.056   3.211   4.230 -0.2776  1.3490  0.3261
 5813SOL     OW18032   4.823   0.252   5.202 -0.3188  0.1453  0.3791
 5813SOL    HW118033   4.867   0.336   5.185 -0.4163 -0.0254 -0.7960
 5813SOL    HW218034   4.843   0.199   5.125 -1.8817 -0.2353  0.2232
 5814SOL     OW18035   3.296   4.054   0.972  0.4336 -0.0932  0.2469
 5814SOL    HW118036   3.283   4.090   0.884  0.4395 -0.3403  0.1437
 5814SOL    HW218037   3.330   4.127   1.023  0.0749  0.1528  0.1370
 5815SOL     OW18038   7.182   3.955   3.367  0.1560  0.1702 -0.1786
 5815SOL    HW118039   7.245   3.992   3.305 -0.5818  0.2677 -0.8753
 5815SOL    HW218040   7.134   4.032   3.400 -1.0989 -0.1004 -1.3163
 5816SOL     OW18041   2.128   0.348   3.760  0.0840 -0.0353 -0.5395
 5816SOL    HW118042   2.048   0.341   3.708 -0.0890 -0.9142 -0.1581
 5816SOL    HW218043   2.199   0.351   3.695 -0.1518 -0.8095 -0.8268
 5817SOL     OW18044   0.162   1.032   7.188  0.1707 -0.5005  0.3162
 5817SOL    HW118045   0.167   1.125   7.167  0.2635 -0.4490  0.5690
 5817SOL    HW218046   0.126   1.029   7.276  0.6781 -0.6861  0.5183
 5818SOL     OW18047   0.977   5.476   5.864  0.0615 -0.8270 -0.1004
 5818SOL    HW118048   0.969   5.571   5.862  1.1396 -0.7390 -1.3922
 5818SOL    HW218049   0.928   5.447   5.787 -1.8109 -1.4561  1.3120
 5819SOL     OW18050   4.019   0.108   1.388  0.3412 -0.0771  0.0635
 5819SOL    HW118051   4.007   0.201   1.369  1.7007  0.3250  1.0315
 5819SOL    HW218052   4.106   0.088   1.353  1.1601 -0.3179  2.1391
 5820SOL     OW18053   1.351   3.888   6.093  0.3680 -0.4607 -0.2306
 5820SOL    HW118054   1.296   3.942   6.036  0.0657  1.7291  2.0802
 5820SOL    HW218055   1.295   3.868   6.168  1.8062 -0.5892  0.8292
 5821SOL     OW18056   3.741   6.164   0.925  0.2087 -0.4042  0.3722
 5821SOL    HW118057   3.763   6.077   0.959  1.5421 -0.8258 -1.5232
 5821SOL    HW218058   3.758   6.159   0.831 -1.2170  1.4447 -0.0184
 5822SOL     OW18059   5.890   6.131   3.819 -0.3020  0.1079 -0.0902
 5822SOL    HW118060   5.881   6.195   3.749 -0.0953 -0.0530 -0.2633
 5822SOL    HW218061   5.849   6.052   3.785  0.6647 -0.2677 -0.4188
 5823SOL     OW18062   4.441   0.542   5.599 -0.3876  0.1950 -0.2297
 5823SOL    HW118063   4.404   0.478   5.659 -1.6015  0.9282 -0.2001
 5823SOL    HW218064   4.467   0.490   5.522  0.6367 -0.6509  0.6577
 5824SOL     OW18065   3.434   1.612   3.576 -0.1658  0.3905  0.0802
 5824SOL    HW118066   3.380   1.670   3.629 -1.1386 -1.8033  1.5768
 5824SOL    HW218067   3.372   1.567   3.519  0.1668 -1.4111  1.0990
 5825SOL     OW18068   6.195   2.946   0.853 -0.3848  0.4285  0.7163
 5825SOL    HW118069   6.288   2.960   0.871 -0.3242 -0.1843  0.8941
 5825SOL    HW218070   6.158   2.922   0.938 -0.7567  0.9032  0.6953
 5826SOL     OW18071   5.102   0.721   4.314  0.3100 -0.1472 -0.2788
 5826SOL    HW118072   5.109   0.790   4.381 -0.5554 -0.0105 -0.3275
 5826SOL    HW218073   5.050   0.653   4.356 -0.8396  0.2380 -1.0500
 5827SOL     OW18074   3.930   6.320   1.214  0.4958  0.5060  0.1022
 5827SOL    HW118075   4.006   6.357   1.168  0.4145  0.7828  0.1924
 5827SOL    HW218076   3.854   6.357   1.168  0.4026 -0.6948 -0.7578
 5828SOL     OW18077   3.617   1.519   1.282 -0.2595  0.1134  0.1253
 5828SOL    HW118078   3.567   1.593   1.250 -2.6207 -1.2968  0.4612
 5828SOL    HW218079   3.689   1.558   1.332 -1.1069  2.1514 -0.2083
 5829SOL     OW18080   3.688   6.335   4.457  0.0796  0.0285  0.3685
 5829SOL    HW118081   3.604   6.323   4.412 -0.0222 -0.5424  0.7043
 5829SOL    HW218082   3.748   6.274   4.415  0.3301  0.4477  0.1190
 5830SOL     OW18083   6.274   3.737   2.353 -0.0200 -0.1033 -0.3940
 5830SOL    HW118084   6.183   3.709   2.355 -0.1135  0.2506  0.5442
 5830SOL    HW218085   6.324   3.656   2.348 -0.3668 -0.3148 -0.4336
 5831SOL     OW18086   0.740   7.159   3.284  0.0363 -0.3728  0.1619
 5831SOL    HW118087   0.728   7.143   3.190  0.2273 -1.2093  0.2766
 5831SOL    HW218088   0.666   7.115   3.325 -0.0211 -0.0416  0.4143
 5832SOL     OW18089   2.452   5.152   1.647  0.4402  0.3873  0.0956
 5832SOL    HW118090   2.393   5.125   1.577 -0.2021  1.8742  0.0443
 5832SOL    HW218091   2.463   5.074   1.702 -1.3619  0.0413 -0.0302
 5833SOL     OW18092   5.291   4.251   1.545  0.4841 -0.4637 -0.4858
 5833SOL    HW118093   5.196   4.249   1.535  0.5442 -2.3040 -0.9508
 5833SOL    HW218094   5.304   4.253   1.640 -0.0148  1.4375 -0.4462
 5834SOL     OW18095   0.167   5.062   4.638 -0.1641  0.1384  0.9474
 5834SOL    HW118096   0.202   4.976   4.612 -0.9601  0.5817 -1.6888
 5834SOL    HW218097   0.092   5.076   4.581  0.4881  3.0074  0.7176
 5835SOL     OW18098   7.189   1.715   4.194  0.2318 -0.0218  0.5169
 5835SOL    HW118099   7.284   1.703   4.200  0.3915  1.1503  0.4252
 5835SOL    HW218100   7.178   1.810   4.184 -1.0193  0.0146  2.1669
 5836SOL     OW18101   4.535   1.812   6.995 -0.3995 -0.1559 -0.2838
 5836SOL    HW118102   4.478   1.857   6.933  1.3042  3.6532  0.8169
 5836SOL    HW218103   4.619   1.804   6.950 -0.4743 -1.6458 -0.1886
 5837SOL     OW18104   1.067   1.251   1.665 -0.4420 -0.1221  0.4833
 5837SOL    HW118105   0.972   1.257   1.662 -0.3929  1.4849  1.5101
 5837SOL    HW218106   1.085   1.189   1.736 -0.7436 -2.2480 -1.2610
 5838SOL     OW18107   4.189   1.818   0.650  0.0857 -0.4285 -0.0836
 5838SOL    HW118108   4.200   1.830   0.556 -0.4421 -2.8233 -0.4832
 5838SOL    HW218109   4.149   1.899   0.681  1.2838  0.8003 -1.7418
 5839SOL     OW18110   6.463   5.638   6.661  0.3060 -0.1168 -0.3425
 5839SOL    HW118111   6.376   5.633   6.701  0.5404  1.2326  0.3637
 5839SOL    HW218112   6.522   5.610   6.731  0.5937  0.8028 -0.2164
 5840SOL     OW18113   4.674   1.283   2.729 -0.4931 -0.3590 -0.8801
 5840SOL    HW118114   4.634   1.323   2.652 -0.3171 -1.1381 -1.3869
 5840SOL    HW218115   4.726   1.211   2.694 -0.7656 -0.9991  0.0015
 5841SOL     OW18116   3.069   5.813   2.212  0.3534  0.6079 -0.2946
 5841SOL    HW118117   3.074   5.748   2.142 -1.5200 -0.1712  0.2633
 5841SOL    HW218118   3.001   5.874   2.184  0.2760  0.8410  0.3755
 5842SOL     OW18119   1.528   5.161   2.774 -0.4259 -0.1090 -0.1244
 5842SOL    HW118120   1.481   5.180   2.693 -0.9171  0.7922  0.3563
 5842SOL    HW218121   1.477   5.205   2.842 -0.0968 -0.9605  0.6960
 5843SOL     OW18122   4.473   6.608   6.912  0.5369  0.0631  0.2915
 5843SOL    HW118123   4.437   6.625   6.825  1.6722 -1.5478 -0.5176
 5843SOL    HW218124   4.399   6.577   6.963 -0.4097  2.2048  0.2731
 5844SOL     OW18125   2.901   5.112   2.767  0.0872  0.4311  0.2323
 5844SOL    HW118126   2.901   5.044   2.701  0.5752 -0.5355  1.2187
 5844SOL    HW218127   2.814   5.108   2.806  1.1966 -1.9075  2.5876
 5845SOL     OW18128   4.899   4.136   3.509  0.2751  0.1070 -0.1099
 5845SOL    HW118129   4.951   4.158   3.587 -0.6203  1.8330  0.0241
 5845SOL    HW218130   4.906   4.041   3.502  1.3710  0.0542  1.3774
 5846SOL     OW18131   0.187   4.102   6.662  0.1237 -0.0401  0.1552
 5846SOL    HW118132   0.110   4.137   6.707 -0.6277 -0.8925 -0.4344
 5846SOL    HW218133   0.240   4.064   6.732  0.1625  0.8252  0.6036
 5847SOL     OW18134   0.224   1.284   5.975  0.0192  0.2762  0.8265
 5847SOL    HW118135   0.304   1.249   6.015  0.2775  0.3703  0.3929
 5847SOL    HW218136   0.251   1.312   5.888 -0.2301  1.3514  1.0752
 5848SOL     OW18137   5.270   5.357   6.657  0.1249  0.7311  0.1633
 5848SOL    HW118138   5.355   5.402   6.657  0.6332 -0.1979  0.9169
 5848SOL    HW218139   5.264   5.316   6.571  0.9639 -0.1388  0.5082
 5849SOL     OW18140   2.553   2.001   5.862 -0.0603 -0.3305 -0.0762
 5849SOL    HW118141   2.584   1.933   5.801 -0.7455  0.1496 -0.9845
 5849SOL    HW218142   2.459   1.987   5.867 -0.2013  0.5288 -0.2422
 5850SOL     OW18143   7.087   3.519   5.141  0.2877 -0.4678  0.2300
 5850SOL    HW118144   7.040   3.544   5.062 -0.5130  0.2276  0.9086
 5850SOL    HW218145   7.120   3.602   5.176  2.1579 -0.9752 -0.3266
 5851SOL     OW18146   3.922   4.374   0.716 -0.6974  0.0678  0.2684
 5851SOL    HW118147   3.900   4.298   0.663 -1.6104  0.4927  0.0390
 5851SOL    HW218148   3.980   4.340   0.784  0.0794 -0.5682 -0.6965
 5852SOL     OW18149   1.817   4.921   0.856  0.3732  0.2339  0.4054
 5852SOL    HW118150   1.895   4.970   0.830 -0.5218  1.5535  0.1293
 5852SOL    HW218151   1.806   4.942   0.949 -0.7579  1.6416 -0.0259
 5853SOL     OW18152   6.603   0.904   6.692 -0.5719  0.3541  1.0348
 5853SOL    HW118153   6.529   0.939   6.742 -0.7475 -1.4597  2.0956
 5853SOL    HW218154   6.666   0.876   6.759 -0.1621 -0.7145  0.2168
 5854SOL     OW18155   3.282   4.357   3.390  0.1318  0.2050  0.2972
 5854SOL    HW118156   3.373   4.381   3.406  0.5450 -0.2649 -1.2733
 5854SOL    HW218157   3.262   4.396   3.305 -0.2635 -2.0281 -0.6591
 5855SOL     OW18158   0.451   4.392   5.688 -0.2853 -0.5632 -0.0081
 5855SOL    HW118159   0.395   4.365   5.762 -1.6889 -0.7802 -1.1343
 5855SOL    HW218160   0.540   4.366   5.715 -0.3879  1.6808  2.7188
 5856SOL     OW18161   2.682   1.481   2.515  0.6634  0.1686 -0.1153
 5856SOL    HW118162   2.650   1.559   2.469 -0.1631 -0.3809 -0.5042
 5856SOL    HW218163   2.602   1.438   2.548  1.2190  0.3595  1.5318
 5857SOL     OW18164   1.684   1.636   4.442 -0.2681 -0.0569  0.4179
 5857SOL    HW118165   1.601   1.677   4.419  0.9332  2.4189  0.3574
 5857SOL    HW218166   1.659   1.556   4.487 -2.6786 -0.4299 -1.4532
 5858SOL     OW18167   6.264   5.449   5.451 -0.4278  0.4175  0.5383
 5858SOL    HW118168   6.242   5.411   5.536 -0.2151 -2.6580 -0.7130
 5858SOL    HW218169   6.359   5.449   5.447 -0.4426 -0.4613 -0.0988
 5859SOL     OW18170   6.967   4.586   1.936  0.0241 -0.5029 -0.1764
 5859SOL    HW118171   6.938   4.526   1.867 -1.3021  0.8442 -0.8192
 5859SOL    HW218172   7.061   4.594   1.921 -0.0226 -1.2779 -0.9963
 5860SOL     OW18173   6.333   6.696   6.844 -0.3617 -0.3610 -0.9561
 5860SOL    HW118174   6.309   6.705   6.936 -0.2650 -1.4347 -0.8117
 5860SOL    HW218175   6.386   6.773   6.825  1.9180 -1.4717  0.6542
 5861SOL     OW18176   4.632   5.087   1.974  0.0751  0.0280  0.2078
 5861SOL    HW118177   4.725   5.093   1.953  0.2748 -0.1335  1.0373
 5861SOL    HW218178   4.627   5.107   2.067 -0.8096  0.7482  0.0070
 5862SOL     OW18179   0.328   4.965   4.378  0.4124 -0.3264 -0.3833
 5862SOL    HW118180   0.308   4.899   4.445  0.0599 -0.1584 -0.3190
 5862SOL    HW218181   0.329   4.915   4.296  1.5026 -0.6461 -0.1803
 5863SOL     OW18182   4.665   0.663   2.724  0.0712 -0.0710  0.0124
 5863SOL    HW118183   4.612   0.694   2.798 -0.6514 -1.0373 -0.0852
 5863SOL    HW218184   4.754   0.658   2.758 -0.1712 -0.0021  0.6640
 5864SOL     OW18185   0.637   6.600   4.932 -0.3873  0.1341  0.3807
 5864SOL    HW118186   0.710   6.540   4.916 -0.3158  0.0245  1.0854
 5864SOL    HW218187   0.673   6.666   4.992 -0.6749  0.4691  0.1886
 5865SOL     OW18188   3.672   3.438   1.080 -0.0254  0.2415 -0.2647
 5865SOL    HW118189   3.671   3.522   1.034  1.5699 -1.2570 -3.1989
 5865SOL    HW218190   3.764   3.414   1.084 -0.3212 -0.6394  2.0263
 5866SOL     OW18191   6.338   3.126   4.503  0.1764  0.2407  0.0528
 5866SOL    HW118192   6.324   3.093   4.414  3.0725  1.8534 -1.0631
 5866SOL    HW218193   6.301   3.059   4.560 -1.1620 -1.1242 -2.3350
 5867SOL     OW18194   6.824   3.976   0.967 -0.3123 -0.2306  0.0783
 5867SOL    HW118195   6.840   4.058   0.920  0.1549 -1.1461 -1.3662
 5867SOL    HW218196   6.836   3.999   1.059 -0.7056  1.4504 -0.2755
 5868SOL     OW18197   7.099   1.518   0.813  0.0796 -0.2156 -0.3288
 5868SOL    HW118198   7.126   1.427   0.806 -2.5016 -0.8935 -2.4378
 5868SOL    HW218199   7.010   1.514   0.848  0.5101  1.6009  1.0695
 5869SOL     OW18200   1.705   2.702   2.159  0.1461 -0.4010 -0.3696
 5869SOL    HW118201   1.665   2.642   2.097  0.2160 -1.5385  0.6691
 5869SOL    HW218202   1.799   2.695   2.143  0.0600  1.0420 -1.6865
 5870SOL     OW18203   1.694   0.837   3.614 -0.2970  0.1334 -0.0110
 5870SOL    HW118204   1.718   0.926   3.589 -0.4182  0.3694  0.7159
 5870SOL    HW218205   1.603   0.827   3.584 -0.5900  0.5672  0.7201
 5871SOL     OW18206   4.631   4.412   5.585  0.1041  0.1423 -0.3660
 5871SOL    HW118207   4.659   4.340   5.529 -0.2772 -0.2261 -0.0799
 5871SOL    HW218208   4.687   4.405   5.663 -0.7423 -0.5735  0.1904
 5872SOL     OW18209   4.942   3.022   3.163  0.2876 -0.4914 -0.2942
 5872SOL    HW118210   4.897   2.984   3.087  1.2739 -1.6844 -0.2997
 5872SOL    HW218211   5.029   2.983   3.160 -0.0839 -1.6182  2.2336
 5873SOL     OW18212   4.868   0.085   1.182  0.1408 -0.1094 -0.1314
 5873SOL    HW118213   4.818   0.004   1.180 -0.9098  0.5096  0.4588
 5873SOL    HW218214   4.945   0.067   1.129  0.2682 -1.7156  0.5884
 5874SOL     OW18215   3.052   6.652   2.949 -0.0417  0.4139 -0.2459
 5874SOL    HW118216   3.043   6.746   2.965 -0.3062  0.5846 -1.3646
 5874SOL    HW218217   3.008   6.611   3.023  1.3647  1.1468  1.0483
 5875SOL     OW18218   1.932   5.722   7.141 -0.0833 -0.0701 -0.2194
 5875SOL    HW118219   2.000   5.655   7.146  0.2471  0.3569  1.2223
 5875SOL    HW218220   1.938   5.756   7.052  1.7119  0.0932 -0.0448
 5876SOL     OW18221   3.494   0.476   5.937  0.1891 -0.5801  0.1726
 5876SOL    HW118222   3.495   0.569   5.956 -1.3994 -0.3957 -0.5109
 5876SOL    HW218223   3.484   0.433   6.022  1.0725 -0.1477  0.4982
 5877SOL     OW18224   6.114   4.994   0.593  0.0121 -0.5517 -0.7220
 5877SOL    HW118225   6.188   4.944   0.559  0.3089 -2.6822  2.9089
 5877SOL    HW218226   6.039   4.936   0.582 -0.7517  0.6662 -2.1562
 5878SOL     OW18227   6.807   6.519   5.875 -0.2893 -0.1137  0.0704
 5878SOL    HW118228   6.737   6.484   5.820  0.4898  0.9347 -1.6389
 5878SOL    HW218229   6.878   6.540   5.814 -0.4866  3.8763  1.0450
 5879SOL     OW18230   1.401   5.251   4.040 -0.2395  0.0340 -0.0857
 5879SOL    HW118231   1.327   5.241   4.101 -1.8980 -1.6966 -2.2881
 5879SOL    HW218232   1.374   5.322   3.981  1.2655  1.5647  1.0360
 5880SOL     OW18233   4.507   1.180   4.285  0.2233 -0.4365 -0.0659
 5880SOL    HW118234   4.459   1.097   4.282 -1.1980  0.4078 -2.5668
 5880SOL    HW218235   4.564   1.178   4.208  0.5674  0.6630  0.1443
 5881SOL     OW18236   0.196   0.663   4.352 -0.8515  0.3456  0.5877
 5881SOL    HW118237   0.249   0.705   4.284 -0.6500  0.3304  0.7372
 5881SOL    HW218238   0.227   0.702   4.434 -1.4450  0.7434  0.6248
 5882SOL     OW18239   4.883   2.916   2.920  0.4552 -0.4506 -0.1020
 5882SOL    HW118240   4.960   2.933   2.866  1.0654  0.2889  0.9771
 5882SOL    HW218241   4.820   2.982   2.893  1.1395  0.5915  0.8143
 5883SOL     OW18242   1.390   2.295   4.737  0.5927 -0.3453  0.3535
 5883SOL    HW118243   1.330   2.359   4.775  0.2412 -0.7732  0.5257
 5883SOL    HW218244   1.349   2.270   4.654  2.1604  1.7997 -1.1385
 5884SOL     OW18245   6.939   6.930   5.498  0.4500  0.3936  0.0900
 5884SOL    HW118246   6.959   7.023   5.510  1.1975  0.2951 -0.3712
 5884SOL    HW218247   7.002   6.900   5.433  1.2495 -0.7945  1.3814
 5885SOL     OW18248   5.856   7.070   3.463  0.4263  0.0217  0.0039
 5885SOL    HW118249   5.826   6.984   3.433 -0.8439 -0.1496  1.6854
 5885SOL    HW218250   5.945   7.077   3.430  0.6356 -2.0620  0.0452
 5886SOL     OW18251   2.047   5.664   3.889 -0.2928 -0.1117  0.1586
 5886SOL    HW118252   2.036   5.658   3.794  1.5988 -0.3483 -0.0563
 5886SOL    HW218253   2.016   5.580   3.922 -0.2822 -0.2986 -0.3061
 5887SOL     OW18254   4.602   6.569   6.174  0.1617 -0.2472 -0.4524
 5887SOL    HW118255   4.547   6.569   6.096  0.1583 -1.8538 -0.4693
 5887SOL    HW218256   4.637   6.480   6.179 -1.6120 -0.8584  2.6004
 5888SOL     OW18257   3.266   6.815   0.375  0.0161  0.4972 -0.0855
 5888SOL    HW118258   3.343   6.862   0.342  0.3115 -0.2251 -0.4400
 5888SOL    HW218259   3.217   6.791   0.297  0.0842 -0.1462  0.0635
 5889SOL     OW18260   6.469   4.280   3.421  0.0332  0.3117 -0.4258
 5889SOL    HW118261   6.447   4.309   3.333 -2.0147  2.0605  0.6086
 5889SOL    HW218262   6.535   4.343   3.451 -0.5291  0.7601 -0.1097
 5890SOL     OW18263   2.541   3.517   4.950  0.3486 -0.5509  0.3923
 5890SOL    HW118264   2.507   3.437   4.911 -0.1916  0.2607 -0.8269
 5890SOL    HW218265   2.498   3.522   5.036 -1.5532 -0.2792 -0.5445
 5891SOL     OW18266   1.990   1.642   5.283  0.0494 -0.0617 -0.3044
 5891SOL    HW118267   1.981   1.680   5.370 -0.4175  0.4086 -0.5488
 5891SOL    HW218268   1.932   1.695   5.228  1.3122  0.4689 -1.1593
 5892SOL     OW18269   3.341   5.502   4.179  0.4940 -0.3660 -0.5386
 5892SOL    HW118270   3.399   5.506   4.255  0.2181  1.4982 -0.4086
 5892SOL    HW218271   3.395   5.462   4.110  1.1133 -0.9943  0.2983
 5893SOL     OW18272   2.853   1.657   0.313  0.2333  0.0896  0.3202
 5893SOL    HW118273   2.794   1.694   0.379 -1.3509 -1.4260 -0.2022
 5893SOL    HW218274   2.825   1.696   0.230  1.3648  0.9788  0.3366
 5894SOL     OW18275   3.725   1.914   1.366 -0.1601 -0.0646  0.1155
 5894SOL    HW118276   3.718   1.875   1.279 -0.5118 -0.4320  0.3079
 5894SOL    HW218277   3.818   1.935   1.375 -0.1156 -0.0669 -0.3323
 5895SOL     OW18278   6.691   3.657   6.994  0.0403  0.5630 -0.3530
 5895SOL    HW118279   6.684   3.728   7.058  0.7497 -1.5424  2.1176
 5895SOL    HW218280   6.785   3.648   6.978 -0.0556  0.2576 -0.7712
 5896SOL     OW18281   3.382   6.691   6.931 -0.0728  0.3011 -0.0352
 5896SOL    HW118282   3.330   6.761   6.892 -1.1192  0.5812  1.8359
 5896SOL    HW218283   3.345   6.678   7.018 -0.5133 -3.2275 -0.6735
 5897SOL     OW18284   5.494   0.654   2.814  0.1643 -0.4001  0.7078
 5897SOL    HW118285   5.572   0.662   2.758  0.1302  0.1597  0.7423
 5897SOL    HW218286   5.465   0.564   2.800  0.8366 -0.6232  0.7142
 5898SOL     OW18287   2.755   6.619   5.264  0.5341 -0.0347  0.0208
 5898SOL    HW118288   2.808   6.550   5.303  0.6860  1.2777  2.1686
 5898SOL    HW218289   2.802   6.700   5.282  0.7790  0.6153 -3.1929
 5899SOL     OW18290   1.659   0.460   3.627  0.4817 -0.3405  0.4957
 5899SOL    HW118291   1.709   0.534   3.592  1.9294 -0.8883  1.3720
 5899SOL    HW218292   1.568   0.489   3.623  0.6380 -0.1639 -3.1330
 5900SOL     OW18293   6.491   5.884   3.948  0.0169 -0.0329 -0.2691
 5900SOL    HW118294   6.555   5.814   3.934 -0.7787 -0.4429 -2.0216
 5900SOL    HW218295   6.445   5.860   4.028  0.5817 -0.8751 -0.1945
 5901SOL     OW18296   2.134   1.534   3.434 -0.1087  0.1418  0.3901
 5901SOL    HW118297   2.146   1.610   3.491  1.1249 -0.5316  1.0583
 5901SOL    HW218298   2.203   1.473   3.461 -1.6878 -1.6200  0.5075
 5902SOL     OW18299   4.968   4.397   5.536 -0.0378  0.0783 -0.5772
 5902SOL    HW118300   4.976   4.450   5.457  2.8336  1.1656  0.3891
 5902SOL    HW218301   4.928   4.455   5.601  0.7791  0.2699 -0.2425
 5903SOL     OW18302   3.522   2.574   2.210 -0.5757  0.4057 -0.6948
 5903SOL    HW118303   3.484   2.493   2.243 -1.6949  0.2339 -2.3832
 5903SOL    HW218304   3.451   2.616   2.161  0.5201  1.5424 -1.3377
 5904SOL     OW18305   1.387   0.411   6.861  0.3948  0.0832 -0.2806
 5904SOL    HW118306   1.473   0.370   6.869  0.2275  0.2308  2.9570
 5904SOL    HW218307   1.329   0.356   6.914 -1.1040  1.0974 -0.8211
 5905SOL     OW18308   2.376   6.243   0.928  0.9059 -0.3438 -0.2235
 5905SOL    HW118309   2.397   6.336   0.939 -1.0600 -0.1692  2.5163
 5905SOL    HW218310   2.441   6.198   0.982 -0.5970 -0.2754  1.7039
 5906SOL     OW18311   1.064   1.316   6.412 -0.1462  0.3797 -0.1512
 5906SOL    HW118312   1.114   1.290   6.490  0.7374 -1.8884 -1.4440
 5906SOL    HW218313   1.130   1.355   6.354 -0.2686 -0.5445 -0.9200
 5907SOL     OW18314   7.082   4.800   5.660  0.6120  1.3638 -0.0740
 5907SOL    HW118315   7.035   4.783   5.579 -0.5706 -0.2818  0.9217
 5907SOL    HW218316   7.159   4.744   5.655 -1.3386 -1.6220  1.5092
 5908SOL     OW18317   3.118   2.000   0.423 -0.4836  0.4371 -0.5831
 5908SOL    HW118318   3.179   2.067   0.454 -0.9217  0.6680 -0.1926
 5908SOL    HW218319   3.072   2.042   0.350 -0.5523  0.4593 -0.5275
 5909SOL     OW18320   1.422   6.025   4.252 -0.2922  0.1539 -0.4437
 5909SOL    HW118321   1.395   6.017   4.343  1.3413  2.0498  0.2329
 5909SOL    HW218322   1.510   6.062   4.255  0.7941 -2.0977 -2.7352
 5910SOL     OW18323   5.394   1.300   3.525  0.0066 -0.3839  0.3137
 5910SOL    HW118324   5.302   1.322   3.538 -0.0661 -1.6510  2.1499
 5910SOL    HW218325   5.409   1.224   3.581  2.1100 -0.3570 -0.1589
 5911SOL     OW18326   5.781   4.640   0.805  0.2599 -0.3424 -0.4214
 5911SOL    HW118327   5.766   4.547   0.820 -0.0800  0.1989  2.9484
 5911SOL    HW218328   5.872   4.646   0.778  0.2309 -1.6525 -0.8245
 5912SOL     OW18329   3.508   5.503   4.391  0.6118 -0.1970 -0.2130
 5912SOL    HW118330   3.466   5.447   4.456 -1.0848  0.5912 -0.5858
 5912SOL    HW218331   3.596   5.467   4.381  0.7146 -0.6599  2.1003
 5913SOL     OW18332   5.119   6.481   2.397 -0.0751 -0.0652 -0.5500
 5913SOL    HW118333   5.082   6.566   2.422  1.4574  0.2505  0.7132
 5913SOL    HW218334   5.074   6.418   2.453  0.2973  0.1699  0.0246
 5914SOL     OW18335   6.459   6.365   5.513 -0.2722  0.0026  0.7445
 5914SOL    HW118336   6.498   6.283   5.482  1.4125  1.1503 -0.2244
 5914SOL    HW218337   6.384   6.380   5.456  0.3806 -0.0309 -0.1260
 5915SOL     OW18338   4.328   0.469   1.117  0.3659  0.3646  0.6071
 5915SOL    HW118339   4.325   0.437   1.027 -1.1534 -1.1920  1.1801
 5915SOL    HW218340   4.356   0.394   1.169 -0.2833  0.8032  1.6218
 5916SOL     OW18341   3.434   6.493   4.647 -0.3145  0.3562 -0.2256
 5916SOL    HW118342   3.472   6.405   4.646 -0.2705  0.3727  0.0632
 5916SOL    HW218343   3.344   6.480   4.675 -0.0475  0.5061  0.7141
 5917SOL     OW18344   2.854   1.682   6.994  0.6868  0.2939  0.2019
 5917SOL    HW118345   2.949   1.685   6.985  0.7178  0.3207  0.5477
 5917SOL    HW218346   2.825   1.627   6.921  0.7733  2.1339 -1.2320
 5918SOL     OW18347   2.882   5.353   2.101  0.2116 -0.4202 -0.0443
 5918SOL    HW118348   2.852   5.373   2.190  0.4528 -2.1605  0.4488
 5918SOL    HW218349   2.807   5.310   2.060  0.4575 -0.5859 -0.3223
 5919SOL     OW18350   7.030   5.432   2.253  0.2511  0.0801 -0.1118
 5919SOL    HW118351   7.083   5.501   2.214  1.6057 -1.8855 -1.9304
 5919SOL    HW218352   6.943   5.444   2.216 -0.0760  2.0941  1.2808
 5920SOL     OW18353   2.400   3.493   3.308  0.0500 -0.2489  0.3045
 5920SOL    HW118354   2.315   3.463   3.341  0.4487 -1.1486  0.5448
 5920SOL    HW218355   2.401   3.466   3.217  0.8026 -1.8890  0.7691
 5921SOL     OW18356   2.419   6.643   0.292  0.5391 -0.4093  0.1033
 5921SOL    HW118357   2.510   6.650   0.323  0.7189 -1.8218 -0.0625
 5921SOL    HW218358   2.379   6.726   0.318  2.1952  0.7386 -0.9109
 5922SOL     OW18359   1.484   5.971   1.422  0.3435 -0.2793  0.3397
 5922SOL    HW118360   1.429   5.911   1.471 -0.2152 -0.8704 -0.9740
 5922SOL    HW218361   1.540   5.914   1.369  0.6853  0.3427  0.0274
 5923SOL     OW18362   2.090   3.731   6.112 -0.0659 -0.6551 -0.0735
 5923SOL    HW118363   2.103   3.690   6.198 -1.2457 -0.4490  0.2148
 5923SOL    HW218364   2.078   3.658   6.052  1.0610 -0.8081 -0.1094
 5924SOL     OW18365   5.636   1.093   1.994  0.3957 -0.6403 -0.1969
 5924SOL    HW118366   5.550   1.121   1.963  0.1198 -1.8912 -0.5638
 5924SOL    HW218367   5.623   1.071   2.086  1.0092  2.1419  0.6105
 5925SOL     OW18368   4.976   3.377   2.676 -0.2023  0.2628 -0.4072
 5925SOL    HW118369   5.071   3.372   2.691 -0.1666  0.4683 -0.5695
 5925SOL    HW218370   4.940   3.308   2.732  0.0020  0.5100  0.0393
 5926SOL     OW18371   6.885   1.441   4.268  0.0565 -0.0250  0.1995
 5926SOL    HW118372   6.899   1.367   4.209  1.2888  0.3834 -0.0399
 5926SOL    HW218373   6.826   1.499   4.219 -0.7451 -0.7462  0.3047
 5927SOL     OW18374   6.925   1.117   0.590  0.4624  0.0927  0.5150
 5927SOL    HW118375   6.848   1.069   0.619 -0.1456 -0.2358 -1.5355
 5927SOL    HW218376   6.999   1.068   0.624 -0.2068 -0.8773  0.5812
 5928SOL     OW18377   4.441   6.421   4.828  0.0100 -0.4356 -0.2884
 5928SOL    HW118378   4.533   6.426   4.855 -0.2999 -1.1954  0.9310
 5928SOL    HW218379   4.438   6.347   4.767  0.3607  0.1154 -0.9803
 5929SOL     OW18380   3.905   0.456   3.562  0.4187  0.4749  0.5882
 5929SOL    HW118381   3.850   0.533   3.578 -0.0167  0.2672  0.1136
 5929SOL    HW218382   3.967   0.484   3.495 -0.3998  0.1179 -0.3447
 5930SOL     OW18383   3.728   7.209   3.705 -0.1773 -0.2001 -0.5615
 5930SOL    HW118384   3.765   7.289   3.668 -1.7975  0.7276 -0.1916
 5930SOL    HW218385   3.724   7.225   3.799  0.2965 -1.0636 -0.3823
 5931SOL     OW18386   6.081   4.361   1.556  0.1043  0.2842  0.5254
 5931SOL    HW118387   6.133   4.370   1.477 -0.2539 -0.9151  0.1494
 5931SOL    HW218388   6.077   4.450   1.592  2.5469  0.3868  0.6666
 5932SOL     OW18389   2.466   2.349   2.722  0.3351 -0.4759 -0.3630
 5932SOL    HW118390   2.500   2.384   2.804 -0.0634 -1.5611  0.2774
 5932SOL    HW218391   2.543   2.315   2.677  0.3551 -1.3135  0.2831
 5933SOL     OW18392   1.719   2.690   4.206  0.2415  0.0745 -0.5097
 5933SOL    HW118393   1.679   2.606   4.229  0.4676  0.1710  0.2573
 5933SOL    HW218394   1.770   2.714   4.283  2.1403 -0.2542 -1.6278
 5934SOL     OW18395   5.289   2.106   2.772  0.6123  0.3317  0.6547
 5934SOL    HW118396   5.259   2.018   2.747 -2.4959  1.3551  0.5617
 5934SOL    HW218397   5.250   2.120   2.859  0.6901  1.7944  0.4566
 5935SOL     OW18398   5.224   5.108   0.695  0.7543  0.1664  0.4362
 5935SOL    HW118399   5.259   5.019   0.699 -0.1622 -0.1754  1.0423
 5935SOL    HW218400   5.274   5.150   0.625  1.4870 -0.6932  0.4313
 5936SOL     OW18401   7.135   4.008   4.039  0.5958 -0.0136  0.0236
 5936SOL    HW118402   7.185   3.949   3.982 -1.6735 -0.9605 -1.0325
 5936SOL    HW218403   7.187   4.088   4.041  1.3525 -0.4097 -2.3696
 5937SOL     OW18404   0.466   0.198   1.682  0.6052  0.1164  0.4363
 5937SOL    HW118405   0.494   0.132   1.619 -0.6079  0.3052 -0.3228
 5937SOL    HW218406   0.542   0.212   1.738  1.3443 -0.8469 -0.3123
 5938SOL     OW18407   6.686   3.817   0.759  0.2873  0.2793 -0.3091
 5938SOL    HW118408   6.714   3.876   0.829 -1.8738 -0.1226  0.9381
 5938SOL    HW218409   6.638   3.748   0.804  0.7519 -1.1674 -1.9987
 5939SOL     OW18410   5.577   1.230   3.963  0.0513 -0.3378 -0.4350
 5939SOL    HW118411   5.487   1.254   3.942 -0.5002 -0.2534  1.8487
 5939SOL    HW218412   5.584   1.137   3.940 -0.9287 -0.6064  0.3387
 5940SOL     OW18413   7.090   4.693   5.185 -0.5074 -0.2918 -0.2616
 5940SOL    HW118414   7.147   4.624   5.152  1.1829  1.6510 -1.5758
 5940SOL    HW218415   7.038   4.719   5.108 -2.0864 -1.0029  0.5527
 5941SOL     OW18416   2.647   1.570   2.109 -0.0006 -0.0029  0.2836
 5941SOL    HW118417   2.696   1.513   2.049 -0.3313  1.4181 -1.3851
 5941SOL    HW218418   2.624   1.646   2.055  2.3580  2.7735  3.0141
 5942SOL     OW18419   1.559   3.686   5.357 -0.1576 -0.3702  0.5155
 5942SOL    HW118420   1.644   3.704   5.317 -1.2773  1.1086 -1.2638
 5942SOL    HW218421   1.566   3.724   5.445  1.0473 -0.3535  0.4175
 5943SOL     OW18422   4.767   2.560   2.766 -0.1289  0.6594 -0.3689
 5943SOL    HW118423   4.798   2.578   2.855  0.4830  0.2607 -0.4963
 5943SOL    HW218424   4.709   2.634   2.745 -0.8254  0.4012  0.6180
 5944SOL     OW18425   5.026   2.346   0.339 -0.4461  0.5353 -0.6052
 5944SOL    HW118426   4.950   2.355   0.396  0.0495  0.6056  0.0387
 5944SOL    HW218427   5.021   2.421   0.280 -2.3178 -0.8136 -2.2787
 5945SOL     OW18428   2.497   0.611   3.135 -0.1732 -0.2612  0.4901
 5945SOL    HW118429   2.588   0.622   3.106 -0.3912  2.6800  0.6938
 5945SOL    HW218430   2.445   0.619   3.055 -0.4340  2.1033  0.8422
 5946SOL     OW18431   6.519   0.170   0.275  0.0080  0.0260  0.0412
 5946SOL    HW118432   6.447   0.154   0.336 -0.1935 -1.3874 -0.5567
 5946SOL    HW218433   6.595   0.128   0.316  0.4153  1.1803  0.4838
 5947SOL     OW18434   0.943   3.695   3.068 -0.8972 -0.0984  0.0881
 5947SOL    HW118435   0.894   3.769   3.103  0.4899  0.9619 -0.1799
 5947SOL    HW218436   1.015   3.734   3.019  0.7321 -1.6181  1.1919
 5948SOL     OW18437   1.911   2.593   7.013  0.3218 -0.1097  0.1215
 5948SOL    HW118438   1.949   2.537   7.081  1.5906 -0.2554 -0.7006
 5948SOL    HW218439   1.837   2.542   6.980  1.5527 -1.3933 -0.7252
 5949SOL     OW18440   0.406   1.418   0.149 -0.0833  0.7469  0.9485
 5949SOL    HW118441   0.316   1.406   0.179 -0.2955  0.9493  0.3990
 5949SOL    HW218442   0.405   1.499   0.099  0.4217  0.7931  1.0043
 5950SOL     OW18443   1.432   2.635   6.180  0.0320 -0.5654 -0.7246
 5950SOL    HW118444   1.352   2.677   6.149 -0.1999  1.1475  2.0659
 5950SOL    HW218445   1.503   2.691   6.149 -0.0194 -0.4940 -0.7124
 5951SOL     OW18446   6.911   4.731   3.214  0.4225 -0.3946  0.2017
 5951SOL    HW118447   6.956   4.647   3.203 -1.6599 -1.3739 -1.4217
 5951SOL    HW218448   6.980   4.794   3.230  2.1344 -2.2480  0.3491
 5952SOL     OW18449   7.243   5.073   4.429  0.8645 -0.4020  0.0292
 5952SOL    HW118450   7.193   4.992   4.417  0.9084 -0.3283 -0.6536
 5952SOL    HW218451   7.255   5.108   4.341  0.2737  0.7013  0.3772
 5953SOL     OW18452   6.087   2.320   5.385  0.4999  0.1602 -0.3013
 5953SOL    HW118453   6.012   2.265   5.364 -0.8053  2.3478 -1.5515
 5953SOL    HW218454   6.147   2.262   5.432 -1.2652 -2.0334 -0.6764
 5954SOL     OW18455   3.106   0.930   4.217  0.1480  0.2780 -0.0635
 5954SOL    HW118456   3.170   0.895   4.279  0.2746 -1.3928 -1.0950
 5954SOL    HW218457   3.033   0.867   4.221  0.7076 -0.5715 -2.5261
 5955SOL     OW18458   0.242   3.179   7.165 -0.1418  0.3572 -0.0708
 5955SOL    HW118459   0.209   3.090   7.173  2.6863 -0.6310  1.6856
 5955SOL    HW218460   0.179   3.233   7.213 -0.2380 -1.1649  1.5751
 5956SOL     OW18461   0.690   1.547   3.014  0.6259 -0.8224  0.1679
 5956SOL    HW118462   0.665   1.504   3.095 -1.3987  0.0453  0.0337
 5956SOL    HW218463   0.702   1.639   3.038 -2.1882 -0.1333 -0.9016
 5957SOL     OW18464   1.436   2.698   4.579  0.2744 -0.0121 -0.4666
 5957SOL    HW118465   1.492   2.638   4.628 -0.9621 -0.8306 -0.0349
 5957SOL    HW218466   1.446   2.782   4.623  0.4246 -0.3755  0.1934
 5958SOL     OW18467   5.143   1.184   0.012  0.0060 -0.2693  0.5027
 5958SOL    HW118468   5.133   1.220  -0.077 -1.1863 -1.9794 -0.0746
 5958SOL    HW218469   5.107   1.252   0.069 -0.8217  0.1089 -0.4554
 5959SOL     OW18470   0.798   6.733   1.363 -0.0692  0.5642  0.0047
 5959SOL    HW118471   0.885   6.693   1.359 -0.1771  0.4007 -0.7963
 5959SOL    HW218472   0.810   6.821   1.327 -0.1370  0.7162  0.3518
 5960SOL     OW18473   0.363   2.150   6.687 -0.0496 -0.4333  0.1847
 5960SOL    HW118474   0.288   2.209   6.684 -0.5033 -0.9578  1.1029
 5960SOL    HW218475   0.363   2.115   6.776  0.4882 -1.4687 -0.2102
 5961SOL     OW18476   2.287   6.124   4.734  0.1169  0.0478  0.7120
 5961SOL    HW118477   2.281   6.046   4.790  0.3960  0.4367  1.2869
 5961SOL    HW218478   2.233   6.103   4.658 -2.6649  0.6476  2.4361
 5962SOL     OW18479   5.143   4.119   5.604 -0.0973  0.3447 -0.1237
 5962SOL    HW118480   5.230   4.145   5.572  0.1704  0.0777  0.3812
 5962SOL    HW218481   5.094   4.201   5.610  0.9830  0.8620  2.1810
 5963SOL     OW18482   4.866   2.763   1.633 -0.4856  0.7817 -0.3770
 5963SOL    HW118483   4.792   2.774   1.573 -0.6151  2.3261  0.0389
 5963SOL    HW218484   4.939   2.738   1.578 -1.0035  0.5670 -0.9657
 5964SOL     OW18485   5.594   4.235   3.020 -0.0007 -0.2464 -0.1261
 5964SOL    HW118486   5.631   4.296   2.957 -0.9685 -0.5331 -0.9791
 5964SOL    HW218487   5.585   4.287   3.100 -0.9325  0.7815 -0.8754
 5965SOL     OW18488   5.228   2.625   4.879  0.0140 -0.9991  0.1155
 5965SOL    HW118489   5.137   2.646   4.897  0.2145 -1.9463  2.4280
 5965SOL    HW218490   5.278   2.698   4.916  0.2628 -1.1417  0.0672
 5966SOL     OW18491   1.818   5.460   6.947  0.3997  0.1653  0.2385
 5966SOL    HW118492   1.794   5.417   7.030 -1.3509  2.4124  0.9674
 5966SOL    HW218493   1.779   5.405   6.879  1.2554 -1.3303  0.9421
 5967SOL     OW18494   5.564   1.592   5.918  0.1114 -0.5452 -0.3257
 5967SOL    HW118495   5.498   1.531   5.885 -1.2171 -0.5103  2.1194
 5967SOL    HW218496   5.619   1.539   5.976 -0.4675  0.3495  1.0598
 5968SOL     OW18497   5.768   4.829   5.333 -0.0645 -0.0077 -0.0740
 5968SOL    HW118498   5.718   4.840   5.414  0.4638  0.1145  0.2353
 5968SOL    HW218499   5.736   4.898   5.275  0.5307  0.7674  0.5114
 5969SOL     OW18500   3.824   5.507   0.698 -0.1247 -0.1435 -0.1482
 5969SOL    HW118501   3.792   5.418   0.686 -1.1466  0.2635 -0.4921
 5969SOL    HW218502   3.833   5.516   0.793  0.4526 -0.7761 -0.1450
 5970SOL     OW18503   0.115   1.401   2.800 -0.7490 -0.0447 -0.1536
 5970SOL    HW118504   0.143   1.459   2.729 -0.9240  0.8324  0.4761
 5970SOL    HW218505   0.117   1.313   2.763  1.1248  0.1919 -0.6422
 5971SOL     OW18506   0.411   3.405   2.676  0.9564  0.2095 -0.2557
 5971SOL    HW118507   0.334   3.445   2.716  0.2602 -1.0529 -0.3024
 5971SOL    HW218508   0.484   3.462   2.700  0.0565  1.2336  0.0659
 5972SOL     OW18509   3.378   2.142   1.744  0.6693  0.1374 -0.0364
 5972SOL    HW118510   3.313   2.074   1.762  0.3175  0.2914 -0.7360
 5972SOL    HW218511   3.462   2.096   1.752  0.5768  0.3353  2.6622
 5973SOL     OW18512   1.727   6.312   2.762 -0.9605  0.0790 -0.0856
 5973SOL    HW118513   1.777   6.248   2.712  1.5696  2.5584 -0.8379
 5973SOL    HW218514   1.711   6.269   2.847  0.2509 -1.7081 -0.7360
 5974SOL     OW18515   1.956   1.075   0.692 -0.0564  0.5043  0.1785
 5974SOL    HW118516   2.040   1.070   0.738  0.4285  0.6908 -0.6691
 5974SOL    HW218517   1.968   1.019   0.615 -1.7931 -2.0144  1.6833
 5975SOL     OW18518   5.445   6.385   0.734  0.0841  0.0092 -0.1220
 5975SOL    HW118519   5.383   6.424   0.796 -0.3464 -0.7475 -0.0714
 5975SOL    HW218520   5.436   6.291   0.747 -0.1477 -0.1595 -1.4731
 5976SOL     OW18521   7.213   4.229   2.821  0.0339  0.3589 -0.4672
 5976SOL    HW118522   7.168   4.284   2.756 -0.5400  0.9063  0.3794
 5976SOL    HW218523   7.283   4.284   2.855  0.1639  0.1723 -0.4370
 5977SOL     OW18524   0.773   7.230   1.771 -0.0147 -0.5261 -0.5832
 5977SOL    HW118525   0.707   7.274   1.825  1.4028  0.4127  0.4149
 5977SOL    HW218526   0.840   7.201   1.833  0.7725 -1.0134 -1.6445
 5978SOL     OW18527   0.946   4.732   4.231 -0.0862  0.0966  0.2466
 5978SOL    HW118528   0.984   4.645   4.218 -1.4408 -0.3558 -0.7679
 5978SOL    HW218529   1.006   4.791   4.185  0.8181 -0.2891  0.9050
 5979SOL     OW18530   0.231   4.622   3.987 -0.1978  0.1980 -0.1063
 5979SOL    HW118531   0.148   4.576   3.994 -0.3028  0.4602  0.4005
 5979SOL    HW218532   0.215   4.692   3.924  0.7213 -2.1115 -3.0040
 5980SOL     OW18533   4.710   7.155   2.803  0.1450 -0.0993  0.0146
 5980SOL    HW118534   4.798   7.123   2.783  0.2901  0.3837 -0.1473
 5980SOL    HW218535   4.693   7.124   2.892  1.3624  1.6350  0.8893
 5981SOL     OW18536   2.925   2.557   5.615 -0.1175  0.1593  0.3313
 5981SOL    HW118537   2.918   2.649   5.640  0.9162 -0.3159  2.4659
 5981SOL    HW218538   2.923   2.558   5.519 -0.2391  2.3808  0.3354
 5982SOL     OW18539   2.937   3.890   4.357 -0.7847 -0.0885  0.4997
 5982SOL    HW118540   2.964   3.835   4.283  0.0080  1.3969 -0.3441
 5982SOL    HW218541   2.871   3.949   4.320 -1.9046 -0.6909  1.4833
 5983SOL     OW18542   1.651   7.168   1.418  0.4918  0.7124  0.3810
 5983SOL    HW118543   1.569   7.218   1.415 -0.1653 -0.3901 -0.5478
 5983SOL    HW218544   1.686   7.174   1.330  0.6410 -0.0794  0.3829
 5984SOL     OW18545   7.157   5.880   6.350  0.5919 -0.5359 -0.3199
 5984SOL    HW118546   7.080   5.916   6.308 -0.8420  0.2462  2.8243
 5984SOL    HW218547   7.136   5.788   6.366  0.2159 -0.2658  0.7461
 5985SOL     OW18548   0.018   4.254   5.144 -0.0414  0.0129 -0.3441
 5985SOL    HW118549  -0.017   4.320   5.085  2.2160  0.3524 -1.3275
 5985SOL    HW218550   0.046   4.302   5.222 -0.2733 -0.0585 -0.2149
 5986SOL     OW18551   0.311   3.729   2.619 -0.0670 -0.0130 -0.0977
 5986SOL    HW118552   0.253   3.766   2.554 -0.3363 -0.3231 -0.0355
 5986SOL    HW218553   0.390   3.704   2.571  1.0283  2.6687  0.2137
 5987SOL     OW18554   2.172   0.847   6.080 -0.2033  0.2519  0.2207
 5987SOL    HW118555   2.142   0.884   6.163  0.6096  0.1457  0.5682
 5987SOL    HW218556   2.262   0.819   6.098  0.2559  0.9739 -0.9188
 5988SOL     OW18557   0.440   4.281   2.671  0.2464  0.5356 -0.1610
 5988SOL    HW118558   0.350   4.268   2.641  0.5799 -2.6160  0.0792
 5988SOL    HW218559   0.495   4.252   2.598  1.0536  0.2482  0.5487
 5989SOL     OW18560   0.220   4.795   1.712  0.0928  0.6347  0.3430
 5989SOL    HW118561   0.298   4.809   1.767 -0.0566  1.3195  0.3949
 5989SOL    HW218562   0.254   4.756   1.631  0.3787  0.1119  0.7157
 5990SOL     OW18563   5.520   0.945   6.762  0.3801  0.3393  0.0243
 5990SOL    HW118564   5.512   1.032   6.723  2.1852  0.4865 -0.0636
 5990SOL    HW218565   5.573   0.896   6.699 -1.2688 -1.0686 -0.3037
 5991SOL     OW18566   1.867   0.474   3.006  0.0082 -0.3644 -0.2364
 5991SOL    HW118567   1.892   0.565   2.991 -1.7696 -0.3468 -3.6053
 5991SOL    HW218568   1.828   0.474   3.093  0.6573  1.9588  0.0775
 5992SOL     OW18569   4.143   0.374   1.574 -0.4687  0.2070 -0.7090
 5992SOL    HW118570   4.147   0.442   1.641 -1.0107  0.9963 -1.4614
 5992SOL    HW218571   4.199   0.304   1.607 -0.2791  0.8240  0.2975
 5993SOL     OW18572   6.517   0.132   4.639 -0.7916 -0.3089 -0.3453
 5993SOL    HW118573   6.506   0.054   4.585 -0.0965 -1.0998  0.6320
 5993SOL    HW218574   6.607   0.126   4.672 -1.2734  0.0458  1.0600
 5994SOL     OW18575   2.605   5.566   7.157  0.4487 -0.2569  0.3504
 5994SOL    HW118576   2.653   5.643   7.127  1.3164 -0.2967  1.5951
 5994SOL    HW218577   2.608   5.505   7.083 -2.9073  2.0225 -1.8261
 5995SOL     OW18578   4.111   4.212   5.453  0.0028  0.1791  0.7573
 5995SOL    HW118579   4.170   4.285   5.435 -0.0385 -0.3009 -1.4105
 5995SOL    HW218580   4.041   4.251   5.505  0.1517  1.6200 -0.0837
 5996SOL     OW18581   4.610   2.913   6.221 -0.1342  0.2050 -0.2598
 5996SOL    HW118582   4.582   2.836   6.173 -1.3104 -1.1338  2.4422
 5996SOL    HW218583   4.550   2.982   6.193  0.8417  0.1329 -2.5930
 5997SOL     OW18584   3.002   4.544   0.355 -0.6356  1.0474  0.1894
 5997SOL    HW118585   2.956   4.462   0.374  0.0531  0.5239 -0.3683
 5997SOL    HW218586   2.934   4.601   0.319 -0.7960  0.1542 -0.9696
 5998SOL     OW18587   3.431   5.585   1.123  0.2906  0.4156  0.1131
 5998SOL    HW118588   3.370   5.520   1.155  0.2359  0.9206  1.0592
 5998SOL    HW218589   3.439   5.568   1.029 -0.3807 -0.3963  0.2081
 5999SOL     OW18590   0.775   2.989   6.188 -0.5103 -0.1326  0.0740
 5999SOL    HW118591   0.805   3.000   6.098 -1.6179  0.2789 -0.2543
 5999SOL    HW218592   0.805   3.068   6.233  0.3400 -0.4945  0.1539
 6000SOL     OW18593   7.130   3.949   0.653 -0.7151 -0.6702 -0.0049
 6000SOL    HW118594   7.077   4.028   0.662 -0.8258 -0.7378 -0.0532
 6000SOL    HW218595   7.097   3.907   0.574  1.1936  0.6419 -1.5557
 6001SOL     OW18596   6.981   2.517   1.952  0.1093 -0.3336 -0.3824
 6001SOL    HW118597   7.026   2.461   2.015 -0.1262  0.1534  0.2225
 6001SOL    HW218598   6.931   2.578   2.006 -1.4886 -1.0378 -1.0432
 6002SOL     OW18599   0.682   0.806   4.645  0.0284  0.5808  0.2506
 6002SOL    HW118600   0.645   0.729   4.602 -0.7880  0.7880  0.5555
 6002SOL    HW218601   0.765   0.777   4.681 -0.2749 -0.1514  0.3600
 6003SOL     OW18602   3.898   5.463   2.873  0.1091 -0.0075  0.9777
 6003SOL    HW118603   3.970   5.404   2.851 -0.1185  0.0820 -0.0157
 6003SOL    HW218604   3.894   5.460   2.969  1.4579  0.0276  1.0439
 6004SOL     OW18605   6.331   3.558   0.420  0.5154 -0.9165  0.5725
 6004SOL    HW118606   6.303   3.468   0.402  0.8619 -1.2485  1.6526
 6004SOL    HW218607   6.427   3.553   0.423  0.5035 -0.6925  1.5090
 6005SOL     OW18608   7.175   0.147   4.597 -0.2705 -0.0170  0.0011
 6005SOL    HW118609   7.083   0.169   4.582  0.3812  1.6076 -1.8407
 6005SOL    HW218610   7.179   0.052   4.588 -1.3485  0.1261 -2.5329
 6006SOL     OW18611   4.576   0.235   2.105 -0.3196 -0.2260 -0.2422
 6006SOL    HW118612   4.584   0.162   2.044 -1.6829 -0.6009  0.0249
 6006SOL    HW218613   4.513   0.205   2.171  0.1620  0.6635  0.6447
 6007SOL     OW18614   0.189   6.065   0.454  0.0730 -0.4033 -0.0246
 6007SOL    HW118615   0.107   6.030   0.489  0.2311 -0.8038 -0.0544
 6007SOL    HW218616   0.240   6.087   0.532  0.1190 -0.5780 -0.0060
 6008SOL     OW18617   0.426   3.484   4.679  0.2457 -0.7613  0.5134
 6008SOL    HW118618   0.458   3.559   4.629  1.5112  0.3402  2.8945
 6008SOL    HW218619   0.331   3.486   4.667  0.4147  0.2288 -0.7710
 6009SOL     OW18620   4.655   6.330   4.312  0.7805  0.4584  0.0717
 6009SOL    HW118621   4.678   6.238   4.327 -1.1008  0.2099  1.6906
 6009SOL    HW218622   4.594   6.327   4.238 -0.5330  0.2128  1.1487
 6010SOL     OW18623   0.051   1.592   2.066 -0.6008 -0.0048  0.2048
 6010SOL    HW118624   0.105   1.542   2.128  1.0082  0.3212 -0.8908
 6010SOL    HW218625   0.095   1.580   1.982 -0.7658  2.4203 -0.2518
 6011SOL     OW18626   6.477   4.519   4.898 -0.1550 -0.2424 -0.1990
 6011SOL    HW118627   6.480   4.477   4.812 -2.1302 -0.4431 -0.1939
 6011SOL    HW218628   6.482   4.446   4.960  0.5334 -0.1477 -0.1333
 6012SOL     OW18629   6.489   3.219   6.955 -0.2166 -0.3636  0.8346
 6012SOL    HW118630   6.557   3.192   6.893  1.0533 -0.0022  2.0163
 6012SOL    HW218631   6.483   3.314   6.944 -0.4558 -0.3820  0.8019
 6013SOL     OW18632   6.216   0.078   3.287 -0.6582  0.3263  0.3698
 6013SOL    HW118633   6.259   0.044   3.209  2.6599  1.5189  1.5580
 6013SOL    HW218634   6.146   0.133   3.254  0.0352 -0.0084 -1.7378
 6014SOL     OW18635   2.864   3.631   3.480 -0.2745  0.0829 -0.5898
 6014SOL    HW118636   2.890   3.704   3.536  0.1881  0.1579 -0.8925
 6014SOL    HW218637   2.848   3.671   3.395 -1.1421 -0.0051 -0.4700
 6015SOL     OW18638   1.695   1.340   1.089 -0.0001  0.2455 -0.4126
 6015SOL    HW118639   1.731   1.259   1.052 -0.1107 -0.7397  1.5463
 6015SOL    HW218640   1.743   1.351   1.171 -2.9668 -0.2047  1.4514
 6016SOL     OW18641   4.085   0.477   6.137 -0.2030  0.1164 -0.2862
 6016SOL    HW118642   4.171   0.459   6.176 -0.1406  0.0799 -0.4404
 6016SOL    HW218643   4.044   0.391   6.128 -0.3767  0.1610  0.0640
 6017SOL     OW18644   0.302   3.166   5.694  0.3115 -0.0401 -0.7988
 6017SOL    HW118645   0.253   3.155   5.612  0.2619  1.1096 -0.9274
 6017SOL    HW218646   0.242   3.137   5.762 -0.2432  0.5660 -1.0313
 6018SOL     OW18647   1.757   0.108   2.105  0.1393  0.2674  0.1211
 6018SOL    HW118648   1.731   0.137   2.193  2.6410 -1.4934  1.5078
 6018SOL    HW218649   1.726   0.178   2.047 -2.2918  1.0798  2.2764
 6019SOL     OW18650   6.949   6.159   5.320 -0.1189  0.2957 -0.2821
 6019SOL    HW118651   6.920   6.250   5.314 -0.4805  0.0912 -1.8948
 6019SOL    HW218652   6.868   6.109   5.330  0.0893  0.1399  0.7462
 6020SOL     OW18653   5.774   0.918   3.678 -0.2203 -0.2812  0.8227
 6020SOL    HW118654   5.822   0.916   3.595 -0.3032  0.6222  0.7533
 6020SOL    HW218655   5.791   0.832   3.717  0.8349 -0.2469  0.4488
 6021SOL     OW18656   0.023   1.640   1.385 -0.1420 -0.4010  0.6848
 6021SOL    HW118657   0.094   1.650   1.449  0.1162  1.7617  0.1089
 6021SOL    HW218658  -0.046   1.698   1.416 -0.3226  0.0694 -0.5515
 6022SOL     OW18659   3.099   5.212   0.437  0.4256 -0.1844 -0.5214
 6022SOL    HW118660   3.083   5.140   0.377  1.5398 -2.0950  1.4319
 6022SOL    HW218661   3.161   5.268   0.392 -0.3443 -0.4990 -1.9903
 6023SOL     OW18662   1.000   2.407   4.638  0.6159  0.4177 -0.1850
 6023SOL    HW118663   1.040   2.387   4.553 -0.0374 -1.3767 -0.0815
 6023SOL    HW218664   0.919   2.454   4.615  0.5134  0.0624 -0.5560
 6024SOL     OW18665   6.385   5.526   4.574 -0.2813  0.1524  0.0862
 6024SOL    HW118666   6.388   5.577   4.655 -0.4405  1.3065 -0.6230
 6024SOL    HW218667   6.355   5.439   4.601 -1.4613  0.8692  1.1077
 6025SOL     OW18668   5.470   5.718   7.225 -0.0859  0.2989  0.2258
 6025SOL    HW118669   5.534   5.722   7.297 -1.1815 -3.2396  1.5254
 6025SOL    HW218670   5.523   5.710   7.146  1.0991 -0.5527  1.0942
 6026SOL     OW18671   6.098   7.051   3.359  0.3249  0.2078  0.2296
 6026SOL    HW118672   6.163   7.091   3.301 -0.5066  0.9693 -0.2122
 6026SOL    HW218673   6.097   6.959   3.335  0.4930  0.3896 -0.5019
 6027SOL     OW18674   0.170   1.493   3.069 -0.5711 -0.1820 -0.2725
 6027SOL    HW118675   0.242   1.554   3.056 -1.8515  1.5058  0.3996
 6027SOL    HW218676   0.150   1.461   2.981 -1.0060  1.6918 -0.8884
 6028SOL     OW18677   0.713   4.337   1.506  0.0454 -0.0229 -0.0138
 6028SOL    HW118678   0.650   4.373   1.444  0.0679 -2.4615 -1.5427
 6028SOL    HW218679   0.793   4.325   1.455  0.8492  0.2875  1.1450
 6029SOL     OW18680   4.004   4.635   2.886  0.0925  0.3143 -0.3779
 6029SOL    HW118681   3.935   4.683   2.841 -0.8482  0.5655  1.2696
 6029SOL    HW218682   3.965   4.609   2.969  1.7084 -0.3031  0.2192
 6030SOL     OW18683   5.065   0.213   2.164 -0.5661 -0.0859  0.2632
 6030SOL    HW118684   5.031   0.127   2.191 -0.6827 -0.0761  0.1481
 6030SOL    HW218685   5.107   0.197   2.080 -1.2221  0.1093 -0.1067
 6031SOL     OW18686   1.336   5.196   1.306  0.2063 -0.1317  1.0088
 6031SOL    HW118687   1.352   5.193   1.400 -0.5500  0.5554  1.1622
 6031SOL    HW218688   1.325   5.288   1.286 -2.5604 -0.4798  0.7498
 6032SOL     OW18689   6.329   0.833   6.813 -0.3502  0.1144  0.2610
 6032SOL    HW118690   6.311   0.854   6.905 -0.1174 -0.1092  0.3599
 6032SOL    HW218691   6.244   0.836   6.770 -0.3563  0.9840  0.3303
 6033SOL     OW18692   5.762   4.773   4.693 -0.6601  0.1914 -0.4259
 6033SOL    HW118693   5.835   4.717   4.667  0.2051  1.0850  0.0585
 6033SOL    HW218694   5.802   4.844   4.742 -1.7980  1.0370 -0.7027
 6034SOL     OW18695   2.910   2.813   5.688  0.7135 -0.0310  0.4379
 6034SOL    HW118696   2.969   2.864   5.743 -1.4706  1.5034  1.4675
 6034SOL    HW218697   2.836   2.872   5.671  0.1683 -1.3547 -2.0696
 6035SOL     OW18698   0.872   5.352   6.417  0.0082  0.5654 -0.0532
 6035SOL    HW118699   0.900   5.369   6.328 -1.5831 -1.2233 -0.9354
 6035SOL    HW218700   0.845   5.261   6.417  1.0281  0.2177  2.5522
 6036SOL     OW18701   6.920   4.801   5.870 -0.0928 -0.2285  0.2208
 6036SOL    HW118702   6.846   4.763   5.824  0.3165 -0.0757 -0.5670
 6036SOL    HW218703   6.991   4.804   5.805  0.9169 -1.3310  1.2418
 6037SOL     OW18704   3.383   6.512   3.062 -0.1320  0.0561 -0.4632
 6037SOL    HW118705   3.358   6.603   3.079 -0.4680 -0.1302  0.0427
 6037SOL    HW218706   3.321   6.482   2.996 -0.2399  0.0832 -0.3732
 6038SOL     OW18707   5.191   3.648   3.884 -0.2352  0.0010  0.7296
 6038SOL    HW118708   5.280   3.679   3.868 -0.6852  1.2422  0.5744
 6038SOL    HW218709   5.166   3.690   3.967 -1.6434  1.8318 -0.5792
 6039SOL     OW18710   0.362   4.704   5.735  0.3360  0.2427 -0.1034
 6039SOL    HW118711   0.367   4.624   5.682 -0.7311  0.2593 -0.2318
 6039SOL    HW218712   0.330   4.771   5.674  0.0818  0.4946  0.3052
 6040SOL     OW18713   1.371   2.568   2.249  0.4091 -0.1754  0.5931
 6040SOL    HW118714   1.395   2.658   2.272 -0.3847 -0.4065  2.4431
 6040SOL    HW218715   1.450   2.517   2.263  1.1869  0.3968 -1.5637
 6041SOL     OW18716   0.770   3.954   0.013  0.2848  0.5248  0.0548
 6041SOL    HW118717   0.832   3.924  -0.054 -1.8175 -0.8097 -1.3593
 6041SOL    HW218718   0.801   4.042   0.036  1.5472  0.6835 -2.0573
 6042SOL     OW18719   0.870   6.868   7.106 -0.1960  0.8544  0.0277
 6042SOL    HW118720   0.955   6.825   7.103 -0.0402  1.0290  1.7852
 6042SOL    HW218721   0.807   6.796   7.096  0.1026  0.4185  1.2715
 6043SOL     OW18722   3.098   2.926   5.853  0.9238  0.4655 -0.5424
 6043SOL    HW118723   3.188   2.896   5.839  1.4273  2.9786 -3.1833
 6043SOL    HW218724   3.108   3.002   5.910  0.3921  0.3502 -0.2989
 6044SOL     OW18725   2.902   0.914   3.843  0.3643 -0.1547  0.2010
 6044SOL    HW118726   2.808   0.927   3.858  0.2029 -1.2161  0.2052
 6044SOL    HW218727   2.943   0.996   3.870 -0.4930  0.0564  0.8814
 6045SOL     OW18728   0.343   6.878   1.258  0.0272 -0.2571  0.1405
 6045SOL    HW118729   0.385   6.869   1.173  0.1524 -0.7247  0.2506
 6045SOL    HW218730   0.249   6.873   1.239  0.0520 -0.2609  0.0182
 6046SOL     OW18731   3.194   0.160   5.764 -0.0193  0.0357 -0.3015
 6046SOL    HW118732   3.284   0.131   5.749 -0.1276  0.3359 -1.6195
 6046SOL    HW218733   3.172   0.210   5.685 -0.5978  1.8023  0.9303
 6047SOL     OW18734   2.224   4.321   0.468 -0.2148  0.1185  0.2272
 6047SOL    HW118735   2.129   4.321   0.476 -0.3427  0.6854 -1.1363
 6047SOL    HW218736   2.252   4.403   0.509 -0.1861 -0.7137  1.8949
 6048SOL     OW18737   4.913   6.616   0.042 -0.3877  0.6182 -0.2830
 6048SOL    HW118738   4.975   6.638  -0.027 -0.4355 -2.2900 -1.3209
 6048SOL    HW218739   4.967   6.600   0.119 -0.0179  0.3130 -0.6023
 6049SOL     OW18740   6.448   2.839   3.609  0.4023  0.4838 -0.3196
 6049SOL    HW118741   6.412   2.757   3.644 -0.6473  1.0110 -0.1244
 6049SOL    HW218742   6.437   2.831   3.514  0.6285  0.2499 -0.3259
 6050SOL     OW18743   0.587   4.501   7.168  0.3166  0.4558 -0.0078
 6050SOL    HW118744   0.663   4.471   7.119 -0.3844  0.7091 -1.2605
 6050SOL    HW218745   0.544   4.421   7.200 -0.5497  0.1718 -1.8228
 6051SOL     OW18746   2.259   2.557   2.361 -0.1079 -0.1985  0.5428
 6051SOL    HW118747   2.288   2.520   2.277 -0.9690  0.2562  0.0290
 6051SOL    HW218748   2.256   2.483   2.420  0.0318 -0.6165  0.0302
 6052SOL     OW18749   0.036   6.808   0.307 -0.3959 -0.2723  0.2116
 6052SOL    HW118750   0.087   6.855   0.241 -0.2055 -1.5134 -0.5596
 6052SOL    HW218751   0.100   6.754   0.353 -1.0289 -2.1737 -1.0517
 6053SOL     OW18752   6.416   0.778   0.854  0.3610 -0.2843  0.4818
 6053SOL    HW118753   6.397   0.865   0.889 -0.4558 -0.1951 -0.1433
 6053SOL    HW218754   6.338   0.757   0.801  1.0704 -0.8829 -0.3297
 6054SOL     OW18755   2.775   6.662   2.961 -0.3333  0.2670  0.7535
 6054SOL    HW118756   2.834   6.682   2.889 -1.1443  0.7740  0.2198
 6054SOL    HW218757   2.794   6.727   3.028  0.4708 -0.2470  1.0396
 6055SOL     OW18758   1.250   5.609   3.463 -0.2827  0.1714  0.0305
 6055SOL    HW118759   1.199   5.689   3.478 -1.4956 -0.5710 -0.0837
 6055SOL    HW218760   1.283   5.585   3.550  1.8969  1.9603 -0.2367
 6056SOL     OW18761   6.655   2.527   1.118  0.0339 -0.3448  0.2561
 6056SOL    HW118762   6.643   2.576   1.200 -0.1868  3.5180 -1.9773
 6056SOL    HW218763   6.576   2.545   1.068  1.1344 -0.8862 -1.6978
 6057SOL     OW18764   0.145   0.856   3.081  0.1193  0.2036 -0.3237
 6057SOL    HW118765   0.235   0.831   3.059 -1.4365 -5.1316 -1.2870
 6057SOL    HW218766   0.140   0.845   3.176  0.2153 -0.4773 -0.3951
 6058SOL     OW18767   0.563   0.149   3.063  0.0356  0.3345 -0.1502
 6058SOL    HW118768   0.610   0.068   3.084  0.2351  0.3443 -0.5513
 6058SOL    HW218769   0.569   0.157   2.968 -0.3529  0.5987 -0.1554
 6059SOL     OW18770   1.034   3.002   4.517  0.2847 -0.4218  0.6713
 6059SOL    HW118771   1.011   2.909   4.512  0.3033 -0.3045 -3.5033
 6059SOL    HW218772   0.953   3.045   4.546  0.1329 -1.6552  2.1292
 6060SOL     OW18773   3.141   3.012   5.425 -0.1809  0.3289 -0.0649
 6060SOL    HW118774   3.061   2.960   5.430 -0.1078  0.3684  1.9296
 6060SOL    HW218775   3.112   3.101   5.404 -0.6259  0.2708  0.3153
 6061SOL     OW18776   1.603   3.679   5.028 -0.5310  0.1623 -0.5094
 6061SOL    HW118777   1.651   3.738   4.970  1.4024 -1.6037 -0.7560
 6061SOL    HW218778   1.549   3.737   5.082  0.5796  2.0834 -1.4104
 6062SOL     OW18779   7.249   5.045   1.405  0.0469 -0.1949 -0.4045
 6062SOL    HW118780   7.177   5.103   1.380  0.3005 -0.0612 -0.8323
 6062SOL    HW218781   7.234   4.965   1.355  0.0582 -0.2606 -0.3039
 6063SOL     OW18782   5.431   5.969   2.967 -0.1707  0.3533  0.0342
 6063SOL    HW118783   5.392   5.933   2.887  1.4153  1.6576 -1.3769
 6063SOL    HW218784   5.509   5.916   2.982 -0.9234 -0.4311  1.2134
 6064SOL     OW18785   2.974   3.740   2.094 -0.5956 -0.8784  0.9645
 6064SOL    HW118786   2.957   3.830   2.121  2.6368  0.0232  0.1542
 6064SOL    HW218787   2.991   3.692   2.175 -1.3057 -0.5470  1.3121
 6065SOL     OW18788   4.575   7.206   1.315  0.3511  0.3418 -0.0720
 6065SOL    HW118789   4.582   7.127   1.369  0.2793 -0.0211 -0.5874
 6065SOL    HW218790   4.489   7.243   1.336  0.4646  0.3897  0.3121
 6066SOL     OW18791   5.859   4.386   1.415  0.6401 -0.0973 -0.3891
 6066SOL    HW118792   5.843   4.475   1.445  0.2477 -0.3025  0.0137
 6066SOL    HW218793   5.937   4.358   1.464  0.2258 -0.2946  0.1739
 6067SOL     OW18794   5.690   0.404   5.722  0.1691 -0.4032 -0.1808
 6067SOL    HW118795   5.652   0.488   5.745  1.2413  0.0733 -0.1258
 6067SOL    HW218796   5.742   0.421   5.643  3.5242 -0.1230  1.9680
 6068SOL     OW18797   2.687   4.469   6.790  0.2799  0.2387 -0.0028
 6068SOL    HW118798   2.768   4.460   6.740 -0.2768 -0.0459 -0.8620
 6068SOL    HW218799   2.621   4.491   6.725 -0.3740  0.2642  0.6639
 6069SOL     OW18800   3.217   6.739   6.642  0.2448 -0.4604 -0.6156
 6069SOL    HW118801   3.131   6.740   6.600  0.2973 -1.4325 -0.7671
 6069SOL    HW218802   3.240   6.646   6.648  0.8031 -0.2668  0.4208
 6070SOL     OW18803   6.445   6.902   4.119  0.0917  0.1102 -0.5414
 6070SOL    HW118804   6.354   6.920   4.096  0.2777 -0.2706 -1.5956
 6070SOL    HW218805   6.443   6.818   4.165 -0.0478 -0.0608 -0.8621
 6071SOL     OW18806   1.299   5.115   0.404  0.2367 -0.3827  0.8671
 6071SOL    HW118807   1.317   5.177   0.333  1.1334 -1.7711 -0.1554
 6071SOL    HW218808   1.236   5.160   0.460 -2.5898 -0.1993 -2.2355
 6072SOL     OW18809   6.758   5.754   0.491 -0.1312 -0.0745  0.1298
 6072SOL    HW118810   6.690   5.748   0.558 -0.0050 -0.2894  0.2371
 6072SOL    HW218811   6.731   5.828   0.437 -1.3806 -1.2030 -0.8492
 6073SOL     OW18812   6.769   6.532   4.363  0.4720 -0.2341 -0.5977
 6073SOL    HW118813   6.768   6.628   4.362  1.8126 -0.1802  0.7115
 6073SOL    HW218814   6.806   6.510   4.449  2.3199 -1.9050 -1.7814
 6074SOL     OW18815   6.703   4.985   1.052  0.3180  0.0207  0.0252
 6074SOL    HW118816   6.706   4.890   1.039  0.8505  0.2078 -1.2295
 6074SOL    HW218817   6.739   5.022   0.972 -3.3471  1.3926 -1.1055
 6075SOL     OW18818   3.377   3.771   0.194 -0.2740 -0.4256 -0.2568
 6075SOL    HW118819   3.359   3.696   0.251 -0.5470 -0.5658 -0.5304
 6075SOL    HW218820   3.462   3.804   0.225  0.3320 -1.4613 -0.7841
 6076SOL     OW18821   4.197   4.938   4.192  0.2093 -0.3841 -0.4891
 6076SOL    HW118822   4.233   4.858   4.153  0.4724 -0.1594 -0.7103
 6076SOL    HW218823   4.265   5.004   4.177 -0.7340  0.3012 -1.8166
 6077SOL     OW18824   0.229   4.193   1.849 -0.2849 -0.2173 -0.1231
 6077SOL    HW118825   0.195   4.108   1.822  0.4647 -1.5229  2.9046
 6077SOL    HW218826   0.324   4.187   1.833 -0.1834 -0.0851  0.4270
 6078SOL     OW18827   2.956   0.315   5.215 -0.5270 -0.4242  0.0147
 6078SOL    HW118828   3.042   0.301   5.175  0.7387  1.4646  1.9144
 6078SOL    HW218829   2.901   0.347   5.144  1.1280  0.9573 -0.6801
 6079SOL     OW18830   3.535   6.997   2.661 -0.0605  0.8262  0.2235
 6079SOL    HW118831   3.468   7.046   2.613 -1.7953 -0.7463  1.0042
 6079SOL    HW218832   3.573   7.062   2.721 -0.6376  1.8112 -0.4485
 6080SOL     OW18833   4.049   0.899   3.877 -0.0814 -0.6938  0.0248
 6080SOL    HW118834   4.137   0.887   3.912  0.6129  0.7824 -1.1854
 6080SOL    HW218835   4.060   0.901   3.782 -1.5369 -1.4219 -0.1680
 6081SOL     OW18836   2.041   1.261   5.046  0.3408 -0.1773  0.0647
 6081SOL    HW118837   1.982   1.329   5.014  1.1629  0.5885  0.1655
 6081SOL    HW218838   2.042   1.196   4.975 -1.2913 -0.6272  0.4331
 6082SOL     OW18839   3.349   1.311   0.043  0.5037 -0.3520 -0.2916
 6082SOL    HW118840   3.387   1.398   0.036  0.8614 -0.5313 -0.5922
 6082SOL    HW218841   3.255   1.324   0.026  0.8412 -0.2945 -2.2309
 6083SOL     OW18842   2.882   1.196   1.469 -0.6340  0.1960  0.2199
 6083SOL    HW118843   2.819   1.238   1.411 -0.3783 -0.0782 -0.2577
 6083SOL    HW218844   2.957   1.256   1.471  0.3526 -0.9517 -1.6635
 6084SOL     OW18845   3.631   4.049   1.043 -0.2044  0.0080 -0.5066
 6084SOL    HW118846   3.723   4.074   1.039 -0.2509 -0.0079 -4.0606
 6084SOL    HW218847   3.616   4.023   1.134  2.8329  1.6659  0.5287
 6085SOL     OW18848   5.967   2.945   4.319  0.1559 -0.3952 -0.1076
 6085SOL    HW118849   5.887   2.960   4.268  0.0179 -0.5409  0.0649
 6085SOL    HW218850   5.936   2.939   4.409  0.3995 -0.1493 -0.0092
 6086SOL     OW18851   2.427   0.849   5.266 -0.5250  0.2054 -0.0159
 6086SOL    HW118852   2.436   0.766   5.312  0.3915 -0.2660 -1.0403
 6086SOL    HW218853   2.339   0.846   5.227 -1.2125  0.5030  1.4555
 6087SOL     OW18854   7.180   3.398   6.068 -0.4595 -0.0194 -0.3395
 6087SOL    HW118855   7.094   3.427   6.098 -0.5351 -1.6874  1.1077
 6087SOL    HW218856   7.239   3.414   6.142  0.6209  1.6366 -1.5163
 6088SOL     OW18857   1.204   0.122   2.054 -0.2173 -0.4902 -0.1875
 6088SOL    HW118858   1.120   0.076   2.060  0.7608 -1.9475  2.9757
 6088SOL    HW218859   1.269   0.053   2.046  1.0148  0.4345  1.5894
 6089SOL     OW18860   2.902   6.926   2.505 -0.5736 -0.3011 -0.4000
 6089SOL    HW118861   2.828   6.980   2.478 -0.6619 -1.6413 -2.9767
 6089SOL    HW218862   2.876   6.836   2.483  0.2640 -1.2306  2.2214
 6090SOL     OW18863   6.765   2.247   5.951  0.3909  0.0273 -0.3723
 6090SOL    HW118864   6.840   2.189   5.943  0.3326 -0.0988  0.0029
 6090SOL    HW218865   6.693   2.190   5.979  0.2533  0.2163 -0.3397
 6091SOL     OW18866   5.570   3.802   1.327  0.1682  0.2629  0.4549
 6091SOL    HW118867   5.610   3.766   1.406  1.5414 -0.1740 -0.4342
 6091SOL    HW218868   5.622   3.880   1.306  0.8256 -0.5292 -0.9279
 6092SOL     OW18869   1.141   0.605   3.601  0.2047 -0.0176 -0.3585
 6092SOL    HW118870   1.126   0.554   3.680 -0.5463  0.5803 -0.1152
 6092SOL    HW218871   1.139   0.541   3.530  1.5359 -0.6529  0.1545
 6093SOL     OW18872   7.159   6.031   2.895  0.0766 -0.3931 -0.0060
 6093SOL    HW118873   7.237   5.998   2.940  0.0520 -0.4635 -0.0146
 6093SOL    HW218874   7.193   6.091   2.828  0.0884  0.0207  0.3727
 6094SOL     OW18875   5.340   6.871   4.645 -0.2707  0.4288  0.0820
 6094SOL    HW118876   5.283   6.896   4.717 -1.3083 -1.3401 -0.0834
 6094SOL    HW218877   5.385   6.952   4.620 -0.1012  1.1133  2.5031
 6095SOL     OW18878   5.281   3.537   0.471  0.1772 -0.1545 -0.0754
 6095SOL    HW118879   5.267   3.442   0.475  0.2789 -0.1424  0.6630
 6095SOL    HW218880   5.291   3.556   0.378 -1.1835 -0.6714 -0.3420
 6096SOL     OW18881   5.442   4.571   6.226 -0.0746 -0.2806  0.1659
 6096SOL    HW118882   5.450   4.510   6.299  0.2309 -0.7203 -0.2274
 6096SOL    HW218883   5.353   4.559   6.194  0.1511 -0.9101 -0.2431
 6097SOL     OW18884   6.243   5.015   6.859 -0.3195 -0.1346  0.1944
 6097SOL    HW118885   6.171   5.020   6.921  0.5030 -0.6143  1.1972
 6097SOL    HW218886   6.205   4.972   6.782 -1.1267 -0.3083  0.6805
 6098SOL     OW18887   4.505   3.973   5.987  0.0774  0.2471 -0.3422
 6098SOL    HW118888   4.542   4.019   6.062  0.9283 -2.0171  0.6821
 6098SOL    HW218889   4.581   3.945   5.936 -0.4474  0.5825 -1.3204
 6099SOL     OW18890   1.707   6.003   1.673  0.5179  0.1355  1.1800
 6099SOL    HW118891   1.708   5.923   1.620  0.4841  0.5430  0.5562
 6099SOL    HW218892   1.669   5.977   1.756  0.1152 -0.4059  0.8270
 6100SOL     OW18893   5.715   4.428   1.133  0.2131  0.4053  0.1330
 6100SOL    HW118894   5.698   4.364   1.202 -0.5383  0.6032  0.1375
 6100SOL    HW218895   5.810   4.429   1.124  0.3433  0.7399  1.5058
 6101SOL     OW18896   6.638   2.508   6.906 -0.2371 -0.4943 -0.3409
 6101SOL    HW118897   6.608   2.489   6.995  1.7026  1.1336  0.7088
 6101SOL    HW218898   6.689   2.432   6.880  0.8058 -0.1692  0.7113
 6102SOL     OW18899   3.101   3.146   6.037 -0.2871  0.0231 -0.1534
 6102SOL    HW118900   3.079   3.229   5.995  0.4055 -0.5161 -1.6250
 6102SOL    HW218901   3.040   3.139   6.110 -0.3734  1.8030 -0.0390
 6103SOL     OW18902   1.311   2.811   3.006 -0.5938  0.5398  0.1507
 6103SOL    HW118903   1.235   2.867   2.990 -0.3646  0.6225 -0.6418
 6103SOL    HW218904   1.294   2.732   2.954  0.4812  1.0972 -1.0638
 6104SOL     OW18905   3.218   5.103   5.302  0.1605 -0.5180  0.4253
 6104SOL    HW118906   3.229   5.198   5.300  1.0178 -0.6322 -0.7068
 6104SOL    HW218907   3.251   5.074   5.217 -2.3221 -1.5830 -0.2230
 6105SOL     OW18908   4.329   2.021   2.796  0.5372 -0.5090  0.2184
 6105SOL    HW118909   4.371   1.940   2.824  0.1503 -0.6516  0.3963
 6105SOL    HW218910   4.342   2.023   2.702  0.6509 -0.7220  0.2281
 6106SOL     OW18911   1.706   6.163   6.824  0.1290  0.5707  0.0116
 6106SOL    HW118912   1.785   6.198   6.865  1.2121 -1.4484 -0.2774
 6106SOL    HW218913   1.635   6.191   6.881  1.3557 -0.0305  1.9152
 6107SOL     OW18914   0.056   1.042   0.177 -0.0993 -0.5041  0.1950
 6107SOL    HW118915   0.133   1.019   0.229 -0.1553 -0.4032  0.3211
 6107SOL    HW218916   0.037   1.132   0.201 -0.3305 -0.5685  0.2545
 6108SOL     OW18917   6.613   2.375   5.471 -0.1779 -0.1468 -0.2442
 6108SOL    HW118918   6.701   2.406   5.491 -0.0565 -1.8730  2.1078
 6108SOL    HW218919   6.567   2.453   5.439  1.3930  1.3987  1.1471
 6109SOL     OW18920   3.606   2.685   0.563  0.8468  0.2193 -0.5974
 6109SOL    HW118921   3.676   2.720   0.618 -0.6059  0.0100  1.4482
 6109SOL    HW218922   3.542   2.756   0.558 -0.5134 -0.8815  0.6871
 6110SOL     OW18923   0.261   2.423   3.742 -0.7858 -0.1706  0.4272
 6110SOL    HW118924   0.171   2.394   3.759 -0.4192 -0.8308  1.3044
 6110SOL    HW218925   0.267   2.429   3.647 -1.5274 -0.9075  0.3269
 6111SOL     OW18926   3.951   7.153   1.616  0.3943 -0.4046  0.1355
 6111SOL    HW118927   4.019   7.190   1.560  1.4403 -1.7545  0.5032
 6111SOL    HW218928   3.914   7.082   1.564 -1.6816  1.1479 -0.6065
 6112SOL     OW18929   4.598   5.575   1.121  0.3936  0.1795 -0.3505
 6112SOL    HW118930   4.676   5.568   1.065  0.8282  1.4697  0.0814
 6112SOL    HW218931   4.537   5.511   1.084  0.6864  0.9605 -2.2771
 6113SOL     OW18932   5.952   2.241   4.988 -0.0507 -0.5928  0.2775
 6113SOL    HW118933   5.930   2.162   5.037  0.6568 -1.1553 -0.3098
 6113SOL    HW218934   5.876   2.256   4.931 -0.8072 -0.0256  1.4273
 6114SOL     OW18935   0.111   5.696   1.427  0.0886  0.4062 -0.0748
 6114SOL    HW118936   0.179   5.762   1.411  1.0076  0.1252  2.5406
 6114SOL    HW218937   0.155   5.627   1.475 -1.8849 -0.1123  1.0377
 6115SOL     OW18938   0.671   2.202   5.166  0.1494  0.0768  0.6922
 6115SOL    HW118939   0.632   2.288   5.179 -1.4264 -0.2233 -1.9090
 6115SOL    HW218940   0.765   2.216   5.181 -0.2641  1.9384  1.6254
 6116SOL     OW18941   3.797   1.417   6.124 -0.2899 -0.0165 -0.5929
 6116SOL    HW118942   3.731   1.354   6.095 -0.1169  0.2809 -1.6510
 6116SOL    HW218943   3.880   1.377   6.101 -0.1400  0.0277 -0.1167
 6117SOL     OW18944   0.141   3.869   0.028  0.2571 -0.1760  0.5013
 6117SOL    HW118945   0.072   3.930   0.055  0.1627 -0.7650  1.6455
 6117SOL    HW218946   0.158   3.816   0.106 -0.3311 -2.2576 -0.7480
 6118SOL     OW18947   6.469   0.826   2.076  0.0113 -0.5966  0.2836
 6118SOL    HW118948   6.480   0.755   2.012 -0.1645  0.8806 -1.4145
 6118SOL    HW218949   6.379   0.856   2.062 -0.0400 -0.2857  1.2727
 6119SOL     OW18950   2.768   1.227   2.748 -0.4571 -0.1376 -0.1962
 6119SOL    HW118951   2.783   1.136   2.773  1.2903 -0.4373 -2.1922
 6119SOL    HW218952   2.799   1.278   2.823 -1.7639 -1.1620  1.0761
 6120SOL     OW18953   5.456   5.129   2.108  0.5445  0.7314  0.0252
 6120SOL    HW118954   5.460   5.097   2.018  0.0408  0.6145  0.0425
 6120SOL    HW218955   5.421   5.218   2.101  0.3390  0.6584  0.1195
 6121SOL     OW18956   3.158   1.787   1.276 -0.2490  0.2940  0.5080
 6121SOL    HW118957   3.071   1.772   1.238  0.0584 -1.7938  0.5885
 6121SOL    HW218958   3.141   1.816   1.365 -0.8756  0.1857  0.4231
 6122SOL     OW18959   4.653   4.106   5.626 -0.4796 -0.1892 -0.1601
 6122SOL    HW118960   4.695   4.056   5.696  0.2497  1.2984  0.4822
 6122SOL    HW218961   4.560   4.096   5.642 -0.3357 -0.9589  0.2342
 6123SOL     OW18962   5.188   7.154   6.886 -0.4692 -0.3163 -0.2547
 6123SOL    HW118963   5.209   7.144   6.979 -0.3599  0.2790 -0.2187
 6123SOL    HW218964   5.108   7.103   6.875 -1.2079  0.6789  0.4435
 6124SOL     OW18965   6.671   7.207   3.462 -0.3769  0.8648 -0.0864
 6124SOL    HW118966   6.617   7.250   3.395 -0.9436 -0.1658 -0.2958
 6124SOL    HW218967   6.756   7.252   3.457 -0.5742  1.1303 -1.1456
 6125SOL     OW18968   1.980   6.743   7.030  0.2311  0.0422  0.3065
 6125SOL    HW118969   2.040   6.691   6.976  0.4172  0.1910  0.3713
 6125SOL    HW218970   1.948   6.812   6.971  1.4431  0.9976  0.7422
 6126SOL     OW18971   3.162   7.229   1.364 -0.3964  0.0443 -0.5785
 6126SOL    HW118972   3.099   7.248   1.434  1.4462 -1.1485  1.4805
 6126SOL    HW218973   3.113   7.177   1.301 -2.3404  1.8682 -0.6421
 6127SOL     OW18974   3.830   5.749   6.613  0.1775  0.0828 -0.1430
 6127SOL    HW118975   3.851   5.674   6.669 -1.6393 -0.6806 -0.4626
 6127SOL    HW218976   3.739   5.736   6.589  0.9982  0.2198 -3.5323
 6128SOL     OW18977   3.294   5.396   1.272  0.2172  0.3655  0.4541
 6128SOL    HW118978   3.287   5.331   1.202 -0.6308  0.7450  0.1627
 6128SOL    HW218979   3.332   5.350   1.346  2.4900  0.3092 -0.7085
 6129SOL     OW18980   1.359   5.600   6.456 -0.3085  0.4955  0.3473
 6129SOL    HW118981   1.294   5.541   6.416  0.2805  0.5899 -0.7686
 6129SOL    HW218982   1.314   5.636   6.532 -1.0197 -0.6476  0.4818
 6130SOL     OW18983   5.157   4.066   7.206 -0.0472 -0.6744  0.1438
 6130SOL    HW118984   5.214   4.043   7.132 -1.0529  0.9297 -1.1622
 6130SOL    HW218985   5.210   4.123   7.261  1.5451 -3.8159  1.9960
 6131SOL     OW18986   5.898   3.577   5.405 -0.3831  0.6268  0.5532
 6131SOL    HW118987   5.811   3.558   5.369  0.0878  0.3952 -0.4622
 6131SOL    HW218988   5.884   3.580   5.499 -1.5267  0.7167  0.3910
 6132SOL     OW18989   0.010   3.350   5.280  0.4555 -0.3757 -0.0906
 6132SOL    HW118990   0.052   3.289   5.219 -1.6469 -1.3958 -0.5877
 6132SOL    HW218991  -0.042   3.408   5.224 -1.2375 -1.1175  0.6598
 6133SOL     OW18992   4.715   3.463   6.474  0.5742 -0.1814 -0.0611
 6133SOL    HW118993   4.662   3.428   6.403  0.1322  1.3480 -0.5003
 6133SOL    HW218994   4.795   3.410   6.474  0.5440 -0.2279 -1.6368
 6134SOL     OW18995   1.130   1.978   1.291 -0.5169 -0.3267 -0.2407
 6134SOL    HW118996   1.167   1.938   1.212  0.4007 -1.2229  0.6288
 6134SOL    HW218997   1.188   2.051   1.311 -0.6720 -0.1828 -0.3106
 6135SOL     OW18998   6.655   6.790   7.079  0.2715  0.2236 -0.1428
 6135SOL    HW118999   6.706   6.770   7.157 -1.9131 -1.9482  0.7710
 6135SOL    HW219000   6.683   6.725   7.014 -0.6151 -0.3181  0.0241
 6136SOL     OW19001   1.044   2.728   5.223  0.1734 -0.5910  0.1274
 6136SOL    HW119002   1.080   2.640   5.214 -2.5045 -1.7330  0.0254
 6136SOL    HW219003   1.008   2.748   5.137  3.0365  1.7194 -0.6160
 6137SOL     OW19004   2.738   2.480   6.622 -0.3588  0.6721  0.0319
 6137SOL    HW119005   2.815   2.476   6.565  1.7452  1.1768  2.7356
 6137SOL    HW219006   2.684   2.407   6.593  0.9541  0.5030 -2.1471
 6138SOL     OW19007   6.779   7.030   6.016  0.7654 -0.2943 -0.5682
 6138SOL    HW119008   6.740   6.945   6.039 -0.6640  0.4250 -0.2663
 6138SOL    HW219009   6.861   7.032   6.065 -0.5946 -0.2713  1.8376
 6139SOL     OW19010   3.181   6.481   3.632 -0.4740  0.5199  0.2171
 6139SOL    HW119011   3.105   6.534   3.606 -2.6093 -2.0436  0.9746
 6139SOL    HW219012   3.173   6.474   3.728  0.8650  0.4509  0.3275
 6140SOL     OW19013   3.509   4.644   5.813  0.0533  1.0925 -0.4581
 6140SOL    HW119014   3.418   4.653   5.841  0.3008  1.2061  0.3250
 6140SOL    HW219015   3.557   4.706   5.868  1.3178 -2.4326  2.5877
 6141SOL     OW19016   6.879   0.111   4.551 -0.1505 -0.2360  0.9085
 6141SOL    HW119017   6.827   0.097   4.472  1.0658 -0.7503  0.1972
 6141SOL    HW219018   6.854   0.039   4.609  0.9104 -1.3702 -0.0345
 6142SOL     OW19019   4.111   6.492   0.916  0.3844  0.3934  0.0963
 6142SOL    HW119020   4.077   6.578   0.940  0.4353  0.1889  0.9214
 6142SOL    HW219021   4.173   6.471   0.986  0.5642 -0.2041 -0.2391
 6143SOL     OW19022   5.777   3.054   1.395  0.2698 -0.4501  0.3751
 6143SOL    HW119023   5.698   3.001   1.387 -0.0294 -0.1179  1.0566
 6143SOL    HW219024   5.849   2.992   1.384 -0.0845 -0.7019 -0.5406
 6144SOL     OW19025   5.870   4.649   3.566  0.3863 -0.1365  0.1652
 6144SOL    HW119026   5.871   4.723   3.628  0.5340 -0.6713  0.8136
 6144SOL    HW219027   5.914   4.579   3.613 -1.2098 -1.1388  0.1833
 6145SOL     OW19028   2.055   3.190   2.805 -0.3804  0.2894 -0.4257
 6145SOL    HW119029   2.036   3.136   2.882  1.5166 -1.3978 -1.1041
 6145SOL    HW219030   1.995   3.157   2.738 -0.2339  0.0090 -0.4199
 6146SOL     OW19031   2.591   3.870   0.312 -0.1146 -0.2842 -0.4662
 6146SOL    HW119032   2.659   3.937   0.308 -1.6925  1.3883 -0.5118
 6146SOL    HW219033   2.550   3.871   0.226 -0.9903 -0.3818 -0.0651
 6147SOL     OW19034   4.581   3.384   4.732 -0.0301  0.1461  0.0261
 6147SOL    HW119035   4.661   3.428   4.704  0.3779 -0.1991  0.6335
 6147SOL    HW219036   4.512   3.449   4.719  0.7243  1.4202  2.0191
 6148SOL     OW19037   3.272   2.229   5.748 -0.1793 -0.4320  0.3099
 6148SOL    HW119038   3.198   2.176   5.776 -1.0271  0.1407 -0.7937
 6148SOL    HW219039   3.239   2.280   5.674  1.1810  0.1765  0.0921
 6149SOL     OW19040   1.335   5.188   5.536  0.3747 -0.3284  0.0322
 6149SOL    HW119041   1.325   5.214   5.628 -0.4293 -0.5022 -0.0043
 6149SOL    HW219042   1.417   5.138   5.534  0.2571 -0.5540  0.7016
 6150SOL     OW19043   0.922   5.310   1.263 -0.5425  0.8746  0.1852
 6150SOL    HW119044   0.963   5.223   1.273 -3.0223 -0.3097  0.4886
 6150SOL    HW219045   0.979   5.356   1.202 -0.2797 -1.7318 -1.6518
 6151SOL     OW19046   2.652   6.438   3.471  0.4290  0.8697  0.0033
 6151SOL    HW119047   2.738   6.447   3.430 -0.3480  2.3352 -1.3703
 6151SOL    HW219048   2.627   6.347   3.455  0.6519  1.1018 -1.7745
 6152SOL     OW19049   1.958   7.146   0.940 -0.2163 -0.0109  0.0340
 6152SOL    HW119050   1.946   7.072   1.000  1.1665 -0.6235 -0.4363
 6152SOL    HW219051   1.891   7.134   0.874 -1.7986  0.6957  1.4657
 6153SOL     OW19052   6.171   3.322   2.204  0.0859 -0.1835 -0.0486
 6153SOL    HW119053   6.211   3.291   2.122 -1.1304  0.6155 -0.9591
 6153SOL    HW219054   6.161   3.243   2.257  1.3336 -0.6377 -0.4625
 6154SOL     OW19055   7.215   1.987   4.154  0.0785 -0.4955 -0.3484
 6154SOL    HW119056   7.279   2.056   4.143 -0.2338 -0.4076 -1.6377
 6154SOL    HW219057   7.132   2.033   4.165  0.2543 -0.5997  1.5964
 6155SOL     OW19058   0.002   0.781   1.192 -0.5585 -0.2683 -0.1375
 6155SOL    HW119059  -0.061   0.766   1.263  0.7175  0.9388  1.2871
 6155SOL    HW219060   0.047   0.862   1.217  0.3513 -0.1663 -2.0195
 6156SOL     OW19061   0.899   6.077   3.262 -0.4119  0.2155  0.1055
 6156SOL    HW119062   0.848   6.087   3.343 -1.0904  1.1600 -0.4249
 6156SOL    HW219063   0.867   6.147   3.205  1.1709  0.5155 -0.4148
 6157SOL     OW19064   2.450   1.100   5.586 -0.0865  0.1797  0.8516
 6157SOL    HW119065   2.376   1.153   5.557  0.3016 -0.4683 -1.4964
 6157SOL    HW219066   2.431   1.012   5.551  2.0635  0.1578 -0.3328
 6158SOL     OW19067   0.528   7.159   6.679 -0.1639  0.1198 -0.2085
 6158SOL    HW119068   0.561   7.187   6.765 -0.4734  0.7396 -0.2955
 6158SOL    HW219069   0.577   7.078   6.661  0.6184  0.5167  0.1026
 6159SOL     OW19070   4.441   1.001   6.665  0.4582  0.1241 -0.3702
 6159SOL    HW119071   4.400   1.062   6.604 -0.8743  0.9223  1.2538
 6159SOL    HW219072   4.393   0.919   6.654 -1.1238  0.8370  0.9811
 6160SOL     OW19073   0.953   1.994   3.341 -0.1953  0.6462  0.2945
 6160SOL    HW119074   0.927   2.086   3.340 -1.1022  0.3999  0.6817
 6160SOL    HW219075   1.042   1.995   3.377  0.4899  1.5318 -1.3762
 6161SOL     OW19076   2.579   6.018   6.688  0.3737  0.3153  0.1450
 6161SOL    HW119077   2.667   6.018   6.650  0.6183  0.3012  0.7088
 6161SOL    HW219078   2.581   5.947   6.752 -0.4510 -0.5543 -0.7582
 6162SOL     OW19079   3.350   7.128   3.118  0.1687  0.1946  0.3728
 6162SOL    HW119080   3.400   7.164   3.191  0.2863  2.2880 -0.7079
 6162SOL    HW219081   3.264   7.170   3.124 -0.5003 -1.1731  0.5018
 6163SOL     OW19082   6.046   2.313   6.677  0.8794 -0.0498 -0.0740
 6163SOL    HW119083   6.129   2.268   6.657  1.4944  0.4669  1.2579
 6163SOL    HW219084   6.047   2.324   6.772 -0.3282  0.7366 -0.1440
 6164SOL     OW19085   4.899   6.455   1.744  0.2302  0.0837  0.1020
 6164SOL    HW119086   4.959   6.381   1.728 -0.4063  0.2879 -3.7586
 6164SOL    HW219087   4.825   6.416   1.790  0.6326 -1.3830 -0.4458
 6165SOL     OW19088   4.290   4.012   1.697 -0.2962 -0.8349 -0.3124
 6165SOL    HW119089   4.305   4.004   1.792  0.4892 -0.2909 -0.3851
 6165SOL    HW219090   4.233   4.088   1.689  1.8928  0.8609 -0.4501
 6166SOL     OW19091   6.062   5.362   0.873  0.0721 -0.4673  0.2380
 6166SOL    HW119092   6.091   5.396   0.789 -1.3553 -1.8166 -0.8348
 6166SOL    HW219093   6.119   5.286   0.889 -0.0735 -0.5884  0.1820
 6167SOL     OW19094   4.409   1.367   7.162 -0.6902  0.0397  0.1143
 6167SOL    HW119095   4.435   1.323   7.082 -3.1290 -1.1977 -0.0294
 6167SOL    HW219096   4.429   1.305   7.232  0.9505  0.9121  0.4528
 6168SOL     OW19097   1.431   2.025   5.716  0.2265  0.1810  0.2740
 6168SOL    HW119098   1.493   2.096   5.729  0.6692 -0.1034 -0.2796
 6168SOL    HW219099   1.419   2.020   5.621 -1.6907  1.1275  0.4511
 6169SOL     OW19100   5.172   2.449   1.646 -0.6229  0.0261 -0.3538
 6169SOL    HW119101   5.103   2.382   1.645 -0.6808  0.0957 -1.4172
 6169SOL    HW219102   5.248   2.405   1.609 -0.5457  0.4266 -0.6758
 6170SOL     OW19103   5.062   3.549   6.490  0.4478 -0.3176  0.0280
 6170SOL    HW119104   5.087   3.566   6.400 -0.7471 -0.6247 -0.3793
 6170SOL    HW219105   5.022   3.461   6.487 -2.2551  0.8495  0.2974
 6171SOL     OW19106   4.798   3.730   0.089  0.1050  0.2974  0.9998
 6171SOL    HW119107   4.835   3.809   0.128  0.9671  0.1665  0.4593
 6171SOL    HW219108   4.820   3.661   0.153  0.4006  0.2975  0.9005
 6172SOL     OW19109   2.651   0.062   2.847  0.3583  0.5339  0.6334
 6172SOL    HW119110   2.605  -0.022   2.849  1.6598 -0.2355 -0.5150
 6172SOL    HW219111   2.623   0.102   2.764  0.3538  0.8719  0.7995
 6173SOL     OW19112   4.423   5.382   1.010 -0.1858  0.2901 -0.2451
 6173SOL    HW119113   4.328   5.371   0.998 -0.3419  1.2108  0.1048
 6173SOL    HW219114   4.462   5.336   0.935 -0.9867  1.7410 -1.5875
 6174SOL     OW19115   4.755   5.850   2.687  0.3536  0.3889 -0.5958
 6174SOL    HW119116   4.837   5.803   2.675 -1.0815 -1.6866 -2.8272
 6174SOL    HW219117   4.740   5.851   2.781  4.2764  3.2687  0.1180
 6175SOL     OW19118   6.360   4.448   1.238  0.2192 -0.3709 -0.0489
 6175SOL    HW119119   6.387   4.468   1.148  1.8931 -0.1279  0.4962
 6175SOL    HW219120   6.360   4.533   1.283 -0.7426 -0.4719  0.1465
 6176SOL     OW19121   6.565   0.203   5.688  0.1087 -0.4436  0.1940
 6176SOL    HW119122   6.553   0.158   5.605  1.7781 -0.6721  0.0582
 6176SOL    HW219123   6.533   0.292   5.672 -0.8281 -0.8708 -0.2928
 6177SOL     OW19124   0.101   1.453   1.650 -0.1518 -0.1668  0.3547
 6177SOL    HW119125   0.020   1.409   1.672 -0.2920 -0.4065 -0.6080
 6177SOL    HW219126   0.099   1.535   1.700  0.0616 -1.1754  2.0498
 6178SOL     OW19127   4.425   3.395   3.541 -0.2949 -0.3836 -0.1692
 6178SOL    HW119128   4.506   3.382   3.589 -0.2555 -0.9262 -0.3799
 6178SOL    HW219129   4.370   3.446   3.601  0.4729  0.6271 -0.3211
 6179SOL     OW19130   6.436   1.481   0.244 -0.1702 -0.0495 -0.6105
 6179SOL    HW119131   6.349   1.495   0.282 -0.0124 -1.1846  0.1792
 6179SOL    HW219132   6.449   1.557   0.187 -1.0985  0.8310  0.3239
 6180SOL     OW19133   4.095   0.044   4.634 -0.2693  0.6623  0.5257
 6180SOL    HW119134   4.133   0.118   4.682  2.2918  0.8560 -1.7455
 6180SOL    HW219135   4.128  -0.034   4.679 -1.2301  0.8316  1.5742
 6181SOL     OW19136   0.946   2.965   7.256  0.0088  0.0463 -0.4610
 6181SOL    HW119137   0.998   2.965   7.337 -0.0973 -1.9931 -0.3672
 6181SOL    HW219138   0.991   3.028   7.200  1.2007  0.0827  0.4926
 6182SOL     OW19139   6.428   4.726   2.378  0.3524 -0.2146  0.1579
 6182SOL    HW119140   6.412   4.681   2.461  1.3005 -0.2011  0.3433
 6182SOL    HW219141   6.494   4.792   2.398  0.3697 -0.0155 -0.5417
 6183SOL     OW19142   1.450   0.211   0.656  0.2111  0.1159  0.0923
 6183SOL    HW119143   1.444   0.305   0.673  3.0132  0.5705 -1.2271
 6183SOL    HW219144   1.367   0.189   0.615 -0.4806  1.9955  0.4373
 6184SOL     OW19145   6.974   4.476   3.242 -0.2446 -0.7468 -0.1784
 6184SOL    HW119146   7.024   4.395   3.232  0.7413 -0.2540  0.6751
 6184SOL    HW219147   6.883   4.447   3.250  0.1009 -1.7637  0.1586
 6185SOL     OW19148   3.321   1.424   2.822 -0.1882 -0.1717 -0.5014
 6185SOL    HW119149   3.387   1.462   2.764 -0.2248 -0.4549 -0.7297
 6185SOL    HW219150   3.237   1.451   2.783 -0.2312 -1.4674 -1.3322
 6186SOL     OW19151   6.369   0.441   6.938  0.0630 -0.3344 -0.0411
 6186SOL    HW119152   6.372   0.383   6.862  1.0889  0.9756 -1.0331
 6186SOL    HW219153   6.284   0.426   6.977  1.2527 -4.3684  1.2106
 6187SOL     OW19154   3.931   4.567   6.700 -0.1574 -0.4572 -0.2313
 6187SOL    HW119155   3.933   4.546   6.607 -0.3716 -1.3901 -0.0279
 6187SOL    HW219156   3.866   4.637   6.708  1.7712  1.5053 -1.1408
 6188SOL     OW19157   1.230   5.475   0.922  0.3199 -0.2293 -0.0244
 6188SOL    HW119158   1.245   5.389   0.883  1.2830 -0.7246  1.3992
 6188SOL    HW219159   1.214   5.457   1.014 -1.0013  1.0042 -0.0058
 6189SOL     OW19160   3.781   5.789   4.437 -0.7243 -0.3799  0.2956
 6189SOL    HW119161   3.727   5.781   4.358 -0.4833 -0.0335  0.0920
 6189SOL    HW219162   3.868   5.759   4.410 -0.4512  0.4694  0.2137
 6190SOL     OW19163   7.033   2.600   5.332  0.4753  0.0239  0.1370
 6190SOL    HW119164   7.033   2.673   5.270 -1.1307  0.4625  0.6202
 6190SOL    HW219165   7.117   2.605   5.376  0.7907  0.9620 -0.5638
 6191SOL     OW19166   6.504   3.751   3.457 -0.6767  0.2691  0.5066
 6191SOL    HW119167   6.446   3.727   3.529  0.5218 -1.0968  1.0445
 6191SOL    HW219168   6.590   3.718   3.483  0.0504  0.9633 -0.9327
 6192SOL     OW19169   2.796   2.264   3.145 -0.1659 -0.5627 -0.3969
 6192SOL    HW119170   2.832   2.330   3.086 -1.6679 -0.5087 -1.2957
 6192SOL    HW219171   2.794   2.306   3.231 -0.2234  0.2256 -0.7838
 6193SOL     OW19172   2.148   2.204   0.575  0.1029 -0.6339  0.1997
 6193SOL    HW119173   2.234   2.203   0.532 -0.2361 -0.1542 -0.5051
 6193SOL    HW219174   2.142   2.120   0.619  0.2424 -1.3669 -1.1511
 6194SOL     OW19175   2.578   1.323   5.075 -0.3904 -0.0661  0.3656
 6194SOL    HW119176   2.583   1.303   4.982 -3.1648 -1.2769  0.4355
 6194SOL    HW219177   2.584   1.238   5.119  1.0327  0.5055  1.3436
 6195SOL     OW19178   4.312   1.343   4.865 -0.2589  0.3786  0.4786
 6195SOL    HW119179   4.388   1.379   4.819 -0.3746  0.6128  0.4706
 6195SOL    HW219180   4.274   1.418   4.911 -1.1026  0.4925 -0.3708
 6196SOL     OW19181   3.853   2.930   6.805 -0.1830 -0.7429 -0.3611
 6196SOL    HW119182   3.777   2.887   6.768 -0.3668  0.1301 -1.0048
 6196SOL    HW219183   3.849   2.910   6.899 -1.0238 -0.9648 -0.4427
 6197SOL     OW19184   5.595   5.727   4.729  0.5318  0.3071  0.2929
 6197SOL    HW119185   5.503   5.702   4.717  0.3442  0.3556  1.5285
 6197SOL    HW219186   5.626   5.748   4.641 -0.0147 -1.8539 -0.4550
 6198SOL     OW19187   5.201   2.243   0.563  0.0645 -0.1699 -0.3466
 6198SOL    HW119188   5.127   2.262   0.505 -0.4247  0.8971  0.5888
 6198SOL    HW219189   5.266   2.310   0.541 -0.3387  0.5812  0.6799
 6199SOL     OW19190   2.145   4.327   4.832  0.0196 -0.1050 -0.2940
 6199SOL    HW119191   2.083   4.266   4.872 -0.2475  0.0664 -0.4483
 6199SOL    HW219192   2.150   4.299   4.741 -0.6981  0.5917 -0.5476
 6200SOL     OW19193   1.424   4.690   2.961 -0.2979 -0.5412  0.5475
 6200SOL    HW119194   1.498   4.658   2.908 -0.8801 -1.9721  0.5636
 6200SOL    HW219195   1.384   4.757   2.907  0.7911 -0.0147  0.3731
 6201SOL     OW19196   1.674   5.566   5.623  0.2441 -0.1979  0.3056
 6201SOL    HW119197   1.661   5.631   5.693  0.6826 -0.4895  0.6603
 6201SOL    HW219198   1.765   5.540   5.631  0.1474 -0.6432 -0.0268
 6202SOL     OW19199   2.543   2.453   4.860  0.4769 -0.1635  0.1548
 6202SOL    HW119200   2.551   2.423   4.950  0.1958 -0.2315  0.1594
 6202SOL    HW219201   2.617   2.413   4.814  1.1963  0.6842  0.5681
 6203SOL     OW19202   5.286   1.028   3.345 -0.2842 -0.2615  0.1089
 6203SOL    HW119203   5.259   0.937   3.334 -1.0666  0.2122 -2.2413
 6203SOL    HW219204   5.381   1.026   3.344 -0.2880 -1.1417  0.9715
 6204SOL     OW19205   4.003   5.639   2.221 -0.0123 -0.8923 -0.1749
 6204SOL    HW119206   4.082   5.686   2.246 -1.3092  1.5703 -0.4958
 6204SOL    HW219207   3.962   5.695   2.154 -2.4743 -1.6436  0.6434
 6205SOL     OW19208   4.037   1.610   6.022 -0.0551 -0.4901  0.6001
 6205SOL    HW119209   3.972   1.609   5.952  0.2330 -1.0256  0.3352
 6205SOL    HW219210   4.010   1.540   6.081  0.2064 -0.6378  0.5494
 6206SOL     OW19211   4.677   5.907   6.885  0.5302 -0.9464 -0.4434
 6206SOL    HW119212   4.630   5.845   6.940  0.2450 -0.5585 -0.2513
 6206SOL    HW219213   4.764   5.868   6.874  0.0172 -1.9101 -1.2145
 6207SOL     OW19214   6.690   2.955   3.960  0.2080  0.4219  0.5092
 6207SOL    HW119215   6.692   2.975   3.866 -3.0083 -1.2248 -0.0108
 6207SOL    HW219216   6.645   3.030   3.999 -0.1093  0.2542  0.4653
 6208SOL     OW19217   3.426   6.425   3.523  0.2033  0.2430  0.2536
 6208SOL    HW119218   3.395   6.401   3.435  1.6041  1.6891 -0.6704
 6208SOL    HW219219   3.347   6.434   3.575 -0.7303  0.4724 -1.1616
 6209SOL     OW19220   2.007   6.749   4.243 -0.5790 -0.3286  0.2842
 6209SOL    HW119221   1.984   6.656   4.241  3.5662 -1.5350  2.4942
 6209SOL    HW219222   1.976   6.780   4.328 -0.0605 -0.2739  0.4582
 6210SOL     OW19223   6.895   1.628   1.585  0.1867 -0.3739 -0.6074
 6210SOL    HW119224   6.819   1.671   1.624  1.1831 -0.1856  1.1460
 6210SOL    HW219225   6.934   1.695   1.529 -0.4962 -0.2494 -0.9506
 6211SOL     OW19226   1.222   3.511   5.401  0.2204  0.6376  0.5012
 6211SOL    HW119227   1.149   3.449   5.404  1.8782 -1.3447  1.5172
 6211SOL    HW219228   1.240   3.522   5.308 -1.7324  1.6145  0.2191
 6212SOL     OW19229   0.664   2.060   4.888  0.2932  0.5111 -0.1843
 6212SOL    HW119230   0.695   2.099   4.971  1.6633  1.5741 -1.1593
 6212SOL    HW219231   0.740   2.013   4.855  0.6151  2.3629 -2.1650
 6213SOL     OW19232   3.428   2.324   3.771 -0.5472  0.4291  0.4628
 6213SOL    HW119233   3.361   2.261   3.746  0.1829 -0.9993  2.0216
 6213SOL    HW219234   3.477   2.340   3.690 -0.8598 -0.8529  0.0124
 6214SOL     OW19235   7.219   6.559   2.438 -0.1146 -0.5414  0.2897
 6214SOL    HW119236   7.129   6.564   2.405 -0.3412 -0.1147  0.9440
 6214SOL    HW219237   7.274   6.580   2.363 -0.5974 -0.0630  0.0652
 6215SOL     OW19238   1.476   0.601   1.601 -0.6418  0.8384  0.2247
 6215SOL    HW119239   1.472   0.696   1.612  1.6379  0.8795  0.7916
 6215SOL    HW219240   1.466   0.567   1.690 -0.1005  0.5779  0.1829
 6216SOL     OW19241   4.246   4.996   6.770 -0.2668  0.0086 -0.3181
 6216SOL    HW119242   4.181   5.035   6.829  2.6008  2.7929  1.1823
 6216SOL    HW219243   4.288   4.927   6.822  0.1596  0.4063 -0.1241
 6217SOL     OW19244   1.223   0.599   2.248  0.0079  0.0150 -0.4986
 6217SOL    HW119245   1.297   0.638   2.295  0.2972 -0.4167 -0.5855
 6217SOL    HW219246   1.159   0.578   2.316  0.3880 -0.5272 -0.3028
 6218SOL     OW19247   2.856   2.279   5.763 -0.3473 -0.5478  0.2916
 6218SOL    HW119248   2.866   2.369   5.796 -0.2967 -0.6676  0.6115
 6218SOL    HW219249   2.801   2.288   5.686 -1.9660 -0.4505  1.4241
 6219SOL     OW19250   6.290   5.819   0.130  0.5531  0.8588 -0.1992
 6219SOL    HW119251   6.267   5.877   0.203  0.5555  0.3319  0.2257
 6219SOL    HW219252   6.310   5.878   0.058  1.2283  1.4058  0.4318
 6220SOL     OW19253   6.108   4.549   3.401  0.1525 -0.0878  0.5888
 6220SOL    HW119254   6.070   4.461   3.407 -0.2354  0.0087 -0.2865
 6220SOL    HW219255   6.035   4.608   3.420 -0.2232  0.1062 -1.2969
 6221SOL     OW19256   6.340   0.789   0.339  0.1697 -0.2134 -0.1674
 6221SOL    HW119257   6.376   0.839   0.412  0.0820 -0.3863 -0.0080
 6221SOL    HW219258   6.248   0.776   0.361 -0.6340  2.4195 -1.7501
 6222SOL     OW19259   2.564   2.778   0.353 -0.3332 -0.0494 -0.2848
 6222SOL    HW119260   2.584   2.796   0.261  2.6228 -1.0714  0.1342
 6222SOL    HW219261   2.494   2.713   0.350  0.3130 -0.6855 -1.8182
 6223SOL     OW19262   4.422   1.684   3.237  0.1497 -0.1456 -0.2914
 6223SOL    HW119263   4.342   1.737   3.231  0.0778 -0.2603 -0.3431
 6223SOL    HW219264   4.410   1.632   3.317  1.3384  1.7647  1.1945
 6224SOL     OW19265   0.291   3.267   1.029 -0.0976  0.4193  0.2408
 6224SOL    HW119266   0.374   3.234   0.993  1.3498  2.8453  1.2109
 6224SOL    HW219267   0.265   3.336   0.968 -1.3680 -0.2320  0.0209
 6225SOL     OW19268   4.321   4.594   0.782  0.1787  0.2865 -0.5167
 6225SOL    HW119269   4.233   4.602   0.745  0.1506 -0.4060 -0.5938
 6225SOL    HW219270   4.364   4.527   0.729  0.2257 -0.5358  0.5455
 6226SOL     OW19271   4.301   5.356   3.927  0.4981 -0.6818 -0.4394
 6226SOL    HW119272   4.355   5.434   3.941 -1.8376  0.9310 -0.0105
 6226SOL    HW219273   4.329   5.295   3.996 -0.0693  1.1739  1.5011
 6227SOL     OW19274   6.570   2.048   1.290 -0.7142  0.4532 -0.0689
 6227SOL    HW119275   6.494   2.040   1.233 -1.1174  2.1420  0.2038
 6227SOL    HW219276   6.631   2.103   1.241 -0.3327  0.4519  0.3975
 6228SOL     OW19277   0.557   1.281   5.379  0.1337  0.4543  0.1406
 6228SOL    HW119278   0.481   1.224   5.385  0.6678 -0.4261 -1.1095
 6228SOL    HW219279   0.537   1.341   5.307 -0.1744  1.4954  1.0658
 6229SOL     OW19280   4.714   4.060   1.391  0.9752 -0.2492  0.0700
 6229SOL    HW119281   4.678   3.979   1.426  1.4828 -1.1457 -1.4198
 6229SOL    HW219282   4.721   4.044   1.296  0.8642  1.6038 -0.2787
 6230SOL     OW19283   5.852   1.123   1.643  0.4190  0.0907 -0.2304
 6230SOL    HW119284   5.785   1.191   1.644  1.5595  1.2408 -1.0044
 6230SOL    HW219285   5.909   1.143   1.717 -0.1985 -1.0100  0.5569
 6231SOL     OW19286   0.318   1.098   2.985 -0.2367 -0.5460 -0.2097
 6231SOL    HW119287   0.362   1.022   3.022 -1.2070 -0.9423  0.1469
 6231SOL    HW219288   0.256   1.125   3.053  1.2729  1.5835  0.3633
 6232SOL     OW19289   2.840   2.992   6.723  0.2374 -0.3349  0.3805
 6232SOL    HW119290   2.768   2.931   6.707 -1.1175  0.6575  2.4542
 6232SOL    HW219291   2.907   2.967   6.660 -0.2156 -4.0610  1.2379
 6233SOL     OW19292   5.730   5.487   3.966  0.0280  0.8176  0.8090
 6233SOL    HW119293   5.657   5.491   4.028 -1.1626 -0.0040 -0.5102
 6233SOL    HW219294   5.689   5.485   3.880  1.5114 -1.6771  0.0957
 6234SOL     OW19295   4.556   7.185   3.253 -0.0602  0.8827 -1.0124
 6234SOL    HW119296   4.574   7.128   3.178 -1.1517 -0.1119 -0.5347
 6234SOL    HW219297   4.633   7.177   3.309  2.0467  3.8366 -3.3380
 6235SOL     OW19298   6.308   2.561   0.141 -0.1666  0.2497  0.7720
 6235SOL    HW119299   6.390   2.540   0.187 -0.2464  0.8169  1.1716
 6235SOL    HW219300   6.308   2.502   0.065 -0.1477 -0.8549  1.6237
 6236SOL     OW19301   4.471   5.457   5.864  0.1379 -0.3460  0.0075
 6236SOL    HW119302   4.506   5.489   5.947  0.9543  0.9420 -0.8083
 6236SOL    HW219303   4.534   5.488   5.798 -0.5587 -1.2405 -1.1030
 6237SOL     OW19304   1.533   4.778   4.817 -0.0080 -0.0866 -0.5252
 6237SOL    HW119305   1.459   4.837   4.837  0.1168 -0.2154  0.3401
 6237SOL    HW219306   1.497   4.690   4.828  0.0398 -0.1600 -0.9609
 6238SOL     OW19307   5.263   2.384   5.135  0.0442  0.3158  0.2906
 6238SOL    HW119308   5.250   2.358   5.043  4.1389 -2.5335  0.3639
 6238SOL    HW219309   5.247   2.304   5.185  0.3028  1.2085  1.8378
 6239SOL     OW19310   1.945   1.198   2.457 -0.0834 -1.2812 -0.1315
 6239SOL    HW119311   1.867   1.234   2.498  0.5033 -0.0256 -0.0987
 6239SOL    HW219312   1.995   1.161   2.531  1.4114  1.7983  0.4825
 6240SOL     OW19313   2.257   4.469   6.889  1.0556  0.0274  0.0376
 6240SOL    HW119314   2.193   4.514   6.944  0.1554  0.1922 -1.1410
 6240SOL    HW219315   2.217   4.385   6.869  2.1283 -0.7440  1.0486
 6241SOL     OW19316   1.807   3.325   1.896  0.2103  0.2786  0.6536
 6241SOL    HW119317   1.890   3.342   1.851 -0.3740  0.4379 -0.3916
 6241SOL    HW219318   1.830   3.265   1.967  1.3260  0.8452  0.7950
 6242SOL     OW19319   7.118   3.903   5.677  0.4873 -0.4550 -0.4827
 6242SOL    HW119320   7.135   3.963   5.749 -0.7193 -1.8476  1.0056
 6242SOL    HW219321   7.182   3.832   5.688 -0.4762 -1.2751 -0.0395
 6243SOL     OW19322   3.418   4.021   3.386  0.2107 -0.0652  0.3942
 6243SOL    HW119323   3.410   3.935   3.427 -1.3276  0.9135  2.2524
 6243SOL    HW219324   3.377   4.081   3.449  2.0803  2.1587 -0.4378
 6244SOL     OW19325   5.713   4.752   2.534  0.4095 -0.0506  0.1294
 6244SOL    HW119326   5.753   4.666   2.547 -0.5437 -0.6932 -1.1234
 6244SOL    HW219327   5.653   4.762   2.608  0.6098 -0.4073  0.3425
 6245SOL     OW19328   1.078   6.197   1.168 -0.0370 -0.4366  0.6883
 6245SOL    HW119329   1.132   6.143   1.226  1.0419 -0.9268 -0.7293
 6245SOL    HW219330   1.061   6.141   1.092  0.2725  0.8657 -0.3677
 6246SOL     OW19331   2.666   6.879   4.010  0.8422 -0.4356  0.5787
 6246SOL    HW119332   2.580   6.871   4.051  0.5386 -1.0048 -0.1633
 6246SOL    HW219333   2.719   6.812   4.052  0.1000 -2.0639 -1.0446
 6247SOL     OW19334   1.038   2.022   5.729 -0.0680 -0.7662 -0.5394
 6247SOL    HW119335   1.020   2.114   5.712 -0.2828 -0.8353 -0.6895
 6247SOL    HW219336   1.116   2.002   5.676  0.5297 -0.4336  0.2078
 6248SOL     OW19337   3.998   1.954   6.107  0.3621  0.0012  0.3673
 6248SOL    HW119338   3.917   1.980   6.062  1.2751  0.1738 -1.2325
 6248SOL    HW219339   4.064   2.014   6.071  1.5981 -1.5110  0.0995
 6249SOL     OW19340   3.574   6.398   5.243  0.5025 -0.3245  0.3915
 6249SOL    HW119341   3.492   6.444   5.256  1.2616  1.4541 -0.8833
 6249SOL    HW219342   3.566   6.359   5.156  0.3400 -1.5826  0.9679
 6250SOL     OW19343   4.657   0.787   4.799 -0.0671  0.1027  0.2571
 6250SOL    HW119344   4.643   0.856   4.864 -1.4873 -0.3580  0.4746
 6250SOL    HW219345   4.629   0.707   4.844  2.9432 -0.8485  0.5243
 6251SOL     OW19346   1.341   1.064   7.239  0.6694  0.5121  0.2082
 6251SOL    HW119347   1.402   1.079   7.311  0.7431 -0.4495  0.3506
 6251SOL    HW219348   1.391   1.085   7.161  0.2619  2.6184  0.4718
 6252SOL     OW19349   2.827   4.635   4.004 -0.3430  0.8261  0.3751
 6252SOL    HW119350   2.775   4.566   4.045 -1.3376  1.1395 -0.3394
 6252SOL    HW219351   2.823   4.708   4.066 -1.5089  1.1621 -0.0948
 6253SOL     OW19352   4.822   6.572   1.500  0.3550  0.0755 -0.4965
 6253SOL    HW119353   4.737   6.528   1.495 -0.0431  0.5658  1.5107
 6253SOL    HW219354   4.858   6.546   1.584  2.0011  0.2426 -1.1394
 6254SOL     OW19355   2.245   3.492   4.688  0.1847 -0.3384  0.0590
 6254SOL    HW119356   2.304   3.510   4.615  0.1093  1.1579  0.3586
 6254SOL    HW219357   2.163   3.535   4.664  0.9089  2.3192  2.1256
 6255SOL     OW19358   6.438   3.305   1.008 -0.0261 -0.4038  0.2053
 6255SOL    HW119359   6.343   3.310   1.014 -0.3008 -1.4421 -2.4284
 6255SOL    HW219360   6.454   3.240   0.939  2.5824  0.0182  0.3660
 6256SOL     OW19361   4.659   6.303   4.681 -0.1465 -0.0327  0.4921
 6256SOL    HW119362   4.586   6.259   4.638  0.5435 -0.6578 -0.0648
 6256SOL    HW219363   4.736   6.251   4.656  0.5486  0.9106  0.6435
 6257SOL     OW19364   0.586   2.750   2.419 -0.2989 -0.0205 -0.1576
 6257SOL    HW119365   0.657   2.687   2.422 -0.5639 -0.3478 -0.7441
 6257SOL    HW219366   0.545   2.738   2.333 -0.8298  0.4179  0.0227
 6258SOL     OW19367   3.189   2.281   1.554  0.3441  0.1749  0.6947
 6258SOL    HW119368   3.268   2.245   1.594  0.5140  0.5202  0.6792
 6258SOL    HW219369   3.119   2.221   1.579  0.8142 -0.8034 -0.2943
 6259SOL     OW19370   6.684   4.621   3.107  0.0896 -0.4032  0.0944
 6259SOL    HW119371   6.778   4.640   3.117  0.4322 -1.7858 -0.3728
 6259SOL    HW219372   6.644   4.707   3.095  1.5334  0.0964 -1.4466
 6260SOL     OW19373   1.939   5.708   2.982  0.1893  0.2237 -0.1304
 6260SOL    HW119374   1.860   5.704   3.036 -0.3081  1.1561 -0.7735
 6260SOL    HW219375   1.906   5.717   2.892  0.9958 -1.7592 -0.6507
 6261SOL     OW19376   6.545   4.907   1.919  0.0519 -0.2596 -0.0255
 6261SOL    HW119377   6.585   4.843   1.978  1.8253  0.3000 -0.6073
 6261SOL    HW219378   6.493   4.853   1.858  0.9364 -1.1061 -0.0523
 6262SOL     OW19379   2.531   2.878   4.246 -0.1803  1.3408  0.2642
 6262SOL    HW119380   2.567   2.824   4.175 -0.3524  3.0851 -1.1800
 6262SOL    HW219381   2.607   2.920   4.285 -0.0119 -0.1467  1.6073
 6263SOL     OW19382   2.932   1.228   3.157  0.5559 -0.1482  0.3180
 6263SOL    HW119383   2.938   1.135   3.136  1.3886 -0.4455  1.8232
 6263SOL    HW219384   3.023   1.258   3.162  0.3021  0.6485  0.3306
 6264SOL     OW19385   5.506   5.033   6.104  1.0397 -0.7441  0.0480
 6264SOL    HW119386   5.532   5.063   6.191  0.7193  0.3601 -0.2365
 6264SOL    HW219387   5.558   4.953   6.090  0.3729 -1.4752  1.6437
 6265SOL     OW19388   4.950   4.672   1.337 -0.0480 -0.2300 -0.4957
 6265SOL    HW119389   4.992   4.695   1.420 -1.2777  0.6050 -0.0931
 6265SOL    HW219390   5.022   4.669   1.274  0.7949 -0.1243  0.4508
 6266SOL     OW19391   4.656   2.729   1.466  0.1703  0.0829  0.7046
 6266SOL    HW119392   4.613   2.813   1.448  2.1754  0.5032 -2.5105
 6266SOL    HW219393   4.584   2.666   1.472 -1.2472  1.7235  1.3773
 6267SOL     OW19394   0.752   2.050   2.552 -0.1848 -0.4346  0.0562
 6267SOL    HW119395   0.779   2.061   2.460 -0.2436  1.1586  0.2151
 6267SOL    HW219396   0.820   1.996   2.590 -0.9027 -2.3448 -1.2717
 6268SOL     OW19397   2.819   1.736   3.924 -0.6938  0.6331  0.2184
 6268SOL    HW119398   2.778   1.805   3.977  0.9726  0.7814  1.3585
 6268SOL    HW219399   2.819   1.659   3.982  0.9766  0.7471  0.3865
 6269SOL     OW19400   2.682   3.321   5.386 -0.2792  0.4163 -0.3730
 6269SOL    HW119401   2.586   3.330   5.383 -0.3480 -0.5273 -1.2443
 6269SOL    HW219402   2.697   3.252   5.449 -0.1402  0.9894  0.2215
 6270SOL     OW19403   0.481   2.661   5.731 -0.7878 -0.2792 -0.1424
 6270SOL    HW119404   0.464   2.754   5.742  2.1573  0.3460 -0.3976
 6270SOL    HW219405   0.532   2.655   5.650  1.9135 -1.6744  1.5760
 6271SOL     OW19406   6.692   2.781   4.817 -0.3848  0.2422 -0.5120
 6271SOL    HW119407   6.753   2.829   4.761  0.2980 -1.3895 -1.1929
 6271SOL    HW219408   6.745   2.752   4.890 -0.4864 -0.6199 -0.7777
 6272SOL     OW19409   5.067   4.107   0.316  0.1237 -0.3399 -0.1726
 6272SOL    HW119410   5.151   4.062   0.322  0.6251  0.3895 -1.5081
 6272SOL    HW219411   5.065   4.165   0.391  0.7743 -0.4248 -0.0859
 6273SOL     OW19412   5.454   1.564   3.577 -0.1717 -0.0725  0.7445
 6273SOL    HW119413   5.424   1.479   3.544  1.1506  0.3004 -1.5714
 6273SOL    HW219414   5.524   1.543   3.639 -0.6122 -0.7037  1.0257
 6274SOL     OW19415   6.823   5.061   6.405  0.0616 -0.5357 -0.3584
 6274SOL    HW119416   6.913   5.027   6.400  0.5605  0.5187  1.1026
 6274SOL    HW219417   6.794   5.037   6.493 -0.7196  0.0484 -0.4621
 6275SOL     OW19418   6.010   3.705   0.776  0.3355  0.7550 -0.1763
 6275SOL    HW119419   6.103   3.682   0.765  0.1644  0.7185 -1.7093
 6275SOL    HW219420   6.001   3.722   0.869  1.8359  0.5139  0.0394
 6276SOL     OW19421   0.079   4.726   5.030  0.1946 -0.2810 -0.2270
 6276SOL    HW119422   0.070   4.786   5.104  0.1294 -0.0110 -0.4557
 6276SOL    HW219423   0.164   4.684   5.044  0.3347  0.0175 -0.1791
 6277SOL     OW19424   1.434   3.488   4.955  0.4313  0.5108  0.4097
 6277SOL    HW119425   1.493   3.559   4.982  0.6769  0.5399 -0.1918
 6277SOL    HW219426   1.434   3.492   4.859 -0.8378  0.7491  0.4135
 6278SOL     OW19427   6.319   0.520   2.130 -0.2110  0.4526  0.0377
 6278SOL    HW119428   6.226   0.534   2.110 -0.0498  2.1210  0.3503
 6278SOL    HW219429   6.347   0.602   2.170  1.3261 -0.1589  0.2434
 6279SOL     OW19430   3.956   4.774   5.411 -0.5817 -0.4033  0.5669
 6279SOL    HW119431   3.935   4.807   5.323  2.4407  0.5497  0.1258
 6279SOL    HW219432   3.966   4.679   5.399 -1.1338 -0.4033  0.0811
 6280SOL     OW19433   0.404   3.563   7.195  0.9716  0.0906 -0.1771
 6280SOL    HW119434   0.399   3.496   7.264  0.5700 -0.5865 -0.8577
 6280SOL    HW219435   0.491   3.601   7.205  0.8158  0.1906  0.8893
 6281SOL     OW19436   6.744   1.298   7.244 -0.1365  0.0817  0.3819
 6281SOL    HW119437   6.749   1.339   7.330  1.0054  0.1773  0.2766
 6281SOL    HW219438   6.791   1.215   7.254 -1.0722 -0.4780  0.1793
 6282SOL     OW19439   3.077   5.301   2.727  0.0025  0.0323  0.7829
 6282SOL    HW119440   3.017   5.230   2.749  1.3618 -0.6062  2.5849
 6282SOL    HW219441   3.159   5.256   2.704 -0.4921  0.8304 -2.8203
 6283SOL     OW19442   4.796   6.304   0.948 -0.0084 -0.2273  0.5747
 6283SOL    HW119443   4.701   6.298   0.935  0.0346  2.0615 -1.0695
 6283SOL    HW219444   4.825   6.213   0.956 -2.5893 -0.8984  3.1619
 6284SOL     OW19445   5.349   2.346   1.832  0.0454  0.0533 -1.2391
 6284SOL    HW119446   5.330   2.274   1.772 -0.4099  0.8232 -2.0479
 6284SOL    HW219447   5.292   2.417   1.802 -1.2601  0.0217  1.0145
 6285SOL     OW19448   5.327   5.863   0.321 -0.2958  0.1279  0.3023
 6285SOL    HW119449   5.301   5.783   0.275  0.7725  1.9627 -3.7490
 6285SOL    HW219450   5.402   5.837   0.374  0.1863 -1.5555 -1.1518
 6286SOL     OW19451   0.851   1.974   1.733  0.1922  0.4406  0.4155
 6286SOL    HW119452   0.895   1.997   1.651 -1.3650 -0.2218 -0.6181
 6286SOL    HW219453   0.837   2.057   1.777 -0.9493  1.0320 -1.0225
 6287SOL     OW19454   0.793   3.597   0.562  0.3503  0.1620  0.5806
 6287SOL    HW119455   0.747   3.672   0.598 -1.1857 -0.4463 -0.0661
 6287SOL    HW219456   0.745   3.575   0.482  0.8138 -1.4535  0.7201
 6288SOL     OW19457   7.075   6.314   2.134 -0.6766  0.3779  0.4417
 6288SOL    HW119458   7.080   6.292   2.227 -1.1142 -0.3504  0.2928
 6288SOL    HW219459   7.139   6.256   2.092 -0.7033  0.4910  0.2432
 6289SOL     OW19460   5.536   4.627   4.771 -0.1614 -0.3360  0.1216
 6289SOL    HW119461   5.603   4.674   4.722 -0.1699 -0.7533 -0.2988
 6289SOL    HW219462   5.453   4.667   4.743 -0.0323  0.8223  1.3563
 6290SOL     OW19463   6.282   7.237   3.027 -0.1881 -0.7476  0.0050
 6290SOL    HW119464   6.322   7.298   2.965 -0.5704 -1.4266 -0.9349
 6290SOL    HW219465   6.306   7.150   2.994 -1.6270 -1.1446 -0.0599
 6291SOL     OW19466   6.963   3.224   1.870 -0.7548  0.2367  0.4956
 6291SOL    HW119467   6.965   3.288   1.942  0.5482  0.7238  0.0465
 6291SOL    HW219468   6.876   3.233   1.832 -1.3928  0.1226  1.8809
 6292SOL     OW19469   3.350   2.645   0.190 -0.4328 -0.0120  0.5444
 6292SOL    HW119470   3.380   2.587   0.120 -0.0750  1.5710 -0.6236
 6292SOL    HW219471   3.390   2.608   0.269  0.9401 -0.5531 -0.3729
 6293SOL     OW19472   2.245   3.584   6.810 -0.0571  0.3941 -0.0672
 6293SOL    HW119473   2.323   3.612   6.761  0.6095 -0.3844  0.5284
 6293SOL    HW219474   2.202   3.665   6.834  0.8943  0.8606  0.1048
 6294SOL     OW19475   0.543   5.721   6.068  0.0650  0.4490 -0.3720
 6294SOL    HW119476   0.520   5.658   5.999 -0.1092  0.8700 -0.6970
 6294SOL    HW219477   0.551   5.667   6.147 -0.2475  0.0414 -0.6140
 6295SOL     OW19478   0.360   5.254   0.271 -0.5049 -0.3599  0.8358
 6295SOL    HW119479   0.308   5.330   0.294 -0.8390 -0.1090 -0.6883
 6295SOL    HW219480   0.449   5.275   0.302 -0.7524  0.3243  1.0839
 6296SOL     OW19481   4.175   1.216   2.364 -0.0968  0.3212 -0.3001
 6296SOL    HW119482   4.104   1.266   2.405  0.1242 -0.4883  1.1091
 6296SOL    HW219483   4.255   1.261   2.393  0.0731 -0.4372  0.4131
 6297SOL     OW19484   5.150   4.538   6.897 -0.6361  0.6232 -0.4915
 6297SOL    HW119485   5.183   4.548   6.986  1.4553 -1.4077 -1.0022
 6297SOL    HW219486   5.193   4.607   6.847 -1.9923  1.9176  0.0660
 6298SOL     OW19487   3.308   7.046   0.998  0.1211  0.3136  0.1863
 6298SOL    HW119488   3.329   6.990   0.924  0.3146 -1.0590  1.2689
 6298SOL    HW219489   3.388   7.047   1.051 -0.1103  1.0546  0.5393
 6299SOL     OW19490   4.662   5.731   4.662 -0.1330 -0.3468 -0.2449
 6299SOL    HW119491   4.662   5.697   4.572  0.6124 -2.0002  0.3735
 6299SOL    HW219492   4.735   5.687   4.705 -1.7425 -1.1238  1.7635
 6300SOL     OW19493   3.398   1.980   6.324 -0.2125  0.5727  0.2042
 6300SOL    HW119494   3.388   2.049   6.258 -1.5252  0.0362 -0.1713
 6300SOL    HW219495   3.426   1.903   6.275 -0.8311  0.2726  0.3164
 6301SOL     OW19496   5.345   1.956   2.398  0.1145 -0.5575 -0.1894
 6301SOL    HW119497   5.361   1.881   2.341  0.4413 -0.6377  0.0038
 6301SOL    HW219498   5.290   1.920   2.469 -1.1273 -0.2262 -0.9814
 6302SOL     OW19499   3.606   0.812   2.439  0.4045  0.2785  0.2078
 6302SOL    HW119500   3.622   0.906   2.430 -0.9936  0.3513 -1.9318
 6302SOL    HW219501   3.683   0.771   2.399  0.7338  0.5098  0.5985
 6303SOL     OW19502   0.038   0.227   7.097 -0.3022  0.6520  0.1352
 6303SOL    HW119503   0.067   0.155   7.152  0.7788 -0.5635 -1.9617
 6303SOL    HW219504  -0.040   0.261   7.140  1.4804  0.8862  3.3332
 6304SOL     OW19505   6.055   1.113   5.690  0.2114 -0.0574  0.2036
 6304SOL    HW119506   6.084   1.201   5.667 -0.6643  0.3209  0.5418
 6304SOL    HW219507   6.124   1.080   5.748  0.4071  0.5037  0.2935
 6305SOL     OW19508   6.242   2.657   4.536  0.0116 -0.1202 -0.3004
 6305SOL    HW119509   6.271   2.596   4.604 -0.4676  0.8959  0.8145
 6305SOL    HW219510   6.241   2.742   4.578  1.4810  0.8253 -2.0867
 6306SOL     OW19511   1.070   5.903   4.202  0.2124  0.2211 -0.4691
 6306SOL    HW119512   1.142   5.901   4.265 -0.0043 -1.6378 -0.2326
 6306SOL    HW219513   1.007   5.839   4.235 -0.8950  0.7796 -1.4345
 6307SOL     OW19514   6.503   5.554   2.255 -0.3715 -0.5643  0.0179
 6307SOL    HW119515   6.478   5.646   2.247  1.8246  0.2109  1.6719
 6307SOL    HW219516   6.422   5.509   2.282 -0.4292  1.6105  3.7716
 6308SOL     OW19517   2.006   4.192   4.059  0.3722  0.2378 -0.0373
 6308SOL    HW119518   2.069   4.264   4.064  0.3611  0.1931  0.8432
 6308SOL    HW219519   2.035   4.131   4.127 -1.6786  1.0549  1.6476
 6309SOL     OW19520   1.025   5.423   5.186  0.1777 -0.3151  0.1335
 6309SOL    HW119521   1.038   5.517   5.198  0.2054  0.0375 -2.3525
 6309SOL    HW219522   1.084   5.382   5.248  0.8862  1.3137  0.5529
 6310SOL     OW19523   1.285   2.405   4.010  0.5679 -0.0366 -0.4261
 6310SOL    HW119524   1.214   2.436   3.954  0.0896 -0.6336 -0.1641
 6310SOL    HW219525   1.363   2.451   3.979 -0.1234  1.4479 -0.0222
 6311SOL     OW19526   3.911   5.205   4.433 -0.2009 -0.8343 -0.4127
 6311SOL    HW119527   4.001   5.233   4.418 -0.8907  2.2122  0.6967
 6311SOL    HW219528   3.908   5.182   4.526 -0.0009 -3.3698 -0.9984
 6312SOL     OW19529   1.699   1.606   6.277  0.2581  0.5780  0.1522
 6312SOL    HW119530   1.691   1.672   6.209 -0.3869 -0.3906 -0.7336
 6312SOL    HW219531   1.777   1.556   6.253 -1.4523 -1.4568 -1.4246
 6313SOL     OW19532   1.134   2.330   2.887  0.0157 -0.0341 -0.4291
 6313SOL    HW119533   1.205   2.266   2.894  0.1838  0.1783 -0.1820
 6313SOL    HW219534   1.156   2.397   2.951  1.1810  1.5830 -2.4552
 6314SOL     OW19535   3.745   1.049   4.457 -0.4447 -0.1182  0.3252
 6314SOL    HW119536   3.812   1.107   4.495  0.9293 -1.3274 -0.2203
 6314SOL    HW219537   3.670   1.106   4.444  1.1901  1.8088 -1.0762
 6315SOL     OW19538   3.219   1.159   3.554  0.5184  0.0196 -0.1729
 6315SOL    HW119539   3.207   1.064   3.554  1.9189 -0.1723  0.5207
 6315SOL    HW219540   3.282   1.176   3.485  0.6664  0.3866  0.0492
 6316SOL     OW19541   4.402   6.012   4.349 -0.0251 -0.3628 -0.0046
 6316SOL    HW119542   4.329   5.950   4.356 -0.1827 -0.2670 -0.8167
 6316SOL    HW219543   4.383   6.078   4.416 -0.7311 -0.2899 -0.2768
 6317SOL     OW19544   1.961   4.394   1.860 -0.1425 -0.0626  0.1352
 6317SOL    HW119545   2.034   4.332   1.858 -1.8125 -2.0163 -2.5939
 6317SOL    HW219546   2.002   4.480   1.856  2.1459 -1.0001  2.3009
 6318SOL     OW19547   2.817   1.780   3.370  0.3442  0.4548  0.0769
 6318SOL    HW119548   2.829   1.752   3.279 -0.1598  0.0116  0.1402
 6318SOL    HW219549   2.844   1.871   3.370  2.6767 -0.2078  0.0207
 6319SOL     OW19550   3.225   6.489   6.107  0.3625  0.1810  0.1128
 6319SOL    HW119551   3.299   6.448   6.152  0.9461  0.5847 -0.4732
 6319SOL    HW219552   3.156   6.423   6.109  0.8841 -0.3643  0.2670
 6320SOL     OW19553   2.640   4.780   2.391  0.0958 -0.3827  0.0590
 6320SOL    HW119554   2.718   4.725   2.387  0.9360  0.9010 -2.5086
 6320SOL    HW219555   2.646   4.825   2.475  2.0579 -0.4561 -0.0132
 6321SOL     OW19556   5.678   2.328   3.272 -0.8078  0.4371  0.6328
 6321SOL    HW119557   5.669   2.261   3.204 -0.5982  0.4950  0.5482
 6321SOL    HW219558   5.600   2.317   3.327 -0.5644 -0.1595  0.8660
 6322SOL     OW19559   6.072   0.382   6.867 -0.0156  0.2445  0.7205
 6322SOL    HW119560   6.033   0.300   6.838  0.5491  0.0297  0.5690
 6322SOL    HW219561   6.048   0.446   6.800 -0.2259  0.1427  0.6994
 6323SOL     OW19562   5.338   6.702   2.350 -0.0443  0.2928  0.4406
 6323SOL    HW119563   5.255   6.702   2.303  0.5634 -2.8235 -0.7505
 6323SOL    HW219564   5.399   6.745   2.289 -0.7286  2.5013  1.2807
 6324SOL     OW19565   6.978   1.992   3.125  0.1715 -0.1448  0.3879
 6324SOL    HW119566   6.968   1.939   3.046  0.6148 -0.2931  0.4279
 6324SOL    HW219567   6.899   1.974   3.176 -0.2687  0.2119 -0.1745
 6325SOL     OW19568   1.245   7.025   3.937  0.4096  0.3884 -0.7757
 6325SOL    HW119569   1.195   6.961   3.887  1.1847 -1.6710  0.9652
 6325SOL    HW219570   1.333   7.021   3.899  0.5836  0.0251 -0.3454
 6326SOL     OW19571   0.358   0.085   5.431  0.3214  0.3572 -0.8843
 6326SOL    HW119572   0.322   0.025   5.366 -0.1755 -0.1820 -0.1219
 6326SOL    HW219573   0.287   0.146   5.450  0.5448  0.6608 -1.0240
 6327SOL     OW19574   1.851   1.457   0.856  0.3628 -0.1082  0.5967
 6327SOL    HW119575   1.813   1.484   0.772 -0.3899 -1.2058  0.5775
 6327SOL    HW219576   1.776   1.447   0.914  0.9302  1.2152  1.5755
 6328SOL     OW19577   5.797   7.029   4.986  0.3733 -0.5027  0.3697
 6328SOL    HW119578   5.857   7.001   4.917  1.8182  0.3707  1.2538
 6328SOL    HW219579   5.842   7.101   5.030 -1.4878  0.4204  0.8256
 6329SOL     OW19580   4.355   0.594   4.324  0.3117 -0.2028 -0.0338
 6329SOL    HW119581   4.370   0.598   4.419 -0.1307  0.0991  0.0221
 6329SOL    HW219582   4.275   0.645   4.310 -1.1451 -2.4832 -0.2449
 6330SOL     OW19583   2.167   1.922   5.386 -0.2578  0.0024 -0.0480
 6330SOL    HW119584   2.100   1.912   5.452 -1.5768 -2.0033 -1.6148
 6330SOL    HW219585   2.122   1.905   5.303  1.2152  2.9823 -1.5380
 6331SOL     OW19586   2.787   5.424   4.432  0.4175  0.1519  0.5236
 6331SOL    HW119587   2.767   5.335   4.460 -0.8290  0.0633 -0.6212
 6331SOL    HW219588   2.703   5.469   4.433  0.7782  0.8598 -0.4765
 6332SOL     OW19589   1.269   6.217   2.076  0.2211  0.0553  0.0717
 6332SOL    HW119590   1.276   6.248   2.166 -0.4452  1.4827 -0.3574
 6332SOL    HW219591   1.319   6.280   2.024  0.4312 -0.6441 -0.5803
 6333SOL     OW19592   2.239   2.528   0.671 -0.0295  0.5782 -0.5684
 6333SOL    HW119593   2.217   2.446   0.716 -0.3862  1.1094  0.2512
 6333SOL    HW219594   2.306   2.503   0.608 -3.2254 -1.1660 -3.4238
 6334SOL     OW19595   3.784   7.183   2.714 -0.0881  0.2992 -0.1495
 6334SOL    HW119596   3.734   7.263   2.697 -1.6877 -0.7497 -0.5024
 6334SOL    HW219597   3.831   7.201   2.795  0.6336  2.0800 -0.9227
 6335SOL     OW19598   3.174   1.326   3.062  0.4508  0.5289  0.0274
 6335SOL    HW119599   3.260   1.357   3.091  0.5445  1.0059 -0.7339
 6335SOL    HW219600   3.155   1.379   2.984  0.7474 -1.5253 -1.4804
 6336SOL     OW19601   3.165   2.911   3.048 -0.3368  0.3854  0.2507
 6336SOL    HW119602   3.169   2.884   3.140 -1.2051 -0.3893  0.0717
 6336SOL    HW219603   3.253   2.942   3.028  0.0951 -0.2791  1.0935
 6337SOL     OW19604   1.388   1.916   3.151  1.0574  0.3330  0.4649
 6337SOL    HW119605   1.437   1.958   3.081  1.3588  0.6468  0.8636
 6337SOL    HW219606   1.333   1.985   3.188  0.6751  0.0963  0.3348
 6338SOL     OW19607   4.156   3.703   2.903  0.1330  0.0584  0.0784
 6338SOL    HW119608   4.185   3.685   2.814  1.6285 -0.3575  0.6266
 6338SOL    HW219609   4.084   3.642   2.918  0.9993 -1.0775 -0.2703
 6339SOL     OW19610   4.515   3.380   0.751  0.0944  0.2187 -0.1125
 6339SOL    HW119611   4.428   3.418   0.761 -0.4447 -1.0585  0.0866
 6339SOL    HW219612   4.571   3.454   0.727 -0.7735  1.3001  1.1091
 6340SOL     OW19613   6.624   3.344   2.973 -0.2462  0.1479 -0.6257
 6340SOL    HW119614   6.585   3.419   2.929 -2.0910 -0.4651 -0.0601
 6340SOL    HW219615   6.641   3.375   3.062 -0.4456  0.0744 -0.5623
 6341SOL     OW19616   6.574   0.815   5.323  0.7173  0.5504 -0.1516
 6341SOL    HW119617   6.516   0.805   5.398  0.6433  0.1540 -0.2590
 6341SOL    HW219618   6.626   0.735   5.322  0.0858  0.1287 -1.0603
 6342SOL     OW19619   0.430   2.613   6.676 -0.6428  0.2310 -0.2018
 6342SOL    HW119620   0.408   2.520   6.680 -1.6063  0.5258  1.2614
 6342SOL    HW219621   0.412   2.646   6.763  0.7424  1.5732 -0.4105
 6343SOL     OW19622   6.813   5.434   2.767 -0.1809 -0.4205  0.0110
 6343SOL    HW119623   6.825   5.446   2.673 -0.9805  0.4680  0.0159
 6343SOL    HW219624   6.723   5.462   2.783 -0.4623 -1.7547  0.8372
 6344SOL     OW19625   0.124   7.042   0.848 -0.2955 -0.3225  0.2778
 6344SOL    HW119626   0.137   6.952   0.819 -1.3265 -0.7628  1.1371
 6344SOL    HW219627   0.188   7.055   0.918 -1.1613 -0.8996  1.1951
 6345SOL     OW19628   5.993   2.560   1.076  0.0057 -0.1684 -0.3537
 6345SOL    HW119629   5.933   2.493   1.108  1.2479 -1.5386 -0.8603
 6345SOL    HW219630   5.989   2.553   0.981  3.3609 -2.5341 -0.4347
 6346SOL     OW19631   4.186   2.279   3.950 -0.4096 -0.3681 -0.5419
 6346SOL    HW119632   4.153   2.205   3.900 -0.9777  0.2025 -1.0195
 6346SOL    HW219633   4.279   2.282   3.930 -0.3827 -0.9571 -0.5140
 6347SOL     OW19634   0.292   5.911   3.569  0.2719  0.1154  0.2450
 6347SOL    HW119635   0.225   5.850   3.602 -2.1251  1.4770 -1.9336
 6347SOL    HW219636   0.271   5.995   3.611  1.3863  0.2871  0.4844
 6348SOL     OW19637   5.488   1.237   1.703  0.0689 -0.1454  0.0767
 6348SOL    HW119638   5.570   1.275   1.733  0.2032  0.3870 -0.9513
 6348SOL    HW219639   5.462   1.292   1.629 -0.7625 -0.8438 -0.1537
 6349SOL     OW19640   4.049   1.968   2.850  0.1958 -0.3536  0.0854
 6349SOL    HW119641   4.027   1.877   2.829  1.8251 -1.2691  2.1420
 6349SOL    HW219642   4.143   1.974   2.831  0.0987  0.9078 -0.0287
 6350SOL     OW19643   6.141   4.032   6.832  0.0487 -0.1608 -0.2889
 6350SOL    HW119644   6.120   4.062   6.743 -1.2297  0.5030  0.2079
 6350SOL    HW219645   6.137   3.937   6.827 -2.5963 -0.0819 -0.3864
 6351SOL     OW19646   5.116   6.288   6.810  0.2190 -0.2805 -0.4581
 6351SOL    HW119647   5.040   6.312   6.864  1.8713  1.5534  1.1048
 6351SOL    HW219648   5.191   6.300   6.868  1.8002 -1.2081 -2.2667
 6352SOL     OW19649   2.476   0.678   5.641  0.3125 -0.0845  0.1114
 6352SOL    HW119650   2.422   0.754   5.617  0.1918 -0.1926  0.0353
 6352SOL    HW219651   2.463   0.668   5.735  0.1157 -0.1727  0.0758
 6353SOL     OW19652   6.460   4.532   5.412  0.0234 -0.0954 -0.0610
 6353SOL    HW119653   6.515   4.455   5.399  0.2643  0.2803 -1.3978
 6353SOL    HW219654   6.371   4.500   5.403  0.0372 -0.5517  1.2704
 6354SOL     OW19655   5.795   2.390   0.596 -0.3796  0.0847 -0.1868
 6354SOL    HW119656   5.787   2.320   0.662 -0.0968  0.5494  0.3476
 6354SOL    HW219657   5.734   2.457   0.625 -1.0921 -0.1950 -1.0383
 6355SOL     OW19658   6.900   3.909   2.316  0.5499 -0.0326  0.1646
 6355SOL    HW119659   6.996   3.909   2.316  0.5521  0.2243 -0.2702
 6355SOL    HW219660   6.876   3.968   2.386  0.7073 -0.3954  0.5286
 6356SOL     OW19661   3.663   3.408   1.552  0.1937 -0.6371  0.1585
 6356SOL    HW119662   3.749   3.418   1.511  0.2158  1.3105  0.6471
 6356SOL    HW219663   3.683   3.392   1.645  0.0263  0.2208  0.3450
 6357SOL     OW19664   7.242   5.366   0.662  0.3732 -0.3621  0.2578
 6357SOL    HW119665   7.248   5.271   0.650 -2.2019 -0.5949  0.6148
 6357SOL    HW219666   7.168   5.393   0.607  1.1754  1.4837  0.0369
 6358SOL     OW19667   0.950   2.015   2.060 -0.4422  0.5162 -0.1997
 6358SOL    HW119668   0.895   1.993   2.136 -0.4843  0.8364 -0.1380
 6358SOL    HW219669   1.029   2.052   2.098  0.3546 -1.1108 -0.2380
 6359SOL     OW19670   6.799   1.551   0.136  0.2298  0.4564 -0.5806
 6359SOL    HW119671   6.782   1.597   0.219 -0.5203  0.3080 -0.6437
 6359SOL    HW219672   6.887   1.515   0.147 -0.0607  0.0059  0.3583
 6360SOL     OW19673   5.751   5.380   2.368  0.0218 -0.0297 -0.3603
 6360SOL    HW119674   5.837   5.349   2.398  0.1887  1.1007  0.3677
 6360SOL    HW219675   5.708   5.410   2.448 -0.4017  0.9572 -0.9563
 6361SOL     OW19676   6.034   2.550   0.179 -0.0900 -0.1020 -0.4611
 6361SOL    HW119677   6.048   2.614   0.249 -2.7101 -0.7099  0.6566
 6361SOL    HW219678   6.103   2.570   0.115  0.8135  2.0733  1.1134
 6362SOL     OW19679   6.570   0.404   4.561  0.2301  0.6154  0.2591
 6362SOL    HW119680   6.514   0.343   4.609  1.6521 -2.4382 -1.8233
 6362SOL    HW219681   6.659   0.378   4.584  0.9062  0.2047 -2.6100
 6363SOL     OW19682   0.921   6.970   3.140  0.2346  0.4987  0.1949
 6363SOL    HW119683   0.844   6.913   3.149  0.2883  0.4909  0.6201
 6363SOL    HW219684   0.896   7.050   3.187  1.4828 -0.4969  2.6668
 6364SOL     OW19685   2.172   1.054   2.257 -0.1878 -0.0438  0.3220
 6364SOL    HW119686   2.153   0.961   2.270 -1.6588  0.1091 -0.5146
 6364SOL    HW219687   2.112   1.099   2.316  0.1624  0.3937  0.3464
 6365SOL     OW19688   6.955   1.590   3.054 -0.7927 -0.4677 -0.1502
 6365SOL    HW119689   6.996   1.666   3.014 -0.1389 -0.7101  0.0451
 6365SOL    HW219690   6.906   1.549   2.982 -0.2099 -0.5043 -0.5341
 6366SOL     OW19691   4.662   3.226   5.077  0.0365  0.0394 -0.1247
 6366SOL    HW119692   4.743   3.249   5.122  0.9435 -0.2120 -1.5918
 6366SOL    HW219693   4.623   3.310   5.053 -1.4871  0.2419  2.8639
 6367SOL     OW19694   3.406   1.930   3.922 -0.5774 -0.1918  0.3007
 6367SOL    HW119695   3.487   1.980   3.910  0.0923 -1.4010 -0.3061
 6367SOL    HW219696   3.369   1.923   3.834  0.9516 -3.4380 -0.1303
 6368SOL     OW19697   0.411   3.710   4.900 -0.5431  0.1250  0.5043
 6368SOL    HW119698   0.326   3.665   4.892 -1.7065  2.0334  1.7070
 6368SOL    HW219699   0.426   3.749   4.814 -0.8136 -0.3580  0.2378
 6369SOL     OW19700   3.225   5.134   2.507 -0.0535  0.1657  0.3275
 6369SOL    HW119701   3.293   5.084   2.463 -0.7129  0.1951 -0.7349
 6369SOL    HW219702   3.268   5.170   2.584  0.2960 -2.4245  1.3817
 6370SOL     OW19703   3.927   2.699   4.233 -0.1373 -0.2175  0.2478
 6370SOL    HW119704   3.878   2.734   4.308  0.5357 -0.5903  0.8734
 6370SOL    HW219705   3.973   2.774   4.196 -1.4896  0.2153 -0.5947
 6371SOL     OW19706   7.126   6.614   3.460  0.5123  0.3654 -0.3355
 6371SOL    HW119707   7.102   6.633   3.370 -0.3797 -1.3777 -0.4859
 6371SOL    HW219708   7.094   6.688   3.510  0.0691  0.8354 -1.3142
 6372SOL     OW19709   4.820   2.924   5.393  0.1022 -0.2037  0.1898
 6372SOL    HW119710   4.892   2.971   5.352 -0.5838 -1.1512 -2.1916
 6372SOL    HW219711   4.834   2.833   5.367 -1.8678 -0.4139 -0.1751
 6373SOL     OW19712   0.659   4.231   4.255  0.1420  0.1870 -0.4521
 6373SOL    HW119713   0.708   4.167   4.203 -0.7912  0.5485 -1.8130
 6373SOL    HW219714   0.588   4.181   4.295 -0.0097  0.1821 -0.7255
 6374SOL     OW19715   5.708   5.298   5.541  0.1902  0.2725 -0.4543
 6374SOL    HW119716   5.623   5.325   5.576 -0.4203 -2.6130  0.4214
 6374SOL    HW219717   5.691   5.277   5.449  0.8087  3.3206 -1.3271
 6375SOL     OW19718   2.342   2.561   6.970  0.6060  0.4237 -0.2238
 6375SOL    HW119719   2.273   2.558   7.036  2.2332 -0.1162  1.4938
 6375SOL    HW219720   2.420   2.589   7.017  1.9157 -0.4361 -1.8055
 6376SOL     OW19721   7.058   3.075   4.502 -0.2013  0.6836 -0.0299
 6376SOL    HW119722   7.102   3.134   4.563 -0.0599 -1.6268  2.1929
 6376SOL    HW219723   6.973   3.057   4.543 -1.4508  1.6204 -2.1192
 6377SOL     OW19724   0.832   7.253   2.855 -0.0306 -0.2917  0.0095
 6377SOL    HW119725   0.822   7.275   2.763 -1.0340 -0.2628  0.1128
 6377SOL    HW219726   0.917   7.210   2.861  1.1398  1.8720 -0.5094
 6378SOL     OW19727   3.907   6.933   2.638 -0.2420 -0.1748 -0.5359
 6378SOL    HW119728   3.950   6.941   2.723  0.0300  1.7093 -0.8216
 6378SOL    HW219729   3.867   7.019   2.623  0.7097 -0.0933 -2.8291
 6379SOL     OW19730   4.790   6.102   7.049  0.4028  0.1602 -0.0279
 6379SOL    HW119731   4.883   6.086   7.064  0.0697 -1.2501  0.6770
 6379SOL    HW219732   4.768   6.047   6.974  0.1098  0.3519 -0.0824
 6380SOL     OW19733   6.481   5.709   6.392 -0.0521 -0.2104 -0.7588
 6380SOL    HW119734   6.532   5.630   6.375  0.1729 -0.0522 -0.8154
 6380SOL    HW219735   6.448   5.697   6.481 -0.1292 -0.4295 -0.8171
 6381SOL     OW19736   5.076   6.413   6.266  0.3907 -0.2767 -0.4533
 6381SOL    HW119737   5.113   6.398   6.353  0.9230 -0.1980 -0.6582
 6381SOL    HW219738   5.138   6.474   6.225 -0.6356  0.8330 -0.3630
 6382SOL     OW19739   5.784   7.168   6.139  0.5964  0.0920  0.0430
 6382SOL    HW119740   5.693   7.194   6.133  0.7205  0.2726 -1.2158
 6382SOL    HW219741   5.789   7.115   6.219 -0.3542  1.0476  0.7529
 6383SOL     OW19742   5.873   6.721   2.009  0.3890  0.2621 -0.6710
 6383SOL    HW119743   5.905   6.797   2.058  0.9767  0.1056 -0.8014
 6383SOL    HW219744   5.781   6.741   1.990  0.4561  0.8017 -0.4351
 6384SOL     OW19745   7.146   1.065   3.778  0.5638 -0.2791  0.2681
 6384SOL    HW119746   7.161   0.985   3.728 -1.5892 -0.6258  0.1587
 6384SOL    HW219747   7.147   1.135   3.713 -1.4392 -0.6462 -0.1890
 6385SOL     OW19748   5.062   5.125   4.272 -0.1641 -0.0878  0.6123
 6385SOL    HW119749   5.146   5.153   4.237 -1.0939  2.1531  0.1015
 6385SOL    HW219750   5.042   5.043   4.226  0.6341  0.5910 -0.9747
 6386SOL     OW19751   5.661   4.149   4.197 -0.5983 -0.7859 -0.3921
 6386SOL    HW119752   5.580   4.160   4.148 -0.1038  1.2479 -0.8005
 6386SOL    HW219753   5.661   4.220   4.260  1.3349 -0.1353 -1.0856
 6387SOL     OW19754   7.187   3.723   1.543 -0.0287 -0.4719  0.7553
 6387SOL    HW119755   7.139   3.738   1.624  1.7238  0.9921  1.5639
 6387SOL    HW219756   7.276   3.703   1.571  0.8332  0.9927 -0.8135
 6388SOL     OW19757   4.848   6.040   0.921  0.3572 -0.0154  0.1117
 6388SOL    HW119758   4.906   5.983   0.970  0.5853 -1.5391 -1.8643
 6388SOL    HW219759   4.877   6.031   0.830 -0.3379  2.3828 -0.3850
 6389SOL     OW19760   1.225   4.619   1.701  0.4615 -0.2474  0.3951
 6389SOL    HW119761   1.195   4.670   1.776  0.6667  1.1612 -0.4724
 6389SOL    HW219762   1.182   4.534   1.711 -1.6818  0.8535  0.6191
 6390SOL     OW19763   4.751   2.094   6.427  0.0486 -0.4531  0.3989
 6390SOL    HW119764   4.721   2.003   6.433  0.6114 -0.5602  1.7241
 6390SOL    HW219765   4.673   2.143   6.401 -0.6194 -1.1119  1.1278
 6391SOL     OW19766   1.665   3.594   4.026  0.1507  0.5776 -0.1867
 6391SOL    HW119767   1.621   3.624   3.947  0.7652  1.3228 -0.2504
 6391SOL    HW219768   1.743   3.649   4.032 -0.1975  0.9229  1.2583
 6392SOL     OW19769   5.779   0.020   3.094 -0.1310  0.0553 -0.3918
 6392SOL    HW119770   5.832   0.091   3.129 -0.4100 -0.7690  1.8023
 6392SOL    HW219771   5.841  -0.035   3.046  0.8596 -0.4249  1.3925
 6393SOL     OW19772   1.425   6.969   1.282 -0.2064 -0.0489  0.1112
 6393SOL    HW119773   1.420   7.009   1.368 -0.0043  0.7058 -0.2282
 6393SOL    HW219774   1.459   6.881   1.298  1.7824  0.7791  0.5896
 6394SOL     OW19775   2.445   0.791   7.111 -0.2520  0.2912 -0.2003
 6394SOL    HW119776   2.524   0.768   7.159 -0.6747 -0.2162  0.2621
 6394SOL    HW219777   2.434   0.885   7.127 -1.3635 -0.1938  2.1930
 6395SOL     OW19778   3.450   1.082   6.692 -0.0173 -0.4003 -0.5204
 6395SOL    HW119779   3.519   1.021   6.666  1.0996 -0.1438  1.6992
 6395SOL    HW219780   3.497   1.164   6.709 -1.2363  0.5102 -1.4939
 6396SOL     OW19781   3.837   3.830   4.042 -0.2848  0.0210 -0.2594
 6396SOL    HW119782   3.754   3.866   4.072 -0.0100  0.0438  0.5083
 6396SOL    HW219783   3.864   3.887   3.970 -1.4903 -0.6803 -1.2796
 6397SOL     OW19784   6.387   4.955   3.196  0.0684  0.3203  0.4166
 6397SOL    HW119785   6.375   4.975   3.103 -0.2016 -0.1611  0.3476
 6397SOL    HW219786   6.350   4.867   3.207 -0.2243  0.5215  1.0528
 6398SOL     OW19787   7.084   1.395   5.899  0.4150  0.1224 -0.8717
 6398SOL    HW119788   7.081   1.475   5.847 -0.3629  0.4053 -0.3984
 6398SOL    HW219789   7.160   1.406   5.956  0.0436  0.7256 -0.4861
 6399SOL     OW19790   4.814   6.375   6.196  0.0666 -1.0214 -0.0384
 6399SOL    HW119791   4.841   6.366   6.105 -0.2648  0.8952 -0.3448
 6399SOL    HW219792   4.897   6.382   6.245  0.2231 -0.7218 -0.3422
 6400SOL     OW19793   4.196   5.108   3.109 -0.1746  0.1590  0.1291
 6400SOL    HW119794   4.169   5.144   3.194  1.9844  0.6603  0.6238
 6400SOL    HW219795   4.144   5.029   3.100 -0.2334 -0.0588  2.0592
 6401SOL     OW19796   4.719   4.737   4.047  0.5178  0.5529 -0.2433
 6401SOL    HW119797   4.691   4.700   3.963  2.8495  0.9653 -1.2572
 6401SOL    HW219798   4.652   4.709   4.109  0.5421 -2.7026 -1.5679
 6402SOL     OW19799   6.957   6.102   1.520  0.1312  0.0959  0.5443
 6402SOL    HW119800   6.868   6.076   1.496  0.7071  0.6345 -2.3929
 6402SOL    HW219801   6.956   6.197   1.516  0.9757  0.0841 -0.0726
 6403SOL     OW19802   1.566   4.784   4.388 -0.1633  0.5264  0.7574
 6403SOL    HW119803   1.607   4.778   4.474  0.4980  0.4201  0.4378
 6403SOL    HW219804   1.638   4.804   4.328 -0.7221  1.2892  0.3246
 6404SOL     OW19805   4.969   5.109   5.096  0.7047  0.1001  0.4601
 6404SOL    HW119806   5.017   5.191   5.085 -0.7902  0.8206 -0.9264
 6404SOL    HW219807   5.010   5.048   5.035  0.6979  0.3195  0.2387
 6405SOL     OW19808   2.160   6.262   3.562  0.4841  0.5544 -0.2511
 6405SOL    HW119809   2.185   6.231   3.475 -0.2499  2.4801 -1.1631
 6405SOL    HW219810   2.072   6.227   3.576  0.9930 -0.5950  0.1573
 6406SOL     OW19811   6.521   1.273   6.201 -0.0500 -0.1025  0.5609
 6406SOL    HW119812   6.570   1.217   6.141 -0.8054  0.1201 -0.2812
 6406SOL    HW219813   6.534   1.234   6.287 -0.9980 -1.8746 -0.0786
 6407SOL     OW19814   3.841   1.564   5.837  0.3728 -0.6507 -0.1824
 6407SOL    HW119815   3.766   1.622   5.822  0.7334 -0.0982  0.1628
 6407SOL    HW219816   3.801   1.481   5.865 -0.1211 -0.4487 -0.2782
 6408SOL     OW19817   1.029   4.468   1.063  0.7057  0.1833  0.3185
 6408SOL    HW119818   0.991   4.473   0.975  0.2506 -0.0262  0.5014
 6408SOL    HW219819   1.045   4.559   1.087 -0.7435  0.3586  0.6947
 6409SOL     OW19820   6.361   0.263   2.266  0.5694 -0.3395 -0.0213
 6409SOL    HW119821   6.362   0.186   2.208 -0.0608 -0.1488 -0.2886
 6409SOL    HW219822   6.372   0.337   2.207 -2.5801  0.0384 -0.2087
 6410SOL     OW19823   3.084   0.812   2.566  0.0827  0.0630  0.4282
 6410SOL    HW119824   3.053   0.812   2.476 -0.9241 -0.4323  0.7688
 6410SOL    HW219825   3.178   0.828   2.559 -0.0254  0.2267 -0.6926
 6411SOL     OW19826   1.516   1.332   5.219 -0.1366  0.5789 -0.3804
 6411SOL    HW119827   1.469   1.372   5.146 -0.5408 -0.2662 -0.5892
 6411SOL    HW219828   1.597   1.382   5.226  0.5863 -0.2657 -2.3541
 6412SOL     OW19829   5.583   1.776   0.185  0.0401 -0.0298  0.2987
 6412SOL    HW119830   5.487   1.778   0.191 -0.0845 -0.2376 -1.3568
 6412SOL    HW219831   5.604   1.852   0.131  0.8093 -0.0696  0.5458
 6413SOL     OW19832   5.880   7.195   7.107 -0.0348 -0.4491 -0.0790
 6413SOL    HW119833   5.853   7.257   7.039  1.6323 -1.1070 -1.3852
 6413SOL    HW219834   5.859   7.238   7.189 -0.2409  1.2298 -0.9978
 6414SOL     OW19835   2.636   5.396   0.100 -0.3603  0.0099 -0.6922
 6414SOL    HW119836   2.672   5.323   0.049  0.9325  0.1586 -0.0031
 6414SOL    HW219837   2.614   5.462   0.034 -1.1638 -0.8190 -1.2842
 6415SOL     OW19838   0.846   5.551   1.070 -0.4803  0.3120 -0.4718
 6415SOL    HW119839   0.940   5.534   1.082 -0.1455  2.2183 -0.2609
 6415SOL    HW219840   0.811   5.552   1.159 -0.1389  2.5627 -0.3268
 6416SOL     OW19841   2.234   3.710   3.642 -0.3101 -0.8662 -0.1579
 6416SOL    HW119842   2.217   3.798   3.609 -1.1889 -0.6226  0.9081
 6416SOL    HW219843   2.320   3.716   3.684  0.5421 -1.0307 -1.8176
 6417SOL     OW19844   5.836   4.363   0.491 -0.2126  0.1765 -0.1770
 6417SOL    HW119845   5.850   4.306   0.415 -0.6875  0.7204 -0.6663
 6417SOL    HW219846   5.847   4.304   0.566 -1.4741 -0.7279 -0.6925
 6418SOL     OW19847   3.996   4.502   1.624  0.0236 -0.4398 -0.4748
 6418SOL    HW119848   3.921   4.557   1.602 -0.2687 -1.3380 -1.7578
 6418SOL    HW219849   4.071   4.561   1.616 -0.2776 -0.2186 -1.9058
 6419SOL     OW19850   4.593   3.910   6.525 -0.1101 -0.2039 -0.5174
 6419SOL    HW119851   4.657   3.855   6.480 -0.0530  0.2136 -0.9522
 6419SOL    HW219852   4.509   3.870   6.505  0.0522 -1.0562  0.4840
 6420SOL     OW19853   3.380   2.717   6.721  0.0984  0.0003 -0.0103
 6420SOL    HW119854   3.339   2.658   6.657 -1.4875  0.2221  0.7702
 6420SOL    HW219855   3.319   2.791   6.728  2.6561  2.4364 -1.9492
 6421SOL     OW19856   2.294   5.840   5.858  0.5917 -0.2799 -0.3039
 6421SOL    HW119857   2.303   5.922   5.906 -1.1702  0.1855 -0.7533
 6421SOL    HW219858   2.277   5.867   5.768 -2.1946 -1.1261 -0.0553
 6422SOL     OW19859   5.565   3.149   5.253  0.4547  0.3979 -0.0058
 6422SOL    HW119860   5.642   3.096   5.235 -0.0719  0.0531 -1.3726
 6422SOL    HW219861   5.588   3.236   5.221  0.4161  0.3740 -0.1020
 6423SOL     OW19862   1.764   2.997   2.335  0.1667  0.1038  0.2303
 6423SOL    HW119863   1.809   2.932   2.280 -0.7267  0.9238 -1.5317
 6423SOL    HW219864   1.835   3.047   2.376  0.8930  0.4347 -1.3741
 6424SOL     OW19865   7.123   0.400   2.763 -0.5177 -0.3873 -0.1140
 6424SOL    HW119866   7.086   0.461   2.826  1.8045 -1.1032  2.0712
 6424SOL    HW219867   7.137   0.320   2.814  3.0238 -0.4405 -1.0301
 6425SOL     OW19868   6.708   2.997   0.766 -0.1747  0.1281  0.3961
 6425SOL    HW119869   6.729   2.911   0.802  0.4191  0.0289 -0.1729
 6425SOL    HW219870   6.753   3.059   0.823 -0.5689  0.0581  0.7819
 6426SOL     OW19871   6.722   3.986   4.466  0.1448  0.3443 -0.2278
 6426SOL    HW119872   6.779   4.003   4.541  0.3563  0.2887 -0.3757
 6426SOL    HW219873   6.782   3.963   4.395 -0.2158 -2.9785  0.4821
 6427SOL     OW19874   4.486   5.060   5.369  0.3632 -0.5165 -0.6299
 6427SOL    HW119875   4.449   4.972   5.383 -0.3570  0.0477  1.1870
 6427SOL    HW219876   4.411   5.113   5.341  0.4422 -0.0920 -0.0400
 6428SOL     OW19877   6.794   6.203   2.046 -0.2530 -0.3952  0.0458
 6428SOL    HW119878   6.845   6.237   2.120 -2.1174 -0.8798  1.5873
 6428SOL    HW219879   6.828   6.251   1.970 -0.5021  2.5134  1.6800
 6429SOL     OW19880   5.627   3.812   0.358  0.3757  0.1791  0.1203
 6429SOL    HW119881   5.685   3.756   0.408 -0.1060 -0.1457  0.3217
 6429SOL    HW219882   5.596   3.757   0.286  0.6353  0.4748 -0.2189
 6430SOL     OW19883   3.522   3.636   6.678 -0.1533 -0.4632  0.1647
 6430SOL    HW119884   3.489   3.724   6.694  2.0790  0.5248 -0.4162
 6430SOL    HW219885   3.618   3.646   6.679  0.1390 -3.0053  0.8052
 6431SOL     OW19886   3.418   2.762   2.844 -0.0987 -0.0527 -0.0651
 6431SOL    HW119887   3.440   2.769   2.751  0.0569  0.8315  0.0374
 6431SOL    HW219888   3.436   2.849   2.879 -0.2030 -0.3760  0.7842
 6432SOL     OW19889   6.899   5.598   1.116 -0.6306  0.1765  0.6540
 6432SOL    HW119890   6.950   5.654   1.174  0.1855 -0.0085  0.1149
 6432SOL    HW219891   6.926   5.509   1.138 -1.3518  0.0249  0.9629
 6433SOL     OW19892   7.104   2.796   5.150 -0.1900 -0.3351 -0.7984
 6433SOL    HW119893   7.151   2.745   5.085 -0.2803 -1.4972  0.0303
 6433SOL    HW219894   7.057   2.862   5.100 -0.1922 -1.1647 -1.8981
 6434SOL     OW19895   5.142   3.213   1.685  0.4690  0.2716 -0.5710
 6434SOL    HW119896   5.197   3.287   1.714 -1.3317  1.3318  0.2044
 6434SOL    HW219897   5.164   3.203   1.592  1.4502  1.1310 -0.4497
 6435SOL     OW19898   2.229   3.646   0.559 -0.6141 -0.0067  0.7300
 6435SOL    HW119899   2.251   3.647   0.652  1.1285  0.5120  0.3275
 6435SOL    HW219900   2.235   3.554   0.534  1.4999  0.1391  0.5698
 6436SOL     OW19901   3.137   2.317   3.209 -0.3874 -0.1626 -0.3595
 6436SOL    HW119902   3.044   2.333   3.196 -0.0816  1.5271 -0.6011
 6436SOL    HW219903   3.144   2.282   3.298 -1.2812 -0.7238 -0.5053
 6437SOL     OW19904   3.357   1.189   0.653 -0.9373  0.1112  0.5216
 6437SOL    HW119905   3.340   1.202   0.560 -0.5208  0.3482  0.4784
 6437SOL    HW219906   3.368   1.094   0.663 -1.1822  0.0665  0.3642
 6438SOL     OW19907   2.659   7.033   2.434  0.4028 -0.1909  0.2468
 6438SOL    HW119908   2.586   7.094   2.446  0.2137 -0.2935 -0.3576
 6438SOL    HW219909   2.620   6.957   2.390  1.0123  0.0551 -0.7419
 6439SOL     OW19910   0.726   4.421   0.309  0.4581 -0.0595  0.0488
 6439SOL    HW119911   0.722   4.329   0.334  0.2016  0.1915  0.9569
 6439SOL    HW219912   0.642   4.438   0.265  0.0442  0.0157  0.8612
 6440SOL     OW19913   3.894   4.509   0.035  0.1609 -0.7498  0.2017
 6440SOL    HW119914   3.823   4.485  -0.024 -0.4595 -2.1421  1.4819
 6440SOL    HW219915   3.914   4.600   0.014 -1.9257 -0.3881 -0.2503
 6441SOL     OW19916   4.476   3.429   4.020  0.6304 -0.0356  0.3552
 6441SOL    HW119917   4.543   3.468   4.076  0.6634  0.6982 -0.2052
 6441SOL    HW219918   4.409   3.398   4.082  0.9913  0.1587  0.8481
 6442SOL     OW19919   5.293   5.208   0.137  0.0869 -0.4696 -0.0364
 6442SOL    HW119920   5.220   5.193   0.197  1.2343 -1.8710  1.0415
 6442SOL    HW219921   5.344   5.277   0.178  0.4381 -0.8749  0.2152
 6443SOL     OW19922   0.256   2.424   3.467  0.0890  0.6544  0.4179
 6443SOL    HW119923   0.222   2.337   3.448 -1.2186  1.1410  0.4633
 6443SOL    HW219924   0.190   2.484   3.432  0.6219  1.6203  1.0229
 6444SOL     OW19925   4.791   4.235   2.232  0.4501 -0.2990  0.4390
 6444SOL    HW119926   4.697   4.253   2.232  0.2344 -1.3661  0.7450
 6444SOL    HW219927   4.807   4.197   2.319  0.9416 -1.1636 -0.0230
 6445SOL     OW19928   0.643   6.884   0.746  0.1700 -0.0849 -1.0257
 6445SOL    HW119929   0.588   6.938   0.690  0.9578 -0.5859 -2.3115
 6445SOL    HW219930   0.664   6.940   0.820 -1.3429  0.3994 -0.9484
 6446SOL     OW19931   5.422   4.986   0.021 -0.6595  0.0826  0.1116
 6446SOL    HW119932   5.375   5.056   0.067 -1.0588 -0.1095 -0.0042
 6446SOL    HW219933   5.468   5.030  -0.050  0.4542  0.4769  1.0543
 6447SOL     OW19934   5.312   4.757   6.813 -0.5121 -0.2186  0.6994
 6447SOL    HW119935   5.300   4.842   6.770  1.4523  0.9321  2.3446
 6447SOL    HW219936   5.321   4.695   6.741 -2.9033  0.7895 -0.5340
 6448SOL     OW19937   2.693   0.103   1.052 -1.0497 -0.0138 -0.4414
 6448SOL    HW119938   2.632   0.045   1.099 -0.5232  0.5309  0.9485
 6448SOL    HW219939   2.748   0.043   1.002 -0.3269 -0.7586  1.2022
 6449SOL     OW19940   3.199   1.837   1.776  0.2588 -0.0217 -0.7252
 6449SOL    HW119941   3.276   1.818   1.830 -0.4939 -1.8931 -0.2702
 6449SOL    HW219942   3.125   1.826   1.836 -0.4290  0.6126 -1.4487
 6450SOL     OW19943   4.152   6.057   2.467  0.3585 -0.1136 -0.2447
 6450SOL    HW119944   4.143   6.148   2.439  0.9569  0.8708  2.6304
 6450SOL    HW219945   4.247   6.041   2.466  0.2264 -0.9091 -1.2875
 6451SOL     OW19946   2.624   3.459   2.912  0.4043  0.0906 -1.0288
 6451SOL    HW119947   2.675   3.474   2.833  0.0324 -1.0759 -1.5084
 6451SOL    HW219948   2.542   3.505   2.897  0.9172  1.1463 -0.6675
 6452SOL     OW19949   6.895   4.039   1.246 -0.3851  0.6006 -0.1819
 6452SOL    HW119950   6.985   4.061   1.270 -0.9715  0.9774  1.7368
 6452SOL    HW219951   6.865   3.981   1.316 -1.1696 -0.7529 -1.5842
 6453SOL     OW19952   4.278   2.773   0.252 -0.3715 -0.6169  0.2309
 6453SOL    HW119953   4.194   2.785   0.296 -0.0148  0.6824  0.5868
 6453SOL    HW219954   4.343   2.803   0.315  0.1878  0.6852 -0.9292
 6454SOL     OW19955   1.651   1.880   4.666  0.0524 -0.3573  0.6806
 6454SOL    HW119956   1.686   1.823   4.597 -0.1743 -0.3997  0.5996
 6454SOL    HW219957   1.564   1.844   4.684 -0.3829  0.4035  0.1241
 6455SOL     OW19958   4.441   3.954   4.981  0.2983  0.2093 -0.1069
 6455SOL    HW119959   4.370   4.008   5.017 -0.4665 -0.6499 -0.3121
 6455SOL    HW219960   4.470   3.901   5.055 -2.4504 -2.8333 -1.0613
 6456SOL     OW19961   2.502   0.100   1.775  0.2455 -0.0747 -1.1150
 6456SOL    HW119962   2.498   0.092   1.870 -0.4340 -0.5084 -1.1799
 6456SOL    HW219963   2.533   0.189   1.760  0.7816 -0.1485 -0.4838
 6457SOL     OW19964   5.410   1.998   1.321 -0.4523 -0.1723 -0.2560
 6457SOL    HW119965   5.430   1.922   1.375  1.7334 -0.7875 -1.8659
 6457SOL    HW219966   5.318   1.986   1.295 -0.5134 -1.5459  0.5810
 6458SOL     OW19967   2.834   3.693   5.923 -0.2416  0.5358  0.7043
 6458SOL    HW119968   2.787   3.627   5.872  0.0353  0.1394  0.9596
 6458SOL    HW219969   2.832   3.772   5.869 -0.6027  0.3261  0.4133
 6459SOL     OW19970   3.470   3.925   0.565  0.0061  0.2932 -0.2226
 6459SOL    HW119971   3.521   3.847   0.540 -1.8940 -1.0485 -0.0275
 6459SOL    HW219972   3.515   3.958   0.643  0.4463 -0.9990  0.0874
 6460SOL     OW19973   0.668   2.564   0.133  0.6518  0.2687  0.1437
 6460SOL    HW119974   0.709   2.502   0.193  3.2680  0.8548 -0.9662
 6460SOL    HW219975   0.736   2.630   0.117 -0.9614  1.6289 -1.2510
 6461SOL     OW19976   0.532   6.889   5.562 -0.0636 -0.5212 -0.4066
 6461SOL    HW119977   0.463   6.955   5.565  1.6818  1.3254  0.7685
 6461SOL    HW219978   0.488   6.806   5.580 -1.6372  0.9113  2.6219
 6462SOL     OW19979   4.123   0.794   1.629 -0.0202 -0.1382 -0.3851
 6462SOL    HW119980   4.120   0.883   1.662  0.8292 -0.2745  0.0602
 6462SOL    HW219981   4.106   0.739   1.705  2.3037 -0.4694 -0.0684
 6463SOL     OW19982   7.186   3.776   2.251  0.0218 -0.2284  0.1490
 6463SOL    HW119983   7.264   3.793   2.198 -0.4761  0.3541 -0.4061
 6463SOL    HW219984   7.170   3.858   2.297 -1.1446  0.1411 -0.8969
 6464SOL     OW19985   3.059   5.843   7.149 -0.0737 -0.2203  0.3793
 6464SOL    HW119986   2.998   5.893   7.203  1.5677  1.4861  0.6991
 6464SOL    HW219987   3.127   5.813   7.210  0.5773 -0.2297 -0.3316
 6465SOL     OW19988   2.843   1.834   5.719 -0.3980  0.2353 -0.3666
 6465SOL    HW119989   2.772   1.854   5.659 -0.2181 -0.1655 -0.7144
 6465SOL    HW219990   2.806   1.850   5.806 -1.0593 -0.4286 -0.5235
 6466SOL     OW19991   6.625   3.100   4.439 -0.2710 -0.4830 -0.2718
 6466SOL    HW119992   6.595   3.125   4.352 -0.9460 -1.6774 -0.3970
 6466SOL    HW219993   6.547   3.108   4.494  0.5872  2.1130  0.6405
 6467SOL     OW19994   6.564   6.903   0.915 -0.1289 -0.1613 -0.3995
 6467SOL    HW119995   6.505   6.973   0.888 -0.3474 -0.3288 -0.3603
 6467SOL    HW219996   6.643   6.915   0.862 -0.6826 -0.6822 -1.3525
 6468SOL     OW19997   2.685   6.938   1.285  0.2901 -0.4652 -0.3926
 6468SOL    HW119998   2.720   6.848   1.283 -1.1966 -1.0907  0.5879
 6468SOL    HW219999   2.628   6.939   1.362 -1.0242  0.8324 -1.3722
 6469SOL     OW20000   0.712   0.593   6.449  0.5112 -0.2941 -0.5916
 6469SOL    HW120001   0.617   0.585   6.443  0.5043 -0.2763 -0.5113
 6469SOL    HW220002   0.742   0.597   6.358  0.3905  0.2180 -0.6100
 6470SOL     OW20003   5.110   5.421   2.634  0.4876 -0.2034  0.6723
 6470SOL    HW120004   5.097   5.515   2.649 -0.6125 -0.3657  0.7600
 6470SOL    HW220005   5.051   5.378   2.696 -1.4718 -0.9149 -1.5743
 6471SOL     OW20006   3.659   6.085   3.337  0.1634  0.1601 -0.1174
 6471SOL    HW120007   3.720   6.044   3.275 -0.8018  0.3423 -1.2203
 6471SOL    HW220008   3.639   6.017   3.401 -1.8191 -1.3386 -2.2015
 6472SOL     OW20009   5.406   4.708   0.075  0.2240  0.0911  0.1706
 6472SOL    HW120010   5.496   4.685   0.052  0.1912 -0.2609  0.4013
 6472SOL    HW220011   5.401   4.802   0.057  0.5918  0.0809  0.0058
 6473SOL     OW20012   0.992   1.503   0.968 -0.7816  0.1216  0.5709
 6473SOL    HW120013   0.904   1.484   0.935 -0.1205 -1.0063 -0.5955
 6473SOL    HW220014   1.007   1.437   1.035  0.1520 -1.3108 -1.0207
 6474SOL     OW20015   6.518   1.164   1.404 -0.0899 -0.2271  0.4138
 6474SOL    HW120016   6.522   1.231   1.472  0.3306  0.1271  0.0513
 6474SOL    HW220017   6.542   1.211   1.324  3.9563 -1.6104  0.7368
 6475SOL     OW20018   6.229   4.485   1.905  0.7258  0.1600  0.1438
 6475SOL    HW120019   6.190   4.571   1.891  1.6945  0.7487  0.9975
 6475SOL    HW220020   6.301   4.480   1.841  0.3007 -0.2525 -0.3033
 6476SOL     OW20021   1.668   5.981   5.861 -0.3464 -0.5102  0.0419
 6476SOL    HW120022   1.698   5.951   5.946 -0.2534  0.5349  0.3912
 6476SOL    HW220023   1.688   5.909   5.801 -0.8862 -1.4513  0.9925
 6477SOL     OW20024   2.547   5.940   6.373  0.1260 -0.0280 -0.5077
 6477SOL    HW120025   2.532   5.962   6.465 -0.9733  2.0662 -1.1736
 6477SOL    HW220026   2.471   5.888   6.347 -0.1730  0.4405 -0.5737
 6478SOL     OW20027   4.346   1.922   5.847  0.0191  0.2319  0.2352
 6478SOL    HW120028   4.336   1.919   5.752  1.3430 -1.1690  0.1103
 6478SOL    HW220029   4.294   1.997   5.875  0.9608  1.6655 -1.7609
 6479SOL     OW20030   3.054   3.839   1.489 -0.0267 -0.0353 -0.7471
 6479SOL    HW120031   3.120   3.771   1.493 -0.2514 -0.1809  0.8714
 6479SOL    HW220032   2.974   3.794   1.461 -0.0818 -0.3709 -0.0609
 6480SOL     OW20033   5.664   3.312   2.409 -0.7893 -0.3314 -0.5635
 6480SOL    HW120034   5.592   3.271   2.457  0.9094 -1.7133  0.8816
 6480SOL    HW220035   5.667   3.267   2.325  1.0008 -3.1894  0.9710
 6481SOL     OW20036   1.290   5.466   3.870 -0.0791 -0.1346  0.3599
 6481SOL    HW120037   1.336   5.502   3.794  0.9826  0.7456  1.3870
 6481SOL    HW220038   1.221   5.412   3.834  0.0595  0.7405 -1.2381
 6482SOL     OW20039   6.705   2.057   1.592  0.1942 -0.2534  0.0403
 6482SOL    HW120040   6.624   2.062   1.541 -0.0368 -0.1810  0.4161
 6482SOL    HW220041   6.772   2.094   1.534  0.0468 -0.7504 -0.4503
 6483SOL     OW20042   2.248   3.817   4.836 -0.3834 -0.0165 -0.5169
 6483SOL    HW120043   2.312   3.883   4.861  1.9734 -1.9364 -1.2839
 6483SOL    HW220044   2.242   3.824   4.741  0.2803 -1.2499 -0.6546
 6484SOL     OW20045   2.438   3.953   1.346  0.3665 -0.1956 -0.0717
 6484SOL    HW120046   2.347   3.976   1.326 -0.2833 -0.8858  2.0147
 6484SOL    HW220047   2.484   4.037   1.344 -0.6312  0.3794  0.5281
 6485SOL     OW20048   4.127   3.126   4.545  0.0377  0.0722 -0.5049
 6485SOL    HW120049   4.141   3.106   4.453 -1.3456  0.4882 -0.8172
 6485SOL    HW220050   4.214   3.148   4.578  1.0978 -3.2200 -0.9021
 6486SOL     OW20051   4.152   0.270   6.936 -0.2977 -0.2104  0.4273
 6486SOL    HW120052   4.103   0.243   7.014 -1.0335  0.5654  0.2455
 6486SOL    HW220053   4.235   0.302   6.970 -0.2238 -0.8045  0.8111
 6487SOL     OW20054   4.836   2.737   4.538  0.4215  0.6788 -0.1895
 6487SOL    HW120055   4.901   2.807   4.544  1.6690 -0.3021 -1.8508
 6487SOL    HW220056   4.809   2.737   4.446  1.7083 -2.1139 -0.6102
 6488SOL     OW20057   4.467   0.530   4.577 -0.3843  0.0013 -0.4227
 6488SOL    HW120058   4.404   0.529   4.649  0.8871  1.6045  0.7461
 6488SOL    HW220059   4.537   0.471   4.605  0.8070  1.7216  0.3476
 6489SOL     OW20060   5.645   7.088   1.880 -0.0695 -0.4311 -0.1963
 6489SOL    HW120061   5.591   7.121   1.951  0.4215  0.7323 -0.3330
 6489SOL    HW220062   5.663   7.166   1.827  1.6114 -0.8212 -0.2186
 6490SOL     OW20063   4.476   6.111   0.742 -0.6230 -0.0595  1.2716
 6490SOL    HW120064   4.383   6.125   0.728 -0.9065 -1.2452  1.9298
 6490SOL    HW220065   4.513   6.104   0.654 -1.7652 -3.5091  1.0147
 6491SOL     OW20066   3.176   5.487   5.541 -0.7557 -0.3709 -0.4762
 6491SOL    HW120067   3.082   5.507   5.549 -0.9062 -0.9509 -0.7513
 6491SOL    HW220068   3.213   5.564   5.498 -1.1359 -0.2107 -0.5211
 6492SOL     OW20069   4.175   2.743   6.751 -0.3441 -0.6859  0.0861
 6492SOL    HW120070   4.116   2.672   6.777 -2.0865  0.3289 -1.0147
 6492SOL    HW220071   4.172   2.805   6.823 -1.7540  0.0421 -0.5857
 6493SOL     OW20072   7.032   3.884   2.691 -0.6714  0.0995  0.1710
 6493SOL    HW120073   6.956   3.925   2.648 -1.1077 -0.6352  0.2303
 6493SOL    HW220074   6.999   3.799   2.721  0.2542 -0.3302 -0.0318
 6494SOL     OW20075   2.729   4.130   2.132  0.3668 -0.3653  0.3499
 6494SOL    HW120076   2.681   4.166   2.207 -0.6050  0.0582 -0.4525
 6494SOL    HW220077   2.662   4.122   2.064  0.8673 -2.3662  0.0658
 6495SOL     OW20078   4.599   3.379   2.211 -0.2054 -0.7484  0.0777
 6495SOL    HW120079   4.546   3.351   2.137  0.0851  0.9903 -0.8418
 6495SOL    HW220080   4.629   3.298   2.252 -1.1743 -1.7366 -1.1237
 6496SOL     OW20081   0.398   1.958   5.876  0.0375 -0.2957  0.3893
 6496SOL    HW120082   0.312   1.968   5.917 -0.9056 -1.9177 -1.0865
 6496SOL    HW220083   0.407   2.036   5.821 -0.1103  0.2910  1.1890
 6497SOL     OW20084   5.313   1.818   0.519  1.5469  0.3649 -0.0279
 6497SOL    HW120085   5.341   1.899   0.475  0.5470  1.5822  1.5059
 6497SOL    HW220086   5.235   1.844   0.568  1.6017 -1.3920  1.0125
 6498SOL     OW20087   5.183   0.294   5.648 -0.6087 -0.5695 -0.2050
 6498SOL    HW120088   5.261   0.349   5.661 -0.6444 -0.5460 -0.0850
 6498SOL    HW220089   5.119   0.353   5.609 -1.2453 -0.0511  1.5525
 6499SOL     OW20090   0.996   1.747   6.308  0.5260  0.0009  0.3964
 6499SOL    HW120091   0.948   1.730   6.389  1.2259 -0.9562  0.6175
 6499SOL    HW220092   1.048   1.668   6.294  1.5779  0.7753 -0.1631
 6500SOL     OW20093   0.623   4.567   5.336  0.8108 -0.0413 -0.0214
 6500SOL    HW120094   0.586   4.488   5.375  0.4464 -0.8448 -1.9508
 6500SOL    HW220095   0.612   4.555   5.242  1.0098  2.1909 -0.3552
 6501SOL     OW20096   4.922   4.803   0.887  0.1395  0.3672 -0.1686
 6501SOL    HW120097   4.978   4.771   0.816 -0.5985  0.5482 -0.8396
 6501SOL    HW220098   4.836   4.766   0.868  0.1648 -0.4201  1.1965
 6502SOL     OW20099   6.930   1.717   4.638 -0.1914 -0.0877  0.3350
 6502SOL    HW120100   6.848   1.760   4.617  0.6767  0.4414 -2.0767
 6502SOL    HW220101   6.967   1.691   4.554 -0.0446 -4.4564  1.5758
 6503SOL     OW20102   6.513   6.112   5.415 -0.0664 -0.4026  0.4470
 6503SOL    HW120103   6.438   6.052   5.406 -0.4200 -0.0056  0.7336
 6503SOL    HW220104   6.590   6.054   5.414 -0.4489 -0.9556  1.6305
 6504SOL     OW20105   6.537   4.704   3.534  0.0827 -0.3639 -0.2736
 6504SOL    HW120106   6.613   4.760   3.551  0.0565  0.0776 -1.5762
 6504SOL    HW220107   6.468   4.739   3.590  1.1744 -1.5440  1.8701
 6505SOL     OW20108   1.745   2.100   6.579  0.6305 -0.5879  0.0496
 6505SOL    HW120109   1.729   2.005   6.579  0.1112 -0.5122  1.6553
 6505SOL    HW220110   1.805   2.114   6.506  1.1580 -2.2404  0.1412
 6506SOL     OW20111   6.270   6.810   5.803  0.4181 -0.0913 -0.3682
 6506SOL    HW120112   6.212   6.780   5.873  1.4161 -0.8506  0.1279
 6506SOL    HW220113   6.222   6.790   5.723  0.5726 -1.9593 -0.0068
 6507SOL     OW20114   4.480   2.055   1.225 -0.0700  0.0083 -0.6205
 6507SOL    HW120115   4.396   2.101   1.228  1.8512  3.7692 -1.6880
 6507SOL    HW220116   4.506   2.057   1.133  2.5503  1.5137  0.1066
 6508SOL     OW20117   0.498   2.860   5.167  0.0858 -0.2193 -0.3038
 6508SOL    HW120118   0.442   2.813   5.228 -0.1641  0.7189  0.2115
 6508SOL    HW220119   0.474   2.827   5.080 -0.2684 -0.8303  0.0241
 6509SOL     OW20120   3.915   6.197   1.915  0.6517  0.2339  0.1934
 6509SOL    HW120121   3.973   6.158   1.851 -0.8606 -1.4504 -0.1976
 6509SOL    HW220122   3.934   6.152   1.997 -0.3285 -0.5708 -0.0130
 6510SOL     OW20123   4.991   4.856   4.663  0.2104 -0.1077  0.4275
 6510SOL    HW120124   5.024   4.915   4.595  1.3193  0.6228  1.5874
 6510SOL    HW220125   5.015   4.768   4.632  1.7673  0.2968  0.4271
 6511SOL     OW20126   4.762   0.012   6.197 -0.4135  0.2383  0.2524
 6511SOL    HW120127   4.810  -0.017   6.274 -1.7253 -1.7934  0.3379
 6511SOL    HW220128   4.670   0.008   6.223 -0.8212  0.5151 -1.0933
 6512SOL     OW20129   4.875   5.111   6.764 -0.5452  0.0246  0.2852
 6512SOL    HW120130   4.841   5.165   6.835 -0.3809 -0.6122  0.8544
 6512SOL    HW220131   4.922   5.041   6.808 -0.8134 -0.6201 -0.4455
 6513SOL     OW20132   6.552   1.343   1.884 -0.0180  0.0136 -0.3131
 6513SOL    HW120133   6.503   1.348   1.966 -0.7546 -1.6696 -0.6066
 6513SOL    HW220134   6.605   1.422   1.882 -0.0562  0.1203  1.7440
 6514SOL     OW20135   3.764   1.760   5.433  0.1900 -0.5284  0.3112
 6514SOL    HW120136   3.802   1.740   5.348 -1.6527 -1.4276 -0.3198
 6514SOL    HW220137   3.734   1.850   5.426 -2.2641 -1.3996 -0.8878
 6515SOL     OW20138   2.817   5.101   2.396 -0.2303 -0.1040  0.3333
 6515SOL    HW120139   2.788   5.106   2.487  0.0413 -0.7947  0.4632
 6515SOL    HW220140   2.868   5.020   2.392 -0.9300 -0.5023 -0.6268
 6516SOL     OW20141   6.779   3.117   3.174 -0.3841 -0.2396  0.5904
 6516SOL    HW120142   6.722   3.191   3.151 -0.2406 -0.3206 -0.0381
 6516SOL    HW220143   6.781   3.063   3.095 -0.3074 -0.7999  0.9772
 6517SOL     OW20144   4.529   2.074   0.891  0.4261  0.2694  0.4583
 6517SOL    HW120145   4.478   1.999   0.920  1.0766 -0.4476 -0.2241
 6517SOL    HW220146   4.482   2.108   0.815  1.5253 -1.0492 -0.8330
 6518SOL     OW20147   1.621   4.597   1.298  0.3220  0.2245 -0.0206
 6518SOL    HW120148   1.598   4.568   1.210  1.8296  1.5501 -0.8802
 6518SOL    HW220149   1.713   4.571   1.308  0.8467  2.1116  0.2689
 6519SOL     OW20150   3.553   3.466   0.791  0.3875 -0.4508 -0.3818
 6519SOL    HW120151   3.514   3.549   0.818 -0.3419 -1.3559  1.3888
 6519SOL    HW220152   3.480   3.416   0.756  0.3396 -1.3080  0.9109
 6520SOL     OW20153   5.927   3.354   1.261 -0.1165 -0.4111 -0.0317
 6520SOL    HW120154   5.931   3.405   1.180 -0.5987  0.1822  0.3020
 6520SOL    HW220155   5.836   3.363   1.290 -0.6717 -2.9370 -0.8884
 6521SOL     OW20156   7.201   6.136   4.949  0.0091  0.2232 -0.1438
 6521SOL    HW120157   7.128   6.090   4.991  0.6364  0.0127  0.7110
 6521SOL    HW220158   7.171   6.149   4.859 -0.2701 -1.7012 -0.3624
 6522SOL     OW20159   1.810   7.209   1.187 -0.1652  0.7206 -0.4277
 6522SOL    HW120160   1.839   7.121   1.164  2.3010  1.2433  0.5093
 6522SOL    HW220161   1.748   7.233   1.118 -1.0418 -1.8140 -0.5677
 6523SOL     OW20162   5.060   4.273   3.294  0.1286  0.7214  0.2880
 6523SOL    HW120163   4.976   4.235   3.319  0.7491 -0.8830 -0.0422
 6523SOL    HW220164   5.066   4.353   3.347 -1.5723  0.8329  0.3506
 6524SOL     OW20165   1.909   6.982   2.709 -0.0079 -0.4195 -0.6594
 6524SOL    HW120166   1.965   7.025   2.774 -0.3939 -0.3864 -0.3454
 6524SOL    HW220167   1.926   7.029   2.627  0.2206 -0.2361 -0.5051
 6525SOL     OW20168   6.828   0.827   0.833  0.0225 -0.3164  0.3652
 6525SOL    HW120169   6.777   0.887   0.778 -1.6167 -1.5574  0.5049
 6525SOL    HW220170   6.843   0.876   0.914  1.6623  1.1762 -0.8056
 6526SOL     OW20171   0.398   5.391   1.748  0.4054 -0.3093  0.1057
 6526SOL    HW120172   0.351   5.308   1.749  0.2053 -0.2063 -0.4065
 6526SOL    HW220173   0.457   5.385   1.673  0.6063 -0.1058  0.2454
 6527SOL     OW20174   2.800   0.981   0.499  0.2474  0.1778 -0.0190
 6527SOL    HW120175   2.855   1.006   0.573  1.0597 -0.3966 -0.4175
 6527SOL    HW220176   2.860   0.937   0.438 -0.5467  0.0182 -0.6989
 6528SOL     OW20177   5.795   2.533   6.855 -0.0545 -0.2415 -0.0360
 6528SOL    HW120178   5.852   2.472   6.901 -0.1157  0.4338  0.9578
 6528SOL    HW220179   5.779   2.603   6.919  0.2344  0.9450 -1.2525
 6529SOL     OW20180   0.328   1.183   0.854 -0.6537 -0.2697  0.2758
 6529SOL    HW120181   0.354   1.096   0.825 -2.0721 -0.4402 -0.5388
 6529SOL    HW220182   0.378   1.243   0.799  0.2555 -0.5481  0.7763
 6530SOL     OW20183   2.780   3.937   0.776 -0.0872  0.2523  0.1265
 6530SOL    HW120184   2.794   3.845   0.797 -0.1399 -0.0443 -1.0666
 6530SOL    HW220185   2.685   3.945   0.768 -0.3779  1.3106  4.0822
 6531SOL     OW20186   1.943   5.089   4.188 -0.7289  0.5215  0.4054
 6531SOL    HW120187   1.853   5.120   4.199 -1.0145  0.0414 -0.4783
 6531SOL    HW220188   1.951   5.074   4.093  0.1005  0.0187  0.5528
 6532SOL     OW20189   5.945   1.469   5.074  0.0477 -0.6946  0.6234
 6532SOL    HW120190   6.025   1.469   5.022 -0.8184  0.6278 -0.7316
 6532SOL    HW220191   5.966   1.521   5.152  1.9668 -4.3087  2.6520
 6533SOL     OW20192   1.275   3.679   1.531 -0.2911 -0.0994 -0.0248
 6533SOL    HW120193   1.256   3.660   1.439 -2.4001  0.3821  0.2812
 6533SOL    HW220194   1.333   3.755   1.528  0.9175 -1.0318 -0.9834
 6534SOL     OW20195   3.163   0.139   3.611  0.3596  0.0262  0.7517
 6534SOL    HW120196   3.186   0.161   3.520 -1.2903  1.0863  0.5824
 6534SOL    HW220197   3.159   0.043   3.611 -2.6080  0.0888 -1.0795
 6535SOL     OW20198   5.122   1.223   0.781 -0.5867 -0.2300 -0.1537
 6535SOL    HW120199   5.214   1.236   0.802 -0.4666  0.6841 -1.2097
 6535SOL    HW220200   5.121   1.155   0.714 -0.7061 -0.4648  0.0849
 6536SOL     OW20201   4.426   2.792   4.690 -0.9016  0.3061  0.9234
 6536SOL    HW120202   4.380   2.708   4.686  0.2918 -0.4117  1.9309
 6536SOL    HW220203   4.450   2.801   4.782  1.9013  0.1374  0.2627
 6537SOL     OW20204   2.180   2.888   6.410 -0.2403  0.3244  0.4045
 6537SOL    HW120205   2.228   2.851   6.336 -0.9930  0.7321 -0.2965
 6537SOL    HW220206   2.210   2.979   6.415 -0.0157  0.2331  0.7554
 6538SOL     OW20207   0.358   3.768   3.589  0.4306 -0.4229  0.7058
 6538SOL    HW120208   0.369   3.828   3.663  0.9252 -1.4919  1.5101
 6538SOL    HW220209   0.340   3.825   3.514  0.6619  0.7106  1.5046
 6539SOL     OW20210   1.184   6.848   4.731 -1.0674  0.4857  0.3542
 6539SOL    HW120211   1.144   6.767   4.762 -2.4940  0.9592 -0.2153
 6539SOL    HW220212   1.189   6.903   4.809 -0.9655  0.2062  0.5472
 6540SOL     OW20213   5.278   3.315   0.788  0.8119 -0.5848 -0.7337
 6540SOL    HW120214   5.356   3.367   0.766  0.2853  0.6952  0.3560
 6540SOL    HW220215   5.206   3.377   0.783 -0.2349 -1.8833 -2.2481
 6541SOL     OW20216   2.094   4.634   7.051  0.3742 -0.2554  0.5054
 6541SOL    HW120217   2.103   4.665   7.141  0.2927  0.4389  0.2777
 6541SOL    HW220218   2.029   4.693   7.012  0.5564 -0.4309 -0.0636
 6542SOL     OW20219   3.016   1.014   0.184 -0.0020 -0.3600  0.1239
 6542SOL    HW120220   3.011   0.993   0.091 -0.9192 -0.6075  0.2308
 6542SOL    HW220221   3.104   0.986   0.209 -0.2084 -1.5042 -0.3738
 6543SOL     OW20222   6.641   3.809   6.331  0.3165 -0.8609 -0.3521
 6543SOL    HW120223   6.575   3.817   6.262 -1.2775 -0.3926  1.1897
 6543SOL    HW220224   6.622   3.724   6.371  0.2994 -0.4721  0.4609
 6544SOL     OW20225   3.314   6.177   6.428 -0.2273 -0.4041 -0.2492
 6544SOL    HW120226   3.320   6.097   6.481  2.2346 -0.1815 -0.1171
 6544SOL    HW220227   3.314   6.248   6.492 -0.8013 -0.2530 -0.4190
 6545SOL     OW20228   2.363   6.090   4.217 -0.7852  0.8664  0.0856
 6545SOL    HW120229   2.292   6.100   4.280 -1.1625 -1.4634  0.1009
 6545SOL    HW220230   2.397   6.002   4.233  1.9381  1.8281 -0.1381
 6546SOL     OW20231   6.272   6.353   6.545 -0.2096  0.2540 -0.1799
 6546SOL    HW120232   6.254   6.321   6.634  0.9579  1.2445  0.4336
 6546SOL    HW220233   6.286   6.274   6.493 -2.6617 -0.4080  0.1066
 6547SOL     OW20234   4.603   3.641   4.970  0.0071 -0.0600 -0.8513
 6547SOL    HW120235   4.591   3.717   5.028  2.8497  0.7617 -1.2366
 6547SOL    HW220236   4.583   3.674   4.883 -0.1651 -0.1440 -0.8431
 6548SOL     OW20237   4.548   4.319   5.147 -0.0537  0.2793 -0.2575
 6548SOL    HW120238   4.589   4.258   5.085  1.5307  0.8713  0.1965
 6548SOL    HW220239   4.613   4.331   5.216 -0.4034  2.3563 -0.2460
 6549SOL     OW20240   1.092   5.335   3.742 -0.0287 -0.1514  0.4698
 6549SOL    HW120241   1.029   5.406   3.747  0.8047  0.6893 -0.5505
 6549SOL    HW220242   1.041   5.258   3.718 -0.8662  0.1976  1.1306
 6550SOL     OW20243   0.918   2.345   6.237 -0.3775  0.2923 -0.0337
 6550SOL    HW120244   0.828   2.331   6.206  0.1941  1.2028 -2.1583
 6550SOL    HW220245   0.973   2.308   6.168  0.9190  2.0746  0.0165
 6551SOL     OW20246   3.910   2.891   7.084  0.4785 -0.2132  0.1615
 6551SOL    HW120247   3.904   2.949   7.160 -1.6481  0.1165 -0.2450
 6551SOL    HW220248   3.846   2.822   7.100  0.9953 -0.9143 -0.6962
 6552SOL     OW20249   1.846   6.076   2.651 -0.4157  0.2911 -0.4603
 6552SOL    HW120250   1.860   6.037   2.737 -1.5890  0.0809 -0.3581
 6552SOL    HW220251   1.872   6.007   2.589  3.0033  1.3697 -0.3109
 6553SOL     OW20252   1.559   7.034   4.712  0.2926 -0.2317  0.1520
 6553SOL    HW120253   1.481   7.022   4.657  0.9551  0.6850 -1.0256
 6553SOL    HW220254   1.624   7.074   4.653  1.0265  0.7988  1.6193
 6554SOL     OW20255   1.346   7.018   1.583  0.2047 -0.0170 -0.5671
 6554SOL    HW120256   1.258   7.054   1.579  0.4584  0.4872 -1.8452
 6554SOL    HW220257   1.350   6.972   1.667  0.0958  3.5560  1.4990
 6555SOL     OW20258   3.509   4.709   6.872 -0.2441 -0.5183 -0.3547
 6555SOL    HW120259   3.566   4.706   6.949 -1.1384  0.4573  0.3484
 6555SOL    HW220260   3.423   4.733   6.906 -0.0492  2.7384 -1.9966
 6556SOL     OW20261   1.362   1.166   2.518  0.0704 -0.4435  0.4698
 6556SOL    HW120262   1.318   1.247   2.547 -2.1211 -2.0475  1.8186
 6556SOL    HW220263   1.442   1.163   2.570  0.4162  1.0967  0.0613
 6557SOL     OW20264   5.659   2.969   0.254  0.3083  0.4748  0.0623
 6557SOL    HW120265   5.649   3.044   0.312 -0.0649  1.0578 -0.7462
 6557SOL    HW220266   5.748   2.976   0.220  1.5752 -1.4826  2.7696
 6558SOL     OW20267   2.602   1.314   3.494 -0.1386  0.1575 -0.0558
 6558SOL    HW120268   2.639   1.303   3.581 -0.5391  0.8114  0.1931
 6558SOL    HW220269   2.594   1.408   3.482  0.1644  0.0869 -0.9081
 6559SOL     OW20270   4.208   2.328   4.775 -0.9874 -0.3711  0.3558
 6559SOL    HW120271   4.226   2.342   4.868  0.5706 -1.6983  0.2994
 6559SOL    HW220272   4.231   2.411   4.733  1.6784 -0.8359  0.7750
 6560SOL     OW20273   5.025   4.002   4.222  0.6919 -0.0502 -0.3763
 6560SOL    HW120274   4.986   4.089   4.230 -1.4579 -0.9063 -1.0571
 6560SOL    HW220275   5.028   3.969   4.311  1.0615  0.5185 -0.1728
 6561SOL     OW20276   4.225   2.609   1.565  0.7484  0.0935  0.0938
 6561SOL    HW120277   4.257   2.522   1.591  0.1705 -0.1151  0.1151
 6561SOL    HW220278   4.293   2.669   1.595  0.1762 -0.1549  1.9567
 6562SOL     OW20279   5.828   1.516   1.305  0.0439 -0.1037  0.3302
 6562SOL    HW120280   5.798   1.429   1.329  1.0043  0.4473  3.7120
 6562SOL    HW220281   5.795   1.573   1.375  2.6657  1.6554  0.1967
 6563SOL     OW20282   2.329   4.580   5.366 -0.6083  0.4962  0.5320
 6563SOL    HW120283   2.311   4.620   5.281  0.8276 -0.6410 -0.3471
 6563SOL    HW220284   2.243   4.566   5.405 -1.2208  2.7448  0.0963
 6564SOL     OW20285   1.448   4.320   6.826 -0.1067  0.8369 -0.5023
 6564SOL    HW120286   1.395   4.358   6.756 -1.8841  0.3182  0.5268
 6564SOL    HW220287   1.402   4.344   6.906  2.1540  1.7932  0.5326
 6565SOL     OW20288   3.673   6.960   6.174  0.0023  0.3934 -0.2787
 6565SOL    HW120289   3.727   6.924   6.103  0.0269 -0.1384  0.0085
 6565SOL    HW220290   3.624   6.885   6.207 -1.0931  0.9230 -0.6947
 6566SOL     OW20291   6.087   1.005   6.975  0.2618  0.6075 -0.6795
 6566SOL    HW120292   5.996   1.031   6.963 -0.2366 -0.6437  0.2573
 6566SOL    HW220293   6.111   1.043   7.060 -0.0375 -0.7594  0.0365
 6567SOL     OW20294   3.689   5.080   5.100  0.2893  0.3333  0.2903
 6567SOL    HW120295   3.633   5.124   5.036  0.7418  0.1242 -0.2536
 6567SOL    HW220296   3.739   5.150   5.141 -0.0989  0.4825  0.5067
 6568SOL     OW20297   2.741   2.728   3.583 -0.4805  0.3894  0.3375
 6568SOL    HW120298   2.667   2.693   3.533 -1.7250  1.2178  1.5510
 6568SOL    HW220299   2.800   2.654   3.594 -1.9174 -0.7131  0.7712
 6569SOL     OW20300   4.851   7.112   0.200 -0.0339 -0.1022 -0.2651
 6569SOL    HW120301   4.846   7.058   0.279 -0.6630 -0.8316 -0.8039
 6569SOL    HW220302   4.889   7.195   0.231  2.8209 -1.5209  0.1904
 6570SOL     OW20303   4.678   5.077   7.199 -0.1939 -0.3582  0.8575
 6570SOL    HW120304   4.709   4.994   7.163 -1.5526 -0.7124  0.5070
 6570SOL    HW220305   4.683   5.066   7.294 -2.1672 -1.5365  0.8524
 6571SOL     OW20306   4.956   3.482   1.256 -0.3836 -0.1497 -0.0318
 6571SOL    HW120307   4.924   3.398   1.223  1.1586 -0.8851  0.2981
 6571SOL    HW220308   5.044   3.491   1.219  0.1782  0.4526  1.4053
 6572SOL     OW20309   2.342   1.462   4.536  0.4095 -0.8428 -0.0033
 6572SOL    HW120310   2.287   1.495   4.607  0.5379  1.7786 -1.0877
 6572SOL    HW220311   2.281   1.442   4.465  0.7667  1.8337 -1.1190
 6573SOL     OW20312   6.178   1.591   5.902  0.1381  0.2198 -0.2825
 6573SOL    HW120313   6.104   1.611   5.959  1.0729  2.3075  0.2823
 6573SOL    HW220314   6.151   1.621   5.815 -0.0921 -0.0086 -0.2875
 6574SOL     OW20315   0.021   5.669   0.933 -0.6720 -0.3825 -0.0647
 6574SOL    HW120316  -0.029   5.659   0.852 -1.0538  1.3501 -0.0685
 6574SOL    HW220317  -0.023   5.740   0.979  1.4276  0.7735  0.2123
 6575SOL     OW20318   5.913   6.741   6.560 -0.2265 -0.0572  0.3266
 6575SOL    HW120319   5.850   6.804   6.595 -1.6483 -0.4176 -1.4495
 6575SOL    HW220320   5.919   6.673   6.628  0.3709  1.3512  1.7078
 6576SOL     OW20321   4.730   2.716   6.836 -0.3915 -0.2598 -0.1724
 6576SOL    HW120322   4.718   2.623   6.814 -0.2560 -0.6876  1.4940
 6576SOL    HW220323   4.732   2.760   6.751 -1.7277 -1.6207 -0.9422
 6577SOL     OW20324   4.385   3.659   4.410 -0.2235  0.8454  0.3271
 6577SOL    HW120325   4.466   3.695   4.374  1.0551 -0.1563  2.1219
 6577SOL    HW220326   4.388   3.566   4.388 -0.4375  0.6320  1.1626
 6578SOL     OW20327   3.904   4.792   7.168 -0.1131  0.2907  0.0065
 6578SOL    HW120328   3.974   4.790   7.103 -1.2437 -0.2606 -1.2182
 6578SOL    HW220329   3.922   4.869   7.221  1.3700  0.2005 -0.3569
 6579SOL     OW20330   0.989   5.993   6.247 -0.1244 -0.2784  0.9505
 6579SOL    HW120331   0.906   5.950   6.266 -1.1521  0.6433 -1.2227
 6579SOL    HW220332   1.021   5.949   6.168 -0.3642  1.7295 -0.3056
 6580SOL     OW20333   1.400   6.849   6.978 -0.3583  0.3479 -0.0947
 6580SOL    HW120334   1.327   6.907   7.000 -0.5812  0.2518 -0.5762
 6580SOL    HW220335   1.365   6.761   6.989  0.3642  0.2782  1.9379
 6581SOL     OW20336   3.773   2.101   1.664  0.6386  0.0715 -0.3384
 6581SOL    HW120337   3.800   2.120   1.754 -2.4490  2.2170  0.2352
 6581SOL    HW220338   3.700   2.040   1.674 -0.2154  0.9124 -1.3370
 6582SOL     OW20339   6.582   2.574   0.198 -0.1425 -0.1124  0.4343
 6582SOL    HW120340   6.633   2.585   0.118 -1.3105 -0.9170 -0.4561
 6582SOL    HW220341   6.637   2.521   0.255  0.4636 -0.0579 -0.0937
 6583SOL     OW20342   3.958   4.164   5.697 -0.1763 -0.0396  0.7465
 6583SOL    HW120343   3.902   4.090   5.672  1.4625 -1.1074  0.1993
 6583SOL    HW220344   3.955   4.165   5.793 -2.2147  0.7666  0.7016
 6584SOL     OW20345   3.211   0.329   5.078  0.1682  0.7745 -0.1730
 6584SOL    HW120346   3.179   0.389   5.010 -1.3317  2.0004  1.5522
 6584SOL    HW220347   3.301   0.309   5.053  0.4851  3.2627 -1.1195
 6585SOL     OW20348   4.062   5.774   3.093 -0.2391 -0.5022  0.3612
 6585SOL    HW120349   4.146   5.806   3.060 -0.7362  1.4004  0.8938
 6585SOL    HW220350   4.011   5.754   3.014 -0.5305  1.6955 -0.0320
 6586SOL     OW20351   0.692   6.851   3.310 -0.4113 -0.1011  0.2544
 6586SOL    HW120352   0.751   6.837   3.384 -1.1191 -0.9209  0.6772
 6586SOL    HW220353   0.608   6.873   3.350 -0.3369  1.3447 -0.3505
 6587SOL     OW20354   6.166   1.441   0.396 -0.9723  0.1992 -0.5352
 6587SOL    HW120355   6.210   1.503   0.453 -2.6337  0.7420  0.1788
 6587SOL    HW220356   6.081   1.480   0.379 -1.3893 -1.0822 -1.4665
 6588SOL     OW20357   6.059   2.674   6.745  0.1289  0.2851  0.3308
 6588SOL    HW120358   6.098   2.664   6.832 -0.8039  3.0036  1.1114
 6588SOL    HW220359   5.969   2.644   6.755  1.0371 -3.0246 -0.7041
 6589SOL     OW20360   1.051   1.487   6.016  0.3083  0.4847 -0.5869
 6589SOL    HW120361   1.096   1.503   6.099 -1.4029  1.8099  0.1115
 6589SOL    HW220362   1.102   1.534   5.951  0.6922  0.8642 -0.0146
 6590SOL     OW20363   6.619   2.103   6.562  0.4208  0.1234  0.7417
 6590SOL    HW120364   6.601   2.186   6.517  0.6180 -1.2549 -1.9573
 6590SOL    HW220365   6.710   2.083   6.540 -0.3379 -1.9694 -0.6289
 6591SOL     OW20366   4.936   2.190   5.681 -0.2966  0.6123  0.1811
 6591SOL    HW120367   4.987   2.189   5.762  0.1850 -3.1655 -0.0942
 6591SOL    HW220368   4.860   2.244   5.701  1.6935  2.9280  1.8840
 6592SOL     OW20369   5.363   0.404   2.750 -0.5326  0.3207 -0.8186
 6592SOL    HW120370   5.361   0.395   2.654 -1.7350 -3.2395 -0.5356
 6592SOL    HW220371   5.311   0.330   2.782 -0.6443  1.7861  2.5966
 6593SOL     OW20372   6.302   2.035   2.225  0.0282  0.8533  0.4715
 6593SOL    HW120373   6.236   2.067   2.286 -0.0399  1.5452  0.0478
 6593SOL    HW220374   6.374   2.097   2.233  0.0457  0.9121 -0.1002
 6594SOL     OW20375   0.481   2.029   1.490 -0.2043 -0.2431  0.7125
 6594SOL    HW120376   0.437   2.015   1.574 -0.8623  0.2892  0.4684
 6594SOL    HW220377   0.551   2.091   1.510 -0.5028  0.0618  0.8325
 6595SOL     OW20378   3.491   6.338   7.125  0.3848 -0.4261 -0.1292
 6595SOL    HW120379   3.500   6.249   7.089  1.6502  0.3071 -1.6457
 6595SOL    HW220380   3.511   6.396   7.052 -1.1921  1.1433  0.6413
 6596SOL     OW20381   3.576   1.636   4.941  0.2352  0.3573  0.0975
 6596SOL    HW120382   3.559   1.579   4.865 -2.1836  2.1370 -0.7585
 6596SOL    HW220383   3.533   1.591   5.014  0.3972 -0.1105 -0.0915
 6597SOL     OW20384   2.924   3.019   1.265  0.4792  0.2679  0.1731
 6597SOL    HW120385   2.878   3.054   1.189  1.1779  0.1258 -0.3241
 6597SOL    HW220386   2.975   2.945   1.231  0.3342 -0.1746  0.8926
 6598SOL     OW20387   2.627   0.340   1.497 -0.5330  0.1375 -0.2288
 6598SOL    HW120388   2.669   0.361   1.413 -0.5459 -0.2715 -0.3423
 6598SOL    HW220389   2.675   0.391   1.562  0.3212 -0.5391 -0.3242
 6599SOL     OW20390   0.645   7.129   3.026  0.3443  0.0628 -0.1742
 6599SOL    HW120391   0.725   7.149   2.977  0.4969 -0.1751 -0.0238
 6599SOL    HW220392   0.588   7.087   2.962  0.9231 -1.1533  0.0970
 6600SOL     OW20393   4.609   2.434   0.316  0.4695  0.2836 -0.2538
 6600SOL    HW120394   4.649   2.502   0.262  1.5252 -1.9282 -2.3746
 6600SOL    HW220395   4.536   2.401   0.264  0.8084 -1.1390  0.1405
 6601SOL     OW20396   7.143   3.105   6.027  0.2388 -0.1750  0.1828
 6601SOL    HW120397   7.112   3.167   6.094 -0.0051 -0.2309  0.1240
 6601SOL    HW220398   7.063   3.064   5.994  0.3592 -0.1621 -0.1283
 6602SOL     OW20399   5.447   3.017   0.578 -0.1422  0.1132 -0.5576
 6602SOL    HW120400   5.448   2.936   0.528  0.1236  0.0680 -0.4833
 6602SOL    HW220401   5.419   2.991   0.666  1.0018 -0.0769 -0.2428
 6603SOL     OW20402   6.052   2.159   3.911  0.2861 -0.3762  0.1602
 6603SOL    HW120403   6.103   2.170   3.992 -0.5114 -0.6525  0.7146
 6603SOL    HW220404   5.968   2.201   3.930 -0.1978 -1.1575 -0.2350
 6604SOL     OW20405   5.624   2.890   2.113  0.0513  0.0343 -0.2997
 6604SOL    HW120406   5.606   2.829   2.184 -0.7925 -0.9135 -1.3178
 6604SOL    HW220407   5.678   2.841   2.052  0.5180  0.7499 -0.4683
 6605SOL     OW20408   4.815   0.849   2.044 -0.5652 -0.1560  0.0888
 6605SOL    HW120409   4.784   0.834   1.954 -1.3581 -0.4150  0.4018
 6605SOL    HW220410   4.798   0.767   2.089 -1.1102  0.3176  0.7456
 6606SOL     OW20411   3.852   4.596   6.096 -0.0493  0.0769 -0.5633
 6606SOL    HW120412   3.930   4.586   6.152 -0.8077  0.5248  0.5871
 6606SOL    HW220413   3.778   4.584   6.155 -0.8729 -1.1116 -1.7990
 6607SOL     OW20414   1.861   4.163   5.583  0.1510 -0.4696 -0.5523
 6607SOL    HW120415   1.831   4.204   5.502  1.7193 -0.6423 -1.2365
 6607SOL    HW220416   1.939   4.114   5.557 -0.5826 -2.3091  0.6324
 6608SOL     OW20417   0.399   3.841   7.075 -0.2803  0.1212 -0.4996
 6608SOL    HW120418   0.429   3.755   7.049  0.1238 -0.0159  0.3989
 6608SOL    HW220419   0.353   3.827   7.158  0.5302  0.8803  0.0946
 6609SOL     OW20420   6.698   3.923   7.074 -0.0184 -0.3163 -0.7779
 6609SOL    HW120421   6.780   3.958   7.109  0.2700 -2.3295  0.6937
 6609SOL    HW220422   6.632   3.989   7.097  0.2788 -1.2458  3.1122
 6610SOL     OW20423   4.218   2.372   5.063 -0.1673 -0.0116 -0.2166
 6610SOL    HW120424   4.139   2.421   5.085 -0.6321 -1.1513  0.6653
 6610SOL    HW220425   4.281   2.397   5.131  0.4971  1.4468 -1.3168
 6611SOL     OW20426   0.775   4.490   6.535  0.2489  0.2372 -0.2014
 6611SOL    HW120427   0.686   4.522   6.523 -0.9028 -2.8657 -0.3442
 6611SOL    HW220428   0.804   4.466   6.447 -0.0535 -1.9211  0.2686
 6612SOL     OW20429   4.892   5.604   2.493  0.1409  0.1328 -0.1325
 6612SOL    HW120430   4.935   5.690   2.496  0.4312  0.0431 -1.4547
 6612SOL    HW220431   4.913   5.570   2.407  0.5289 -1.5476  0.6125
 6613SOL     OW20432   6.654   6.037   2.970 -0.3450 -0.3410  0.0951
 6613SOL    HW120433   6.574   6.059   2.921  0.6954 -0.5602 -1.7605
 6613SOL    HW220434   6.659   6.103   3.038 -2.0193 -0.2147  0.1302
 6614SOL     OW20435   4.774   0.438   6.909 -0.2269  0.8482 -0.2668
 6614SOL    HW120436   4.744   0.431   6.999 -2.6693 -1.7277 -1.2209
 6614SOL    HW220437   4.759   0.529   6.885 -3.8300  0.5365  0.5410
 6615SOL     OW20438   1.291   1.585   5.330  0.2569  0.2832  0.5277
 6615SOL    HW120439   1.312   1.584   5.236  0.1037  0.1387  0.4956
 6615SOL    HW220440   1.375   1.568   5.373  0.4433  0.9248  0.4355
 6616SOL     OW20441   7.124   1.078   3.516  0.6481 -1.0471  0.2113
 6616SOL    HW120442   7.210   1.076   3.475  0.9557 -2.5580  0.9190
 6616SOL    HW220443   7.095   0.987   3.517 -1.4123 -0.4410 -0.9563
 6617SOL     OW20444   0.176   4.559   1.944  0.1214 -0.6315  0.3044
 6617SOL    HW120445   0.232   4.529   1.872  1.3533  1.9702  0.1278
 6617SOL    HW220446   0.179   4.487   2.008  0.3062 -2.2832 -1.5130
 6618SOL     OW20447   4.797   1.266   5.615  0.3245 -0.4205 -0.8222
 6618SOL    HW120448   4.726   1.205   5.631 -0.6720  1.0450  0.4727
 6618SOL    HW220449   4.756   1.353   5.618  1.8595  0.3748 -1.7478
 6619SOL     OW20450   1.234   5.322   5.329  0.0316  0.2842  0.0644
 6619SOL    HW120451   1.232   5.259   5.257  0.3202  0.6652 -0.2797
 6619SOL    HW220452   1.253   5.269   5.407  2.4913  0.2466 -0.5527
 6620SOL     OW20453   1.653   7.037   3.184  0.4889 -0.6079 -0.1138
 6620SOL    HW120454   1.626   7.117   3.139  0.4941 -1.1781 -1.1555
 6620SOL    HW220455   1.719   6.998   3.126  0.7404 -1.1821  0.5515
 6621SOL     OW20456   0.345   3.662   5.788 -0.3478  0.1887  0.1725
 6621SOL    HW120457   0.425   3.629   5.747  0.7820  3.4820 -0.4529
 6621SOL    HW220458   0.275   3.608   5.753  1.5318 -2.4712  0.3794
 6622SOL     OW20459   1.243   1.427   6.928  0.0150  0.6142 -0.4833
 6622SOL    HW120460   1.174   1.493   6.931 -1.3167 -0.7432 -0.5414
 6622SOL    HW220461   1.264   1.409   7.019 -1.2063 -0.4836 -0.4058
 6623SOL     OW20462   0.601   5.676   3.184  0.3118  0.5329  0.1478
 6623SOL    HW120463   0.575   5.721   3.103  0.7512  0.3760 -0.0818
 6623SOL    HW220464   0.654   5.740   3.231  0.2585  0.5375  0.2016
 6624SOL     OW20465   1.756   4.928   5.832  0.8496  0.2878 -0.7209
 6624SOL    HW120466   1.699   5.004   5.831 -0.9162 -0.9995 -0.0715
 6624SOL    HW220467   1.837   4.959   5.873  0.2957  1.8868 -0.7945
 6625SOL     OW20468   7.064   1.699   3.929 -0.4139  1.1447 -0.2663
 6625SOL    HW120469   7.112   1.687   4.010 -0.0572 -0.1446 -0.6497
 6625SOL    HW220470   7.104   1.775   3.887  1.3173  0.0616 -0.6035
 6626SOL     OW20471   1.865   1.170   4.218 -0.1320  0.1215  0.2540
 6626SOL    HW120472   1.877   1.110   4.144  1.2712  0.6522  0.0348
 6626SOL    HW220473   1.839   1.113   4.290  1.9630 -0.9138  0.2577
 6627SOL     OW20474   1.258   3.878   6.776  0.0806 -0.4109 -0.0482
 6627SOL    HW120475   1.305   3.912   6.852 -1.3656 -0.4390  0.8829
 6627SOL    HW220476   1.293   3.927   6.702  2.1313 -1.0182  0.5113
 6628SOL     OW20477   5.145   0.112   5.878 -0.2694  0.3044 -0.3112
 6628SOL    HW120478   5.071   0.059   5.909 -0.0190 -0.6042 -1.2471
 6628SOL    HW220479   5.104   0.188   5.838 -0.7561 -0.6919 -1.7447
 6629SOL     OW20480   0.438   5.778   5.427 -0.0376 -0.4535  0.1572
 6629SOL    HW120481   0.405   5.831   5.354 -1.3788  1.3187  1.9944
 6629SOL    HW220482   0.433   5.688   5.396 -1.8323  0.1851 -1.4570
 6630SOL     OW20483   3.889   2.399   0.743 -0.3202  0.7293  0.1182
 6630SOL    HW120484   3.944   2.345   0.800 -0.7704  1.4772  1.2872
 6630SOL    HW220485   3.801   2.391   0.780 -0.7542  0.6337 -0.9250
 6631SOL     OW20486   5.877   5.259   0.671 -0.5221  0.1336  0.3871
 6631SOL    HW120487   5.839   5.197   0.734  1.1406 -0.7327  0.5541
 6631SOL    HW220488   5.959   5.288   0.712  0.3459 -0.0764 -1.1549
 6632SOL     OW20489   2.687   0.281   4.970 -0.3317  0.2830 -0.6694
 6632SOL    HW120490   2.700   0.367   4.929 -0.9264  1.5977  1.8034
 6632SOL    HW220491   2.592   0.270   4.973 -0.2326 -1.0528 -2.1208
 6633SOL     OW20492   0.352   4.205   6.445 -0.5013  0.4788  0.5973
 6633SOL    HW120493   0.311   4.170   6.523 -0.4831 -0.6801  0.0944
 6633SOL    HW220494   0.404   4.279   6.476 -0.3568 -0.0828  1.6962
 6634SOL     OW20495   5.340   3.785   3.325  0.0197 -0.7748  0.4160
 6634SOL    HW120496   5.295   3.867   3.306 -0.0054 -1.2064 -1.5251
 6634SOL    HW220497   5.420   3.789   3.271 -0.7690 -2.6991 -0.9398
 6635SOL     OW20498   5.818   6.629   4.475  0.4463 -0.5491  0.1256
 6635SOL    HW120499   5.759   6.693   4.515  1.6466  0.3155  0.5346
 6635SOL    HW220500   5.829   6.658   4.385 -0.2386 -1.0564 -0.1218
 6636SOL     OW20501   7.185   6.026   3.714 -0.2565 -0.4730 -0.0325
 6636SOL    HW120502   7.157   6.105   3.761  1.3404 -0.3243  0.6780
 6636SOL    HW220503   7.277   6.015   3.737 -0.2628 -2.1308 -0.7220
 6637SOL     OW20504   3.587   0.778   0.948  0.2201 -0.3287 -0.4807
 6637SOL    HW120505   3.527   0.709   0.975  1.5286 -1.5607 -0.6243
 6637SOL    HW220506   3.629   0.743   0.869 -0.5649  1.4957 -1.7496
 6638SOL     OW20507   0.398   2.062   2.253 -0.1244 -0.0009 -0.2934
 6638SOL    HW120508   0.402   2.136   2.192 -1.1005  1.2719  1.1452
 6638SOL    HW220509   0.432   2.097   2.335  0.7599 -1.5825  0.0378
 6639SOL     OW20510   4.454   6.675   1.681  0.1308  0.5776  0.3629
 6639SOL    HW120511   4.508   6.627   1.744  0.6025 -0.6764 -0.9517
 6639SOL    HW220512   4.364   6.660   1.709  0.3808  0.8431  1.3053
 6640SOL     OW20513   1.125   1.801   0.176  0.1840 -0.4608  0.2249
 6640SOL    HW120514   1.056   1.747   0.213  0.0860  0.6488  1.7239
 6640SOL    HW220515   1.111   1.797   0.081  0.1896 -3.0278  0.3002
 6641SOL     OW20516   1.795   5.105   2.054 -0.0121  0.1279  0.1925
 6641SOL    HW120517   1.874   5.142   2.016 -0.1821  0.5012  0.1912
 6641SOL    HW220518   1.761   5.175   2.110  0.6310 -0.6627  1.5983
 6642SOL     OW20519   0.989   1.081   4.184 -0.0059  0.5561  0.0039
 6642SOL    HW120520   0.899   1.103   4.164 -0.4719  0.2584  1.6965
 6642SOL    HW220521   0.991   1.069   4.279  1.4376 -1.0470 -0.1832
 6643SOL     OW20522   1.729   5.714   4.954 -0.1157 -0.1600  0.2291
 6643SOL    HW120523   1.676   5.791   4.932 -0.7456 -0.0072  2.1724
 6643SOL    HW220524   1.782   5.742   5.028  0.5211 -1.2440  0.1938
 6644SOL     OW20525   5.994   6.637   4.884 -0.3569 -0.1354 -0.1080
 6644SOL    HW120526   5.930   6.590   4.937 -1.4979  1.9345  0.4358
 6644SOL    HW220527   6.068   6.652   4.943 -0.8829  0.5905  0.3852
 6645SOL     OW20528   3.238   1.231   0.381  0.2855 -0.0171 -0.0500
 6645SOL    HW120529   3.148   1.215   0.353  1.2668 -1.2043 -2.7217
 6645SOL    HW220530   3.243   1.326   0.390 -0.8999  0.1801 -1.1799
 6646SOL     OW20531   7.081   7.168   1.724 -0.0896  0.5634 -0.4103
 6646SOL    HW120532   7.110   7.117   1.648  0.5051 -1.2059  0.9507
 6646SOL    HW220533   7.093   7.108   1.798  0.3011  2.5959  1.2067
 6647SOL     OW20534   0.878   6.380   3.958  0.2018 -0.2064 -0.2962
 6647SOL    HW120535   0.918   6.347   4.039 -0.4301 -0.0911  0.0644
 6647SOL    HW220536   0.817   6.311   3.932  0.9063 -0.5571 -1.0627
 6648SOL     OW20537   3.608   1.067   0.919  0.3436 -0.0494 -0.2187
 6648SOL    HW120538   3.677   1.090   0.980  0.3753  0.1067 -0.3129
 6648SOL    HW220539   3.601   0.972   0.925  0.8227 -0.1011 -0.4837
 6649SOL     OW20540   0.448   1.637   6.896 -0.7418  0.1473  0.4100
 6649SOL    HW120541   0.482   1.548   6.894 -1.6370 -0.1933  0.4208
 6649SOL    HW220542   0.483   1.678   6.816 -0.2013 -0.1551  0.4884
 6650SOL     OW20543   2.840   3.986   0.258 -0.1367 -0.4140 -0.1748
 6650SOL    HW120544   2.855   3.996   0.352 -0.7046 -0.1876 -0.1072
 6650SOL    HW220545   2.915   4.029   0.217 -0.2518  0.1134  0.1658
 6651SOL     OW20546   1.777   5.830   3.323 -0.0231 -0.0155  0.4969
 6651SOL    HW120547   1.845   5.889   3.291 -2.9696  2.2495 -1.8696
 6651SOL    HW220548   1.791   5.749   3.274  2.1474 -0.3150  1.5178
 6652SOL     OW20549   6.924   5.439   0.826 -0.0805  0.3866 -0.0289
 6652SOL    HW120550   6.940   5.533   0.835 -1.2444  0.5718  0.1434
 6652SOL    HW220551   6.958   5.417   0.740 -0.5607  1.1266 -0.4057
 6653SOL     OW20552   0.541   6.513   3.587 -0.4202  0.7139  0.4667
 6653SOL    HW120553   0.553   6.608   3.582  0.1657  0.6216  0.0703
 6653SOL    HW220554   0.470   6.495   3.526  0.9128  0.6420 -1.1009
 6654SOL     OW20555   6.204   3.484   5.932 -0.6221  0.1240 -0.2039
 6654SOL    HW120556   6.292   3.508   5.959 -0.5419 -0.5844  0.1520
 6654SOL    HW220557   6.176   3.557   5.877 -0.5620  1.2949  1.2809
 6655SOL     OW20558   4.434   1.742   0.422  0.8448 -0.2416  0.1528
 6655SOL    HW120559   4.379   1.669   0.395  2.8379 -1.4179 -0.8292
 6655SOL    HW220560   4.518   1.703   0.444  0.9214  1.3587  2.9980
 6656SOL     OW20561   6.455   0.166   6.978  0.0407  0.0085 -0.0129
 6656SOL    HW120562   6.381   0.115   6.945  0.4619  0.4314 -1.6616
 6656SOL    HW220563   6.492   0.207   6.900  1.1619  0.9200  0.9870
 6657SOL     OW20564   2.090   2.714   5.757  0.0995  0.6068 -0.6659
 6657SOL    HW120565   2.042   2.655   5.816  0.3775 -1.5612 -2.5359
 6657SOL    HW220566   2.170   2.736   5.805 -1.6067  2.3735  1.5165
 6658SOL     OW20567   6.042   6.482   0.021 -0.5831  0.0891 -0.1127
 6658SOL    HW120568   6.131   6.503   0.050 -0.3819  0.8102 -1.2101
 6658SOL    HW220569   5.994   6.465   0.101  0.2064  1.0766  0.5802
 6659SOL     OW20570   5.589   0.961   4.173  0.3537 -0.0888  0.1001
 6659SOL    HW120571   5.576   1.027   4.241  1.2850  0.7853 -0.5565
 6659SOL    HW220572   5.600   0.879   4.221 -0.6110  0.2549  0.9340
 6660SOL     OW20573   7.228   5.300   0.344  0.1882  0.2564  0.8714
 6660SOL    HW120574   7.236   5.211   0.309  0.6534  0.7031 -0.1810
 6660SOL    HW220575   7.318   5.333   0.345  0.3884 -0.3058  4.0201
 6661SOL     OW20576   4.242   1.952   4.317  0.6045  0.4702 -0.1152
 6661SOL    HW120577   4.211   1.870   4.279  0.1687  0.2987  0.6039
 6661SOL    HW220578   4.185   2.019   4.280  0.4858  0.3630 -0.1265
 6662SOL     OW20579   1.012   0.051   3.962 -0.1859  0.4225 -0.5254
 6662SOL    HW120580   0.984   0.138   3.990 -0.5058 -0.0264  0.5788
 6662SOL    HW220581   1.084   0.030   4.021 -1.3135 -0.8271  0.4291
 6663SOL     OW20582   3.524   5.157   2.850 -0.3004 -0.3730  0.3975
 6663SOL    HW120583   3.578   5.232   2.825 -0.6375 -1.0782 -2.6580
 6663SOL    HW220584   3.434   5.191   2.850 -0.4643 -0.7618 -1.0981
 6664SOL     OW20585   1.215   2.203   1.755  0.4086  0.2398  0.4194
 6664SOL    HW120586   1.225   2.135   1.821 -0.4968 -0.9424 -0.6330
 6664SOL    HW220587   1.294   2.256   1.762  0.5968 -0.2351  2.0227
 6665SOL     OW20588   5.035   1.807   5.105  0.5576  0.1444 -0.6877
 6665SOL    HW120589   5.027   1.741   5.174 -0.6753  0.7314 -0.2505
 6665SOL    HW220590   5.032   1.757   5.023 -0.5710 -0.3374 -0.3625
 6666SOL     OW20591   3.652   5.272   1.408 -0.6807 -0.1849 -0.1369
 6666SOL    HW120592   3.599   5.216   1.350  1.0581 -1.2529 -0.7421
 6666SOL    HW220593   3.641   5.234   1.495 -1.3242 -0.0850 -0.1738
 6667SOL     OW20594   5.389   1.379   2.581 -0.1273  0.5410  0.0567
 6667SOL    HW120595   5.391   1.310   2.515  1.1324  0.4239  0.2085
 6667SOL    HW220596   5.398   1.334   2.664 -0.9435  0.7556  0.2651
 6668SOL     OW20597   3.818   5.455   2.494 -1.1074 -0.3914 -0.0304
 6668SOL    HW120598   3.901   5.410   2.506  0.0806  1.6055 -0.6053
 6668SOL    HW220599   3.793   5.438   2.403 -0.4352  0.4470 -0.3799
 6669SOL     OW20600   4.008   3.479   5.023 -0.3310  0.3222 -0.2086
 6669SOL    HW120601   4.083   3.536   5.039  0.3225 -0.3207 -0.9801
 6669SOL    HW220602   4.022   3.443   4.936 -1.2100 -0.3062 -0.1017
 6670SOL     OW20603   7.030   1.805   2.501  0.3951 -0.1685  0.2193
 6670SOL    HW120604   7.089   1.878   2.518  0.6623 -0.5619  0.9964
 6670SOL    HW220605   7.075   1.754   2.433  1.0724 -0.6071  0.9962
 6671SOL     OW20606   4.328   6.012   1.858  0.0501  0.1350 -0.2052
 6671SOL    HW120607   4.414   5.989   1.893 -0.8250 -0.6960  1.5143
 6671SOL    HW220608   4.294   5.931   1.821  0.0423  0.4741 -0.9399
 6672SOL     OW20609   4.332   4.268   3.144 -0.1097 -0.1642 -0.5432
 6672SOL    HW120610   4.356   4.217   3.221  0.8010 -1.8579 -1.9212
 6672SOL    HW220611   4.331   4.359   3.175 -0.1926 -0.8588  1.5571
 6673SOL     OW20612   5.488   1.211   3.137 -0.2414 -0.1855  0.5675
 6673SOL    HW120613   5.395   1.223   3.116 -0.2397  0.4174  0.8824
 6673SOL    HW220614   5.491   1.208   3.232  0.1909  1.0007  0.6100
 6674SOL     OW20615   0.264   4.882   5.533  0.6895 -0.0656 -0.3275
 6674SOL    HW120616   0.285   4.941   5.461 -1.0379  0.6461 -0.2722
 6674SOL    HW220617   0.169   4.891   5.545  0.6904 -1.4578  0.9049
 6675SOL     OW20618   4.671   2.257   2.681  0.3103 -0.1395  0.1224
 6675SOL    HW120619   4.626   2.336   2.714 -0.0475  0.0990 -0.9068
 6675SOL    HW220620   4.727   2.230   2.753  0.0924  0.7976  0.6637
 6676SOL     OW20621   4.985   2.461   3.519 -0.4499  0.0945  0.0175
 6676SOL    HW120622   5.043   2.532   3.490  0.0562  0.8452  2.7637
 6676SOL    HW220623   4.907   2.470   3.464  0.5764  1.2998 -1.2699
 6677SOL     OW20624   5.056   2.501   7.258 -0.7845  0.6131  0.2090
 6677SOL    HW120625   5.083   2.539   7.342  0.5738  0.3588 -0.1038
 6677SOL    HW220626   5.066   2.573   7.195 -2.8263  1.1218  0.4234
 6678SOL     OW20627   5.868   2.154   3.541  0.5374 -0.4868  0.0600
 6678SOL    HW120628   5.864   2.209   3.620 -3.4153  0.8124 -0.9588
 6678SOL    HW220629   5.938   2.193   3.489  2.2510 -0.5062  2.2607
 6679SOL     OW20630   5.007   4.178   4.810 -0.1664  0.4116 -0.4601
 6679SOL    HW120631   5.037   4.140   4.892 -0.5275  0.8051 -0.1425
 6679SOL    HW220632   5.067   4.144   4.744 -1.7403 -2.4552 -0.5184
 6680SOL     OW20633   6.165   6.861   2.551 -0.6889 -0.1065 -0.3957
 6680SOL    HW120634   6.151   6.890   2.461 -0.6495  0.0492 -0.3511
 6680SOL    HW220635   6.247   6.811   2.548  1.2505  2.8685  0.2149
 6681SOL     OW20636   3.309   1.047   3.815  0.0450 -0.3876  0.4814
 6681SOL    HW120637   3.273   1.084   3.734  0.3519 -0.2409  0.4095
 6681SOL    HW220638   3.403   1.042   3.799 -0.0174 -1.3991  0.4210
 6682SOL     OW20639   2.667   2.974   6.984  0.0291 -0.2184 -0.0371
 6682SOL    HW120640   2.571   2.969   6.983  0.0933 -1.4278 -0.0484
 6682SOL    HW220641   2.691   2.981   6.892  0.0931 -2.6465 -0.2144
 6683SOL     OW20642   3.875   2.596   5.654 -0.2064  0.1463 -0.0703
 6683SOL    HW120643   3.811   2.658   5.687  0.0858  0.5820 -0.3233
 6683SOL    HW220644   3.892   2.623   5.564 -1.2849 -1.2704 -0.7336
 6684SOL     OW20645   1.397   1.690   5.094  0.0916 -0.2155  0.0221
 6684SOL    HW120646   1.472   1.742   5.067 -0.6436  1.3845  0.9910
 6684SOL    HW220647   1.360   1.655   5.013  0.5081  0.9022 -0.6502
 6685SOL     OW20648   7.232   2.667   0.930  0.0295 -0.0257  0.1304
 6685SOL    HW120649   7.265   2.746   0.973  1.2184 -0.2905 -0.2712
 6685SOL    HW220650   7.273   2.595   0.979 -0.3871 -0.3716 -0.0321
 6686SOL     OW20651   3.910   0.935   6.638 -0.1605 -0.0239  0.2354
 6686SOL    HW120652   3.843   0.871   6.665  0.2650 -0.2839  0.7071
 6686SOL    HW220653   3.867   0.990   6.573 -0.5890 -0.6900 -0.0485
 6687SOL     OW20654   3.985   1.119   3.555  0.1128  0.0327  0.0502
 6687SOL    HW120655   4.011   1.160   3.637  0.1224  0.4390 -0.1545
 6687SOL    HW220656   3.894   1.093   3.569 -0.6692  2.2862 -0.6358
 6688SOL     OW20657   4.564   5.307   0.796 -0.0209  0.3829 -1.2998
 6688SOL    HW120658   4.593   5.236   0.853  1.1873  1.9805  0.1166
 6688SOL    HW220659   4.599   5.285   0.710  1.2361 -0.1954 -0.6435
 6689SOL     OW20660   1.824   5.473   2.821  0.8432 -0.5742  0.3727
 6689SOL    HW120661   1.918   5.459   2.819  0.6790 -1.5447 -1.6301
 6689SOL    HW220662   1.814   5.567   2.808  1.5347 -0.4685  0.5768
 6690SOL     OW20663   3.414   5.094   0.850 -0.1641 -0.2288 -0.0272
 6690SOL    HW120664   3.417   4.998   0.849  2.5251 -0.2054 -3.6875
 6690SOL    HW220665   3.358   5.117   0.775  0.3963  1.0456 -0.0713
 6691SOL     OW20666   3.784   3.771   2.429 -0.1903 -0.0572 -0.6010
 6691SOL    HW120667   3.734   3.765   2.511 -0.3982 -0.2573 -0.7407
 6691SOL    HW220668   3.750   3.699   2.375  0.6159 -0.5151 -0.5004
 6692SOL     OW20669   3.957   3.455   4.371 -0.6799 -0.0516 -0.7024
 6692SOL    HW120670   3.952   3.502   4.288  2.6787  1.2089 -0.2914
 6692SOL    HW220671   3.975   3.364   4.347  1.6294  0.5490 -1.4000
 6693SOL     OW20672   4.319   1.233   6.532  0.1540  0.6971 -0.3503
 6693SOL    HW120673   4.252   1.188   6.582  1.7619  0.6426  1.8046
 6693SOL    HW220674   4.286   1.233   6.442 -1.9528 -0.7496  0.3989
 6694SOL     OW20675   1.011   3.585   4.223  0.2945 -0.1914 -0.0484
 6694SOL    HW120676   1.083   3.565   4.283 -0.8301 -0.0336  1.3941
 6694SOL    HW220677   1.014   3.680   4.213  0.8216 -0.2751 -0.6783
 6695SOL     OW20678   1.100   1.617   2.492 -0.6205 -0.7614  0.0385
 6695SOL    HW120679   1.035   1.614   2.422  1.2788  2.1632 -1.9528
 6695SOL    HW220680   1.065   1.681   2.554  0.9714  1.8910 -1.7416
 6696SOL     OW20681   5.135   0.369   4.394 -0.1797 -0.1088  0.0929
 6696SOL    HW120682   5.066   0.435   4.402 -0.7288 -0.7144  0.3653
 6696SOL    HW220683   5.090   0.292   4.359  0.6365 -0.0453 -1.1175
 6697SOL     OW20684   4.575   5.782   6.332 -0.2405  0.4820 -0.0496
 6697SOL    HW120685   4.525   5.793   6.413 -0.5404 -0.7859 -0.0450
 6697SOL    HW220686   4.666   5.777   6.360 -0.4513 -1.2517  0.3433
 6698SOL     OW20687   6.103   2.287   0.119  0.1737  0.1226  0.4309
 6698SOL    HW120688   6.179   2.278   0.176  0.1341  0.6042  0.5615
 6698SOL    HW220689   6.053   2.359   0.156 -0.6445 -0.5628  0.6793
 6699SOL     OW20690   6.990   5.137   1.893  0.0069 -0.1270 -0.2490
 6699SOL    HW120691   6.987   5.064   1.830 -2.5603 -1.5660  1.4689
 6699SOL    HW220692   6.903   5.137   1.934  0.6644  2.6325  1.2379
 6700SOL     OW20693   2.197   2.089   4.746  0.0413 -0.4000 -0.1026
 6700SOL    HW120694   2.274   2.039   4.774 -0.3865 -2.5292 -2.4699
 6700SOL    HW220695   2.138   2.022   4.709 -2.1344  1.4239 -0.0298
 6701SOL     OW20696   4.510   0.422   1.921 -0.1929 -0.0443  0.5089
 6701SOL    HW120697   4.525   0.367   1.998  0.6279  0.4064  0.6789
 6701SOL    HW220698   4.418   0.448   1.927 -0.1264  0.0080  1.3513
 6702SOL     OW20699   1.614   6.030   0.900 -0.0443 -0.4462  0.0690
 6702SOL    HW120700   1.523   6.008   0.923 -0.4541  0.6770 -0.4269
 6702SOL    HW220701   1.662   6.021   0.982 -0.7744 -0.1825  0.5374
 6703SOL     OW20702   2.485   3.848   5.741 -0.0156  0.1943 -0.3149
 6703SOL    HW120703   2.474   3.817   5.831 -1.0725  0.1792 -0.4403
 6703SOL    HW220704   2.396   3.849   5.705  0.4813 -0.4567 -1.5821
 6704SOL     OW20705   6.900   5.477   4.420 -0.1460  0.2394 -0.5366
 6704SOL    HW120706   6.988   5.509   4.399 -0.1449 -0.4536 -1.6471
 6704SOL    HW220707   6.872   5.430   4.341 -1.3581  0.1145 -0.0506
 6705SOL     OW20708   6.246   0.799   5.974  0.5282  0.4569 -0.1312
 6705SOL    HW120709   6.244   0.720   5.920 -1.5815  0.8861 -0.7151
 6705SOL    HW220710   6.198   0.864   5.924  3.6066  2.6257 -0.3618
 6706SOL     OW20711   3.730   7.067   4.452  0.1370  0.6999 -0.3725
 6706SOL    HW120712   3.694   6.992   4.499 -0.9385  1.8576  0.6828
 6706SOL    HW220713   3.824   7.051   4.449  0.0047 -0.3008  0.5424
 6707SOL     OW20714   3.560   6.883   4.544 -0.6846  0.2630 -0.1328
 6707SOL    HW120715   3.475   6.897   4.503 -0.5577 -0.4737 -0.6658
 6707SOL    HW220716   3.572   6.788   4.542  0.6818  0.4314 -1.1937
 6708SOL     OW20717   3.568   2.164   1.369 -0.5667  0.0765  0.1284
 6708SOL    HW120718   3.525   2.160   1.454 -0.2959  0.1050  0.2637
 6708SOL    HW220719   3.618   2.083   1.362 -0.4226  0.1689  0.0822
 6709SOL     OW20720   3.350   1.797   3.164 -0.1246 -0.3480  0.1342
 6709SOL    HW120721   3.346   1.869   3.227  0.8742  0.4239 -0.6696
 6709SOL    HW220722   3.308   1.831   3.085  1.0209 -0.3824 -0.4981
 6710SOL     OW20723   5.705   4.021   1.752  0.2155 -0.2499  0.0047
 6710SOL    HW120724   5.765   3.994   1.822  2.4671  2.8968 -0.5723
 6710SOL    HW220725   5.753   4.004   1.671  0.6101  2.7807 -0.4518
 6711SOL     OW20726   6.366   6.652   3.398  0.0331  0.4177 -0.0236
 6711SOL    HW120727   6.389   6.600   3.321  0.3388  1.0738 -0.3746
 6711SOL    HW220728   6.408   6.737   3.384  1.3543  0.0600  1.5525
 6712SOL     OW20729   3.638   2.266   1.952 -0.4997  0.1224  0.5915
 6712SOL    HW120730   3.563   2.276   2.011 -0.0571  0.4818  1.0999
 6712SOL    HW220731   3.616   2.321   1.877 -1.3354 -0.8014  0.1444
 6713SOL     OW20732   2.828   1.650   6.305  0.3427 -0.1318  0.1354
 6713SOL    HW120733   2.834   1.744   6.285 -0.9540  0.3559  1.8787
 6713SOL    HW220734   2.901   1.633   6.365  0.0876 -0.0447  0.4732
 6714SOL     OW20735   5.909   1.427   4.645  0.9120  0.4209 -0.2641
 6714SOL    HW120736   5.932   1.344   4.602 -1.6508 -1.8515  2.5116
 6714SOL    HW220737   5.992   1.457   4.683  1.4340 -2.2515  0.8674
 6715SOL     OW20738   3.295   2.815   4.136  0.4316 -0.0338  0.6648
 6715SOL    HW120739   3.386   2.830   4.110 -0.0937  1.1656 -0.4999
 6715SOL    HW220740   3.269   2.737   4.087  1.1632 -1.0723  1.8730
 6716SOL     OW20741   6.667   0.170   1.426  0.5943 -0.1090  0.3862
 6716SOL    HW120742   6.712   0.200   1.505 -0.7318  1.3864  0.6068
 6716SOL    HW220743   6.662   0.075   1.436  1.6929 -0.0681  1.4221
 6717SOL     OW20744   3.613   6.625   3.458  0.6272 -0.5136 -0.0940
 6717SOL    HW120745   3.706   6.609   3.443  0.5325 -1.3599  0.2339
 6717SOL    HW220746   3.576   6.539   3.475 -0.3882 -0.2834 -1.1344
 6718SOL     OW20747   4.771   0.413   4.671 -0.1681  1.1054 -0.2352
 6718SOL    HW120748   4.849   0.405   4.726  0.4108  1.1152 -1.0449
 6718SOL    HW220749   4.699   0.421   4.733  0.4438  0.7961  0.5240
 6719SOL     OW20750   3.177   0.845   5.081 -0.4601  0.0782 -0.2141
 6719SOL    HW120751   3.185   0.804   4.995  1.8906  2.3188 -1.1127
 6719SOL    HW220752   3.130   0.927   5.063  1.5712  1.3868  0.3148
 6720SOL     OW20753   3.242   2.423   2.198 -0.4228 -0.0627  0.1289
 6720SOL    HW120754   3.221   2.514   2.175  1.5993 -0.0323 -1.7891
 6720SOL    HW220755   3.163   2.374   2.177 -0.8986  0.9746 -0.5474
 6721SOL     OW20756   6.978   3.213   6.231 -0.2510  0.4789  0.7713
 6721SOL    HW120757   6.962   3.308   6.236 -1.2018  0.3945 -0.4954
 6721SOL    HW220758   6.931   3.178   6.307 -2.5397  0.7116 -0.4818
 6722SOL     OW20759   7.052   5.630   4.968  0.0561 -0.3520  0.1727
 6722SOL    HW120760   7.055   5.709   4.914 -0.5152 -1.0383 -0.8686
 6722SOL    HW220761   6.959   5.613   4.982  0.1433 -1.4691 -0.5442
 6723SOL     OW20762   3.597   5.157   4.595 -0.3774  0.2239 -0.1504
 6723SOL    HW120763   3.562   5.227   4.540 -0.1053 -1.2842 -2.3162
 6723SOL    HW220764   3.520   5.107   4.623 -0.3281 -0.5057 -1.2888
 6724SOL     OW20765   1.873   3.399   1.189  0.2762 -0.0219 -0.3164
 6724SOL    HW120766   1.800   3.339   1.203  1.9103 -1.8785  0.4575
 6724SOL    HW220767   1.900   3.384   1.099 -0.9543  1.4377 -0.9451
 6725SOL     OW20768   0.970   4.426   0.788 -0.4600  0.1153  0.6416
 6725SOL    HW120769   0.878   4.449   0.799 -0.6382 -0.6661  0.8691
 6725SOL    HW220770   1.008   4.499   0.739 -1.3224  0.1913  0.0714
 6726SOL     OW20771   3.367   2.748   4.396 -0.3491  0.4419 -0.0263
 6726SOL    HW120772   3.339   2.824   4.448 -0.2040 -0.3611  1.2575
 6726SOL    HW220773   3.356   2.776   4.305 -1.8705  1.4172  0.4342
 6727SOL     OW20774   0.161   4.975   6.910 -0.1378 -0.1983  0.3846
 6727SOL    HW120775   0.176   5.030   6.987 -1.0502 -0.3548  0.6828
 6727SOL    HW220776   0.181   4.886   6.940  1.6679 -0.0087 -0.1920
 6728SOL     OW20777   3.908   0.548   6.793 -0.5550  0.0015  0.1484
 6728SOL    HW120778   3.861   0.585   6.718  0.1402  2.1916  0.7729
 6728SOL    HW220779   3.876   0.597   6.869  1.4374  0.3457  0.8076
 6729SOL     OW20780   2.302   4.237   6.181  0.2677 -0.3701 -0.1020
 6729SOL    HW120781   2.234   4.214   6.245  0.5353  0.6814  0.5577
 6729SOL    HW220782   2.383   4.242   6.232  0.4197  0.8407 -0.4403
 6730SOL     OW20783   6.667   4.111   0.692  0.2188  0.4366 -0.0094
 6730SOL    HW120784   6.694   4.029   0.652 -3.5432 -0.1408 -1.5749
 6730SOL    HW220785   6.691   4.178   0.628  2.4315  0.5029  0.8532
 6731SOL     OW20786   3.850   2.110   3.469  0.3912  0.1034 -0.0680
 6731SOL    HW120787   3.777   2.129   3.411  0.0478 -0.9060  0.0410
 6731SOL    HW220788   3.925   2.101   3.410  0.7137  2.4196 -0.0885
 6732SOL     OW20789   3.382   3.187   5.988  0.0139 -0.0015 -0.5953
 6732SOL    HW120790   3.306   3.169   6.043  0.7349 -0.1909  0.3448
 6732SOL    HW220791   3.345   3.228   5.910 -0.9114  1.5311  0.6089
 6733SOL     OW20792   5.793   5.668   0.054  0.4015  0.4815  0.7251
 6733SOL    HW120793   5.747   5.718   0.122  0.8255  0.7051  0.8472
 6733SOL    HW220794   5.804   5.581   0.091  0.1068  0.4372  0.7100
 6734SOL     OW20795   6.975   3.477   0.842  0.3087  0.2120 -0.4075
 6734SOL    HW120796   6.978   3.573   0.843 -0.1864  0.2278  0.4257
 6734SOL    HW220797   7.062   3.450   0.814  0.2457  0.9150 -1.2896
 6735SOL     OW20798   2.404   5.617   6.540  0.7932  0.1069  0.3946
 6735SOL    HW120799   2.423   5.711   6.544  1.6742 -0.0799  0.5262
 6735SOL    HW220800   2.390   5.591   6.631 -0.8737  0.3988  0.2412
 6736SOL     OW20801   6.394   6.905   4.477 -0.0517 -0.6635 -0.2267
 6736SOL    HW120802   6.392   6.830   4.418  0.8266 -0.9504  0.1008
 6736SOL    HW220803   6.353   6.873   4.557  1.8992 -1.3481  0.5309
 6737SOL     OW20804   4.945   5.695   0.256  0.2288 -0.0124 -0.2492
 6737SOL    HW120805   4.894   5.666   0.332 -1.6226  1.4513 -0.8908
 6737SOL    HW220806   4.943   5.621   0.196 -1.5625  0.1868 -0.4553
 6738SOL     OW20807   3.143   0.084   6.027 -0.3015  0.3851  0.2247
 6738SOL    HW120808   3.166   0.119   5.940  0.4986  1.2333  0.7653
 6738SOL    HW220809   3.196   0.005   6.036  0.6932  1.0801  0.5201
 6739SOL     OW20810   2.175   6.100   0.145  0.6359 -0.2055  0.4980
 6739SOL    HW120811   2.116   6.176   0.146  0.2204 -0.4647 -1.6013
 6739SOL    HW220812   2.247   6.127   0.088  0.9070 -1.0933  0.4254
 6740SOL     OW20813   6.640   5.758   3.631  0.0709  0.2066  0.3832
 6740SOL    HW120814   6.604   5.743   3.544 -1.4945  0.8946  0.8971
 6740SOL    HW220815   6.734   5.746   3.620 -0.1035  0.2989 -1.4042
 6741SOL     OW20816   3.881   7.173   1.276 -0.4322 -0.2412 -0.6441
 6741SOL    HW120817   3.965   7.137   1.245  0.4793  1.2520  0.0112
 6741SOL    HW220818   3.906   7.241   1.339 -2.2177 -1.9386  1.9919
 6742SOL     OW20819   5.141   3.385   0.121 -0.4209  0.0342 -0.0779
 6742SOL    HW120820   5.071   3.342   0.072  0.1838 -1.6733  0.5112
 6742SOL    HW220821   5.219   3.335   0.099  0.2892  0.8296  0.6407
 6743SOL     OW20822   5.298   4.014   5.926 -0.2781  0.5397 -0.0123
 6743SOL    HW120823   5.272   4.076   5.995 -0.1280  0.9387 -0.3129
 6743SOL    HW220824   5.373   4.056   5.884 -0.3306  0.2624 -0.3778
 6744SOL     OW20825   5.944   3.318   6.507 -0.1255  0.4993  0.2488
 6744SOL    HW120826   5.990   3.291   6.427  0.7932 -0.0109  0.9468
 6744SOL    HW220827   5.852   3.304   6.487  0.2709 -2.6654  0.3993
 6745SOL     OW20828   3.501   6.224   0.753 -0.4999  0.4646 -0.2330
 6745SOL    HW120829   3.440   6.155   0.779 -1.3809  1.4281  0.2841
 6745SOL    HW220830   3.568   6.223   0.820 -1.4454  1.2761  0.7417
 6746SOL     OW20831   1.852   1.969   0.894  0.6266  0.1653 -0.1036
 6746SOL    HW120832   1.861   1.937   0.984 -1.0291  2.0003  0.7489
 6746SOL    HW220833   1.768   2.016   0.894  1.6336  2.0354 -2.0379
 6747SOL     OW20834   1.373   1.405   4.980  0.5886  0.2232 -0.0256
 6747SOL    HW120835   1.326   1.464   4.921 -1.0185 -1.4711 -0.4616
 6747SOL    HW220836   1.427   1.351   4.922  2.3283  1.4647  0.3999
 6748SOL     OW20837   4.629   1.519   5.388  0.1357 -0.6229 -0.2744
 6748SOL    HW120838   4.544   1.564   5.385  0.6847  0.4468 -0.3153
 6748SOL    HW220839   4.642   1.500   5.481  0.0878 -0.3135 -0.2031
 6749SOL     OW20840   0.551   6.596   0.482  0.4404 -0.4019 -0.0552
 6749SOL    HW120841   0.577   6.593   0.574  0.8666 -2.1647 -0.2224
 6749SOL    HW220842   0.479   6.534   0.475  1.3557 -1.3703 -1.1921
 6750SOL     OW20843   2.219   4.173   5.155  0.1549  0.1754 -0.8672
 6750SOL    HW120844   2.155   4.130   5.098 -0.1592  0.6435 -0.8737
 6750SOL    HW220845   2.168   4.239   5.203  0.5728  0.3398 -0.6440
 6751SOL     OW20846   4.407   2.574   6.667  0.0350 -0.8522 -0.2436
 6751SOL    HW120847   4.368   2.496   6.706 -1.2748  0.4730  1.1995
 6751SOL    HW220848   4.360   2.647   6.708  2.0670  0.7294 -0.6414
 6752SOL     OW20849   4.564   0.622   3.384  0.6378  0.2359  0.1561
 6752SOL    HW120850   4.561   0.639   3.289  2.5194 -0.3323 -0.0171
 6752SOL    HW220851   4.473   0.606   3.408  0.1099  0.6253 -1.5131
 6753SOL     OW20852   5.944   3.790   5.955  0.4925 -0.5536  0.0010
 6753SOL    HW120853   5.991   3.785   6.038 -0.9259  2.0275  1.0369
 6753SOL    HW220854   5.856   3.819   5.979 -0.4991 -1.5830 -2.2517
 6754SOL     OW20855   1.439   5.432   0.555  0.9264  0.5117 -0.1742
 6754SOL    HW120856   1.499   5.362   0.532  0.9704  0.6692 -0.5484
 6754SOL    HW220857   1.427   5.424   0.649  1.7591  0.6557 -0.0559
 6755SOL     OW20858   2.760   5.039   1.754 -0.1003 -0.4381 -0.0539
 6755SOL    HW120859   2.765   4.978   1.681 -0.5971  0.1885 -0.6250
 6755SOL    HW220860   2.848   5.078   1.758  0.0717 -0.8306 -0.0014
 6756SOL     OW20861   3.175   6.826   2.346 -0.1151 -0.2606 -0.9257
 6756SOL    HW120862   3.239   6.835   2.275  1.0079 -2.0365 -0.1812
 6756SOL    HW220863   3.192   6.739   2.382 -2.0504 -0.1946  0.1910
 6757SOL     OW20864   2.577   2.884   5.431 -0.6591 -0.0284 -0.2116
 6757SOL    HW120865   2.561   2.894   5.337 -0.6174 -0.3017 -0.2452
 6757SOL    HW220866   2.526   2.807   5.456 -0.2699 -0.2474 -0.1037
 6758SOL     OW20867   2.120   3.907   0.570 -0.0499 -0.3967  0.0048
 6758SOL    HW120868   2.124   3.818   0.536 -0.1029 -0.6347  0.6284
 6758SOL    HW220869   2.027   3.928   0.572 -0.0708 -0.5454  0.4443
 6759SOL     OW20870   3.790   5.131   6.376 -0.0168  0.1049  0.3562
 6759SOL    HW120871   3.764   5.190   6.306 -1.2790  0.6211  1.2447
 6759SOL    HW220872   3.886   5.129   6.371 -0.0587  0.6272 -0.9645
 6760SOL     OW20873   5.259   0.207   0.972 -0.2918  0.2297  0.0099
 6760SOL    HW120874   5.293   0.217   1.061  1.0100  1.2892 -0.5807
 6760SOL    HW220875   5.222   0.293   0.951  1.3037  0.6579 -1.2104
 6761SOL     OW20876   7.202   3.459   1.899  0.0611  0.2162 -0.0639
 6761SOL    HW120877   7.177   3.430   1.811  1.6372 -0.9145 -0.1495
 6761SOL    HW220878   7.149   3.405   1.958  1.0193 -0.9768 -0.2784
 6762SOL     OW20879   1.167   6.622   1.652 -0.1373  0.2159  0.1158
 6762SOL    HW120880   1.168   6.682   1.577 -0.6105 -0.3898 -0.3783
 6762SOL    HW220881   1.096   6.561   1.633  1.5273 -1.6521 -0.2982
 6763SOL     OW20882   4.779   5.033   2.833  0.7754  0.4273  0.2742
 6763SOL    HW120883   4.700   5.062   2.788  1.3591  2.5999  0.6332
 6763SOL    HW220884   4.780   4.938   2.818 -1.1557  0.5474 -0.8908
 6764SOL     OW20885   0.014   6.066   3.282  0.3018 -0.5823 -0.7202
 6764SOL    HW120886   0.079   6.080   3.352  1.9274 -1.3289 -2.0477
 6764SOL    HW220887  -0.034   6.149   3.277  1.1332 -0.0205  0.3153
 6765SOL     OW20888   3.335   5.236   1.494  0.2062  0.2508 -0.1616
 6765SOL    HW120889   3.280   5.283   1.556 -0.6377 -0.1820 -0.5753
 6765SOL    HW220890   3.412   5.210   1.545 -0.6993 -0.5236  0.8369
 6766SOL     OW20891   4.426   6.499   1.083 -0.3815 -0.1157 -0.1880
 6766SOL    HW120892   4.450   6.589   1.061 -0.1302 -0.4421 -1.3414
 6766SOL    HW220893   4.492   6.446   1.036 -1.2238 -0.9224 -0.4663
 6767SOL     OW20894   2.094   5.664   1.061  0.5333 -0.4410 -0.2779
 6767SOL    HW120895   2.165   5.603   1.042  0.1018 -0.3998 -2.1180
 6767SOL    HW220896   2.115   5.742   1.009  0.4069  0.4874  1.0515
 6768SOL     OW20897   7.253   6.300   1.151  0.2513 -0.5389  0.4397
 6768SOL    HW120898   7.176   6.263   1.195  0.5052 -1.8880 -0.2200
 6768SOL    HW220899   7.326   6.284   1.210  0.1008  0.4011  0.8936
 6769SOL     OW20900   3.444   2.218   6.185  0.6523 -0.1011 -0.4809
 6769SOL    HW120901   3.490   2.219   6.101 -0.6856  0.2328 -1.2450
 6769SOL    HW220902   3.389   2.297   6.182  1.3474  0.4599  1.1505
 6770SOL     OW20903   3.511   4.206   1.511 -0.3558 -0.1598  0.1697
 6770SOL    HW120904   3.422   4.174   1.527 -0.1636 -0.2866  0.9779
 6770SOL    HW220905   3.527   4.269   1.581 -0.6751  1.6103 -1.3032
 6771SOL     OW20906   3.032   0.710   1.598 -0.1632 -0.2903  0.2140
 6771SOL    HW120907   3.048   0.746   1.685 -2.0773 -1.7717  1.2333
 6771SOL    HW220908   2.996   0.783   1.548 -1.8099 -0.1375  1.5678
 6772SOL     OW20909   0.324   6.638   6.420 -0.1648  0.1795 -0.4100
 6772SOL    HW120910   0.290   6.710   6.474 -0.1006  0.7990 -1.1744
 6772SOL    HW220911   0.283   6.652   6.334  0.0733 -0.5337 -0.6414
 6773SOL     OW20912   3.327   2.321   0.405 -0.5230  0.0506  0.2848
 6773SOL    HW120913   3.412   2.364   0.390 -1.1758  1.6840  1.1317
 6773SOL    HW220914   3.263   2.391   0.398 -1.6684 -0.8807  1.2070
 6774SOL     OW20915   3.578   5.595   6.712  0.3760  0.2035 -0.2845
 6774SOL    HW120916   3.560   5.624   6.622  1.6094  0.6812 -0.3936
 6774SOL    HW220917   3.598   5.502   6.704  1.1079  0.3869 -0.5927
 6775SOL     OW20918   1.194   5.207   4.235  0.8026  0.1130 -0.0771
 6775SOL    HW120919   1.107   5.204   4.194  1.4842  1.3410 -1.6644
 6775SOL    HW220920   1.187   5.148   4.310 -1.5127  0.4781  0.0237
 6776SOL     OW20921   0.326   5.510   5.599 -0.6909 -0.4743  0.0172
 6776SOL    HW120922   0.412   5.476   5.573 -1.3019 -0.9079 -1.4710
 6776SOL    HW220923   0.265   5.438   5.582 -1.6314  0.5011 -0.8343
 6777SOL     OW20924   6.453   6.826   4.928 -0.2864 -0.2347  0.4580
 6777SOL    HW120925   6.477   6.889   4.860  0.6268 -0.4596  0.5647
 6777SOL    HW220926   6.497   6.745   4.902 -0.8505 -0.6277  0.7156
 6778SOL     OW20927   5.549   6.264   6.904  0.1269  0.1603 -0.3970
 6778SOL    HW120928   5.617   6.315   6.861  1.2550 -1.0493 -0.0764
 6778SOL    HW220929   5.502   6.221   6.833  0.1407  0.4296 -0.5713
 6779SOL     OW20930   4.959   3.314   6.457 -0.5732  0.0083 -0.2537
 6779SOL    HW120931   4.978   3.276   6.371 -1.3858 -0.9345 -0.0197
 6779SOL    HW220932   4.979   3.245   6.520 -0.4580  0.5271  0.2880
 6780SOL     OW20933   1.677   0.231   3.323 -0.0801  0.0733 -0.0047
 6780SOL    HW120934   1.643   0.303   3.271  3.2385  1.4135 -0.4936
 6780SOL    HW220935   1.691   0.160   3.261 -0.5440  0.0458 -0.0755
 6781SOL     OW20936   3.821   6.389   0.490  0.1940  0.6326 -0.8523
 6781SOL    HW120937   3.732   6.361   0.511  0.8544 -0.2923  0.8241
 6781SOL    HW220938   3.819   6.484   0.499 -0.3268  0.5101  0.4122
 6782SOL     OW20939   6.736   4.738   0.776 -0.6111  0.2217 -0.6378
 6782SOL    HW120940   6.780   4.653   0.782  1.0893  1.1067 -0.0387
 6782SOL    HW220941   6.679   4.731   0.700 -0.6881 -1.5359 -0.4384
 6783SOL     OW20942   4.038   5.377   3.341 -0.1602  0.2050 -0.0301
 6783SOL    HW120943   4.102   5.446   3.326 -0.4969  0.6759  0.6771
 6783SOL    HW220944   4.091   5.297   3.347  0.2834  0.4750 -0.2584
 6784SOL     OW20945   0.201   4.681   1.435  1.1522  0.0803 -0.3534
 6784SOL    HW120946   0.210   4.720   1.348 -0.0058 -1.4590 -1.1847
 6784SOL    HW220947   0.286   4.638   1.451  0.9334 -0.7208 -1.2834
 6785SOL     OW20948   1.292   4.777   4.526 -0.0167 -0.2017 -0.6763
 6785SOL    HW120949   1.368   4.820   4.486  0.1789  0.9380  0.8481
 6785SOL    HW220950   1.328   4.699   4.568  0.1869 -0.1002 -0.6567
 6786SOL     OW20951   3.029   4.852   6.806 -0.0227 -0.0778 -0.2435
 6786SOL    HW120952   3.016   4.778   6.865  0.1370 -0.2240 -0.3902
 6786SOL    HW220953   3.008   4.817   6.719  0.0723  0.0443 -0.3153
 6787SOL     OW20954   5.993   2.950   6.564  0.3771  0.3224 -0.1787
 6787SOL    HW120955   5.941   2.881   6.524  0.5656  0.7300 -1.1565
 6787SOL    HW220956   6.079   2.943   6.522  0.7792  0.3491  0.6256
 6788SOL     OW20957   5.141   3.718   4.412  0.5478 -0.0888 -0.0113
 6788SOL    HW120958   5.104   3.802   4.441  0.5681  0.2372 -0.9323
 6788SOL    HW220959   5.068   3.657   4.414  0.6301 -0.1775  1.1171
 6789SOL     OW20960   6.036   0.324   2.193  0.1655  0.5814  0.5280
 6789SOL    HW120961   6.104   0.309   2.258 -1.1609 -2.3614  1.3163
 6789SOL    HW220962   5.956   0.337   2.244 -0.2344  2.0097 -0.4270
 6790SOL     OW20963   4.893   5.180   6.496 -0.0113 -0.2490 -0.4530
 6790SOL    HW120964   4.889   5.157   6.589 -2.1476 -1.8476 -0.8930
 6790SOL    HW220965   4.928   5.103   6.453 -0.8084 -0.2100 -1.1889
 6791SOL     OW20966   5.518   5.466   6.639  1.2633 -0.5611 -0.6655
 6791SOL    HW120967   5.536   5.501   6.727  0.5828 -0.9322 -0.3758
 6791SOL    HW220968   5.544   5.537   6.580 -1.8365  1.2264 -0.0119
 6792SOL     OW20969   0.479   0.551   6.693 -0.0579 -0.2738 -0.0862
 6792SOL    HW120970   0.461   0.623   6.632 -1.5741 -1.1054 -0.6462
 6792SOL    HW220971   0.485   0.473   6.638 -0.9863 -0.9695  0.7736
 6793SOL     OW20972   5.411   7.190   1.204 -0.3061  0.2364  0.3397
 6793SOL    HW120973   5.449   7.244   1.135  0.8272  1.7243  2.0763
 6793SOL    HW220974   5.472   7.116   1.213 -0.4711  0.0277 -0.2699
 6794SOL     OW20975   1.888   5.320   2.216 -0.1705 -0.2394 -0.0120
 6794SOL    HW120976   1.886   5.399   2.162 -0.4913  0.9232  1.6634
 6794SOL    HW220977   1.978   5.313   2.246 -0.8358  1.3506  2.4819
 6795SOL     OW20978   3.533   0.183   5.320 -0.0130  0.6515 -0.3770
 6795SOL    HW120979   3.590   0.248   5.362  0.7983 -0.7493  0.7812
 6795SOL    HW220980   3.564   0.179   5.230  2.4143 -0.7586  0.4604
 6796SOL     OW20981   1.838   2.075   5.674  0.3052  0.8218  0.4660
 6796SOL    HW120982   1.805   2.165   5.682  1.0856  1.0719  0.9427
 6796SOL    HW220983   1.798   2.028   5.747 -0.2967  0.7267  0.0727
 6797SOL     OW20984   4.264   0.380   0.200 -0.5183 -0.3275  0.3122
 6797SOL    HW120985   4.320   0.425   0.263 -0.7782  0.9955 -0.3879
 6797SOL    HW220986   4.228   0.305   0.249 -1.3640  1.1389  1.9906
 6798SOL     OW20987   0.495   2.539   3.413  0.7064 -0.3485  0.1196
 6798SOL    HW120988   0.495   2.618   3.468 -0.7005  0.8262 -1.5293
 6798SOL    HW220989   0.414   2.494   3.435  1.1836 -1.0029  0.5644
 6799SOL     OW20990   6.063   0.396   1.399 -0.0386 -0.1376  0.2823
 6799SOL    HW120991   5.995   0.340   1.363  0.5969 -0.3194 -0.6378
 6799SOL    HW220992   6.018   0.449   1.466 -1.1992  0.1738 -0.7345
 6800SOL     OW20993   5.733   2.688   1.181  0.3646 -0.8644  0.2805
 6800SOL    HW120994   5.733   2.754   1.112  0.4724  0.0583  1.1619
 6800SOL    HW220995   5.677   2.618   1.147 -0.4196  0.0382 -0.2971
 6801SOL     OW20996   3.276   3.441   2.148  0.2352  0.3985 -0.3545
 6801SOL    HW120997   3.283   3.529   2.186  0.4243  0.4687 -0.5507
 6801SOL    HW220998   3.225   3.455   2.068  1.0358  0.4748 -0.8596
 6802SOL     OW20999   0.556   1.806   3.136  0.0354  0.1169  0.6243
 6802SOL    HW121000   0.504   1.832   3.212  0.7327  1.1856  0.7368
 6802SOL    HW221001   0.647   1.809   3.166  0.4366  2.1102 -0.6821
 6803SOL     OW21002   5.196   6.016   4.239  0.6893 -0.7693  0.4050
 6803SOL    HW121003   5.154   5.948   4.292 -4.0252  0.1115 -1.8924
 6803SOL    HW221004   5.183   6.097   4.289 -1.1822 -0.3715 -0.6854
 6804SOL     OW21005   1.813   4.707   5.087  0.0668 -0.3113 -0.5673
 6804SOL    HW121006   1.739   4.764   5.108  0.3598  0.4955 -1.6676
 6804SOL    HW221007   1.840   4.734   4.999  1.4693 -0.8071 -0.3056
 6805SOL     OW21008   5.192   6.654   0.106  0.0175  0.0283  0.2276
 6805SOL    HW121009   5.188   6.750   0.102  0.4470  0.0979  1.2773
 6805SOL    HW221010   5.253   6.630   0.037  0.5505  0.5739  0.4955
 6806SOL     OW21011   0.825   4.657   5.544 -0.3251  0.2875  0.6373
 6806SOL    HW121012   0.766   4.665   5.619  0.2829  0.2105  1.1287
 6806SOL    HW221013   0.767   4.639   5.470 -0.7451 -2.0569  1.4824
 6807SOL     OW21014   3.164   5.233   4.012 -0.2085  0.0891  0.1841
 6807SOL    HW121015   3.109   5.310   4.026  1.5539  1.1795  1.3407
 6807SOL    HW221016   3.249   5.269   3.989  0.1183 -1.5663 -1.2638
 6808SOL     OW21017   6.752   7.237   0.292  0.1845 -0.2302 -0.4502
 6808SOL    HW121018   6.700   7.161   0.317  0.8126  0.1592  2.1457
 6808SOL    HW221019   6.768   7.225   0.198 -1.9649 -1.9100 -0.6389
 6809SOL     OW21020   6.771   5.536   5.830  0.4133 -0.0111 -0.2026
 6809SOL    HW121021   6.853   5.506   5.790  0.3283  0.0267 -0.4034
 6809SOL    HW221022   6.738   5.603   5.770  0.5380  0.4017  0.1817
 6810SOL     OW21023   2.283   6.399   2.228 -0.4912 -0.0923  0.2743
 6810SOL    HW121024   2.255   6.378   2.139  0.4271 -2.9327  0.5808
 6810SOL    HW221025   2.365   6.351   2.239  0.4991  1.9205  1.9481
 6811SOL     OW21026   2.120   3.445   2.469 -0.6748 -1.0823 -0.0323
 6811SOL    HW121027   2.204   3.437   2.514 -1.0983 -3.4107  0.3830
 6811SOL    HW221028   2.067   3.502   2.526  0.4235 -0.0379 -0.0396
 6812SOL     OW21029   2.622   2.912   4.616 -0.5560 -0.1727 -0.8065
 6812SOL    HW121030   2.623   3.007   4.622  0.3316 -0.1942 -0.4623
 6812SOL    HW221031   2.559   2.892   4.547 -0.7375  0.6594 -0.8837
 6813SOL     OW21032   2.020   2.722   3.684  0.1805  0.1448 -0.1001
 6813SOL    HW121033   2.021   2.779   3.761  1.7619  0.4451 -0.3139
 6813SOL    HW221034   2.102   2.673   3.690  0.5348  0.4809 -1.8072
 6814SOL     OW21035   1.168   6.936   5.238  0.1907  0.6451 -0.3777
 6814SOL    HW121036   1.216   6.919   5.319  0.1473  0.0066 -0.4790
 6814SOL    HW221037   1.096   6.993   5.265  0.8149  1.3404 -0.1685
 6815SOL     OW21038   3.298   5.592   4.658  0.3240  0.3110  0.4755
 6815SOL    HW121039   3.365   5.619   4.721 -1.1452  0.8069  1.8582
 6815SOL    HW221040   3.251   5.672   4.637  0.7943  0.1446 -1.2706
 6816SOL     OW21041   2.413   2.311   5.492  0.1556  0.4813 -0.4942
 6816SOL    HW121042   2.354   2.330   5.565 -1.1990 -2.3095 -0.8136
 6816SOL    HW221043   2.373   2.356   5.417  0.0717  1.0935 -0.0882
 6817SOL     OW21044   3.390   0.133   1.282  0.4723 -0.3767  0.0751
 6817SOL    HW121045   3.419   0.199   1.345  1.0648 -0.4487 -0.1146
 6817SOL    HW221046   3.313   0.093   1.322  0.8897 -0.4702  0.7917
 6818SOL     OW21047   3.832   7.093   4.884 -0.3251 -0.0234 -0.1375
 6818SOL    HW121048   3.816   7.030   4.814 -1.1013  0.5326 -0.4741
 6818SOL    HW221049   3.912   7.063   4.927  0.6704  0.1792 -1.8537
 6819SOL     OW21050   3.977   3.678   6.265 -0.5360 -0.2139 -0.3505
 6819SOL    HW121051   3.943   3.661   6.177  2.0055 -0.0024 -1.4398
 6819SOL    HW221052   4.019   3.596   6.291 -0.4516  0.0176  0.2572
 6820SOL     OW21053   0.088   7.043   7.133 -0.0361  0.2635  0.4717
 6820SOL    HW121054   0.065   7.078   7.047  0.2997  1.5462  0.8954
 6820SOL    HW221055   0.058   6.952   7.130  1.4336 -0.2140 -1.5880
 6821SOL     OW21056   3.107   4.263   2.913 -0.0148 -0.3234  0.0857
 6821SOL    HW121057   3.037   4.317   2.875  0.0394 -0.0001  0.4470
 6821SOL    HW221058   3.165   4.245   2.839 -0.1100 -0.0094 -0.0691
 6822SOL     OW21059   6.663   4.047   6.499 -0.2570  0.5471  0.0071
 6822SOL    HW121060   6.679   4.005   6.584 -0.0973  1.3827  0.3971
 6822SOL    HW221061   6.660   3.975   6.437 -1.2979 -0.1625  0.8568
 6823SOL     OW21062   2.146   3.482   6.329 -0.5485 -0.0995 -0.3114
 6823SOL    HW121063   2.128   3.525   6.412 -1.6112  1.5701 -1.3725
 6823SOL    HW221064   2.061   3.474   6.287 -0.0254 -0.9317 -1.2297
 6824SOL     OW21065   6.387   6.589   3.879  0.2421  0.0759  0.7731
 6824SOL    HW121066   6.377   6.572   3.786  0.4969  1.2752  0.5239
 6824SOL    HW221067   6.479   6.613   3.890 -0.2170  1.8139  1.0209
 6825SOL     OW21068   5.849   1.084   4.071  0.8918 -0.5702 -0.0999
 6825SOL    HW121069   5.926   1.026   4.072  1.0769 -0.3260  1.7220
 6825SOL    HW221070   5.776   1.026   4.093  0.7523 -0.5447 -0.4991
 6826SOL     OW21071   2.174   4.256   1.143 -0.2117  0.6832 -0.4161
 6826SOL    HW121072   2.178   4.232   1.236  2.4544 -3.4687 -1.4829
 6826SOL    HW221073   2.091   4.218   1.112  0.0597 -0.0560 -0.2544
 6827SOL     OW21074   3.072   6.535   7.158  0.1929  0.0252 -0.1838
 6827SOL    HW121075   3.158   6.566   7.186 -0.2319  0.9754  0.1037
 6827SOL    HW221076   3.012   6.563   7.227 -0.1975 -1.5829  0.1501
 6828SOL     OW21077   4.580   4.660   0.113  0.1582  0.5319  0.0537
 6828SOL    HW121078   4.554   4.579   0.070  2.4009 -0.6181  0.7989
 6828SOL    HW221079   4.601   4.635   0.203  0.0503  2.0758  0.5359
 6829SOL     OW21080   0.233   0.833   4.555 -0.1040 -0.1918 -0.0115
 6829SOL    HW121081   0.237   0.792   4.641  0.2883 -0.1035  0.0142
 6829SOL    HW221082   0.275   0.918   4.566  0.4124 -0.3926 -0.4070
 6830SOL     OW21083   4.446   3.589   2.292  0.0884  0.2771 -0.6265
 6830SOL    HW121084   4.461   3.617   2.383 -3.0975  0.0557  0.0304
 6830SOL    HW221085   4.512   3.522   2.276  0.1686 -0.2836  1.8489
 6831SOL     OW21086   7.255   1.010   6.759  0.0849  0.4680 -0.2072
 6831SOL    HW121087   7.350   0.998   6.759 -0.0187 -0.4423  1.8729
 6831SOL    HW221088   7.241   1.097   6.797  0.0582  0.2918  0.1902
 6832SOL     OW21089   5.155   1.953   3.421 -0.5644 -0.0662  0.2727
 6832SOL    HW121090   5.100   1.993   3.488  0.7679  0.3591  1.1112
 6832SOL    HW221091   5.230   1.918   3.469 -0.2158 -0.8577 -0.8382
 6833SOL     OW21092   0.221   5.759   1.946 -0.2662  0.1926 -0.5801
 6833SOL    HW121093   0.237   5.705   2.024  1.4407  0.1439 -0.9337
 6833SOL    HW221094   0.279   5.834   1.957 -0.6201  0.5906 -1.4065
 6834SOL     OW21095   1.862   4.328   6.137 -0.0521 -0.1638 -0.0131
 6834SOL    HW121096   1.892   4.379   6.212  0.4690 -0.7594  0.1883
 6834SOL    HW221097   1.910   4.245   6.144  0.6015  0.0889 -1.4510
 6835SOL     OW21098   4.826   5.483   0.096  0.0755  0.1758  0.2742
 6835SOL    HW121099   4.808   5.568   0.056  1.4911  0.7526  0.8467
 6835SOL    HW221100   4.791   5.419   0.034  2.4084  1.0514 -1.9965
 6836SOL     OW21101   2.904   2.022   3.305  0.3506  0.2432  0.5121
 6836SOL    HW121102   2.825   2.055   3.262 -0.6238  0.6921  2.5859
 6836SOL    HW221103   2.971   2.023   3.237 -0.4189  3.6190 -0.2525
 6837SOL     OW21104   6.315   2.784   1.715  0.2944  0.4989 -0.0515
 6837SOL    HW121105   6.318   2.693   1.685  0.4225  0.5041 -0.0559
 6837SOL    HW221106   6.385   2.789   1.781  1.4564  1.0555 -1.3145
 6838SOL     OW21107   5.840   0.410   0.657 -0.0164 -0.0500 -0.3792
 6838SOL    HW121108   5.882   0.338   0.611 -0.7361 -0.6735 -0.0851
 6838SOL    HW221109   5.902   0.435   0.725 -0.1949 -1.0856  0.1755
 6839SOL     OW21110   1.714   5.289   1.417 -0.5998 -0.5742  0.6284
 6839SOL    HW121111   1.675   5.321   1.336  1.0644  0.2504  0.1284
 6839SOL    HW221112   1.737   5.198   1.398  0.5125 -0.1506 -0.1035
 6840SOL     OW21113   6.828   5.099   2.285 -0.0080 -0.6437 -0.0960
 6840SOL    HW121114   6.834   5.004   2.291  1.1341 -0.6721 -1.4069
 6840SOL    HW221115   6.810   5.116   2.192 -1.5652  0.3715  0.3644
 6841SOL     OW21116   3.609   4.854   3.143  0.2013 -0.6759 -0.1940
 6841SOL    HW121117   3.523   4.860   3.101 -0.0477  0.8333  0.4716
 6841SOL    HW221118   3.617   4.762   3.168 -0.3714 -1.2378 -2.0040
 6842SOL     OW21119   1.277   4.388   6.611  0.4330 -0.4092 -0.2548
 6842SOL    HW121120   1.216   4.361   6.542 -0.0906 -1.5825  0.6625
 6842SOL    HW221121   1.296   4.480   6.590  0.1124 -0.6769 -1.8354
 6843SOL     OW21122   6.059   5.557   3.701  0.3114 -0.0076  0.2869
 6843SOL    HW121123   6.109   5.631   3.736 -2.6570  2.7976 -1.0219
 6843SOL    HW221124   5.987   5.545   3.763  0.4347 -1.4494  0.1705
 6844SOL     OW21125   4.235   6.932   6.280 -1.0872 -0.0651  0.1605
 6844SOL    HW121126   4.154   6.953   6.233 -2.0395 -0.9232  1.3771
 6844SOL    HW221127   4.206   6.909   6.369  0.3284 -2.0121  0.1499
 6845SOL     OW21128   5.258   7.144   0.171  0.3667  0.3818  0.3597
 6845SOL    HW121129   5.179   7.175   0.215 -0.1465 -0.9547  0.4028
 6845SOL    HW221130   5.329   7.165   0.232 -0.0704  0.6675  0.7743
 6846SOL     OW21131   6.199   4.093   2.105 -0.1424 -0.3322  0.1549
 6846SOL    HW121132   6.248   4.034   2.162  1.5435  0.0727 -0.8467
 6846SOL    HW221133   6.170   4.037   2.033  0.0277 -0.2784  0.0457
 6847SOL     OW21134   1.982   1.975   3.296 -0.0270  0.7759 -0.1369
 6847SOL    HW121135   1.907   1.924   3.266 -0.7490  1.9755 -0.3575
 6847SOL    HW221136   2.058   1.921   3.272 -0.7890 -0.3192 -0.1279
 6848SOL     OW21137   2.779   5.982   6.218 -0.2916 -0.0754  0.1928
 6848SOL    HW121138   2.708   6.019   6.165 -1.0915 -1.9941 -0.1244
 6848SOL    HW221139   2.738   5.965   6.303  0.6121  1.6482  0.9945
 6849SOL     OW21140   6.054   4.483   6.754  0.0013  0.3980 -0.1076
 6849SOL    HW121141   5.973   4.437   6.771 -0.6642  1.7431  0.4643
 6849SOL    HW221142   6.107   4.422   6.703 -0.5070 -1.2757  1.3548
 6850SOL     OW21143   5.913   3.888   0.199 -0.1010  0.0675 -0.2038
 6850SOL    HW121144   5.873   3.802   0.204  0.6333 -0.2689 -0.1073
 6850SOL    HW221145   6.006   3.873   0.220 -0.4672  1.2619  2.6165
 6851SOL     OW21146   1.386   3.741   0.942  0.0047  0.1768 -0.2608
 6851SOL    HW121147   1.296   3.708   0.942 -0.7835  2.2495  1.4806
 6851SOL    HW221148   1.377   3.836   0.932  1.8549  0.7372  2.8224
 6852SOL     OW21149   4.260   3.441   3.229 -0.1054 -0.5221 -0.0527
 6852SOL    HW121150   4.236   3.394   3.309  0.3239  0.6431  0.7782
 6852SOL    HW221151   4.229   3.385   3.158 -1.0415 -1.2773  0.9364
 6853SOL     OW21152   4.059   0.568   0.699  0.1508 -0.3059 -0.6322
 6853SOL    HW121153   4.050   0.608   0.785 -0.7402  0.8982 -1.2658
 6853SOL    HW221154   4.140   0.517   0.704 -0.1051 -0.5704  1.0290
 6854SOL     OW21155   4.283   0.773   6.642  0.9280  0.5526 -0.1790
 6854SOL    HW121156   4.316   0.688   6.612  3.2124  1.2451  0.2644
 6854SOL    HW221157   4.240   0.810   6.565 -0.8980 -1.3497 -0.1329
 6855SOL     OW21158   4.481   0.697   6.386  0.1378 -0.2288  0.2539
 6855SOL    HW121159   4.551   0.665   6.328  0.0905  1.9583 -1.0939
 6855SOL    HW221160   4.440   0.618   6.420  1.9146 -1.5661 -0.6003
 6856SOL     OW21161   1.543   5.839   2.239  0.4106 -0.0866  0.0785
 6856SOL    HW121162   1.600   5.766   2.264  2.0824  0.3056 -2.4112
 6856SOL    HW221163   1.540   5.835   2.143 -1.6767  1.4714  0.0567
 6857SOL     OW21164   1.796   3.903   0.086  0.5569 -0.4237 -0.5560
 6857SOL    HW121165   1.852   3.874   0.157  1.6400  1.5279 -0.5534
 6857SOL    HW221166   1.707   3.886   0.116  1.1209 -3.0634 -0.3311
 6858SOL     OW21167   3.440   6.608   1.893 -0.0480  0.9692  0.1284
 6858SOL    HW121168   3.535   6.619   1.899  0.0776  0.7183 -1.2737
 6858SOL    HW221169   3.429   6.514   1.874 -0.6876  0.5063  2.6169
 6859SOL     OW21170   6.336   0.054   4.229  0.1492 -0.5123  0.3033
 6859SOL    HW121171   6.313  -0.011   4.296 -0.9033 -1.0103 -0.5339
 6859SOL    HW221172   6.259   0.059   4.173  1.5513 -1.1332 -1.7209
 6860SOL     OW21173   4.795   6.865   1.976  0.4616  0.4217 -0.3680
 6860SOL    HW121174   4.866   6.883   1.914  0.0341 -0.2974 -1.0696
 6860SOL    HW221175   4.793   6.942   2.033  1.3790  0.7355 -0.7480
 6861SOL     OW21176   1.379   0.965   5.441 -0.2814  0.1118 -0.3153
 6861SOL    HW121177   1.360   1.059   5.437 -0.4356  0.0523 -1.1124
 6861SOL    HW221178   1.319   0.931   5.507 -1.3834  0.3012 -1.1973
 6862SOL     OW21179   7.016   0.593   2.151 -0.0942 -0.1723  0.2645
 6862SOL    HW121180   7.077   0.567   2.082 -0.3075  0.0873 -0.0181
 6862SOL    HW221181   6.976   0.673   2.119 -0.2014 -0.0573  0.6854
 6863SOL     OW21182   5.994   3.101   1.824 -0.7118 -0.6521  0.2141
 6863SOL    HW121183   6.065   3.161   1.799 -1.9517  0.9232  0.3693
 6863SOL    HW221184   6.020   3.017   1.788  1.6212 -0.2668  0.9361
 6864SOL     OW21185   5.293   3.904   2.226  0.1970 -0.5315  0.4646
 6864SOL    HW121186   5.320   3.859   2.306 -0.5887  0.3116  1.2294
 6864SOL    HW221187   5.229   3.969   2.257 -0.0335 -0.1362 -0.8405
 6865SOL     OW21188   6.700   2.562   6.282 -0.4205 -0.3457 -0.1300
 6865SOL    HW121189   6.770   2.614   6.322  0.4139 -1.2705 -0.3596
 6865SOL    HW221190   6.734   2.539   6.196 -0.6207 -1.5801  0.1133
 6866SOL     OW21191   4.635   5.613   3.734 -0.3645  0.0260 -0.3259
 6866SOL    HW121192   4.609   5.604   3.643 -1.9829  2.3659 -0.1326
 6866SOL    HW221193   4.639   5.523   3.767  0.8450 -0.8940 -2.8289
 6867SOL     OW21194   6.124   5.409   6.396 -0.3181  0.2244 -0.5046
 6867SOL    HW121195   6.134   5.418   6.301 -0.6760  1.9136 -0.4088
 6867SOL    HW221196   6.211   5.425   6.431 -0.2339 -0.1616 -0.5411
 6868SOL     OW21197   2.943   4.199   5.938 -0.5030  0.1093  0.3311
 6868SOL    HW121198   2.910   4.167   6.022 -0.3480  1.1083  0.7942
 6868SOL    HW221199   2.959   4.293   5.954 -1.9350  0.6361 -1.2682
 6869SOL     OW21200   6.109   6.183   4.877 -0.2253  0.2796 -0.5071
 6869SOL    HW121201   6.075   6.095   4.865  0.1419 -0.0965  1.0318
 6869SOL    HW221202   6.032   6.240   4.869 -0.5281 -0.2103 -1.0994
 6870SOL     OW21203   7.166   5.836   6.975 -0.0098  0.0957 -0.8747
 6870SOL    HW121204   7.162   5.767   7.041 -3.2206 -0.8125 -1.9807
 6870SOL    HW221205   7.225   5.802   6.908  0.2600 -0.5448 -0.3191
 6871SOL     OW21206   5.781   0.105   4.409  0.0072 -0.1139 -0.6009
 6871SOL    HW121207   5.698   0.121   4.364 -0.7352  0.9162  1.0640
 6871SOL    HW221208   5.803   0.190   4.448  2.2988 -0.1485 -1.7160
 6872SOL     OW21209   6.704   0.897   7.224 -0.0008  0.6115  0.6223
 6872SOL    HW121210   6.703   0.922   7.316 -0.3659  1.0043  0.5115
 6872SOL    HW221211   6.780   0.942   7.187  1.5214 -1.3595  1.2310
 6873SOL     OW21212   4.164   3.713   2.159 -0.2670  0.0731  0.5817
 6873SOL    HW121213   4.180   3.692   2.251 -0.6055 -2.0170  0.1843
 6873SOL    HW221214   4.070   3.731   2.155 -0.6158 -1.7687  0.2964
 6874SOL     OW21215   5.276   3.732   1.899 -0.2237  0.1125  0.1384
 6874SOL    HW121216   5.225   3.684   1.964 -0.5389  1.1604  0.6721
 6874SOL    HW221217   5.361   3.745   1.940 -0.6085  1.2807  0.5785
 6875SOL     OW21218   4.849   3.093   2.611 -0.1436  0.2416  0.3758
 6875SOL    HW121219   4.944   3.101   2.625 -0.1462  0.9101  0.0440
 6875SOL    HW221220   4.832   2.999   2.614  0.0354  0.2578  3.6230
 6876SOL     OW21221   1.273   5.476   2.126 -0.1774 -0.1727  0.1293
 6876SOL    HW121222   1.302   5.563   2.100  1.2549 -1.0055 -1.1348
 6876SOL    HW221223   1.324   5.455   2.204  2.3861 -1.4337 -1.8071
 6877SOL     OW21224   2.427   5.427   5.073 -0.2108  0.3159 -0.6042
 6877SOL    HW121225   2.519   5.425   5.047  0.2728 -0.9632  1.1048
 6877SOL    HW221226   2.412   5.518   5.101  0.3029  0.7266 -1.6588
 6878SOL     OW21227   5.198   0.528   1.145  0.0903 -0.3133 -0.1077
 6878SOL    HW121228   5.132   0.557   1.207  1.8488 -0.2121  1.7676
 6878SOL    HW221229   5.154   0.530   1.060 -2.3279 -0.3913  1.1155
 6879SOL     OW21230   3.278   5.794   5.130  0.0735 -0.3285 -0.7955
 6879SOL    HW121231   3.358   5.839   5.159 -0.6639  0.4785  0.0088
 6879SOL    HW221232   3.254   5.838   5.049  1.2169 -1.4914 -1.7730
 6880SOL     OW21233   5.525   1.396   4.765 -0.4474  0.5200  0.7248
 6880SOL    HW121234   5.445   1.448   4.767 -0.3470  0.7640 -0.9560
 6880SOL    HW221235   5.596   1.460   4.774 -0.4180  0.3624  1.6447
 6881SOL     OW21236   2.367   2.561   5.777 -0.2341  0.1555  0.4113
 6881SOL    HW121237   2.374   2.538   5.870  1.7376 -1.0573 -0.0088
 6881SOL    HW221238   2.325   2.486   5.736 -0.8241  0.5606  0.2697
 6882SOL     OW21239   4.330   6.482   7.116 -0.2693  0.3535  0.1866
 6882SOL    HW121240   4.315   6.529   7.198  1.1206  0.8521  0.1730
 6882SOL    HW221241   4.408   6.429   7.133 -0.8421 -0.6705 -0.3465
 6883SOL     OW21242   6.568   6.204   0.403 -0.2076 -0.7070 -0.2559
 6883SOL    HW121243   6.542   6.126   0.355 -1.7775 -1.1210  1.2413
 6883SOL    HW221244   6.634   6.173   0.466 -0.3594 -0.7156 -0.1003
 6884SOL     OW21245   4.283   5.740   1.790 -0.2852  0.2113 -0.3776
 6884SOL    HW121246   4.273   5.725   1.696 -4.3551  0.1596  0.0005
 6884SOL    HW221247   4.308   5.654   1.825 -1.8578 -0.5254 -1.0166
 6885SOL     OW21248   6.353   1.917   6.977  0.5173  0.1736 -0.4269
 6885SOL    HW121249   6.382   1.979   6.911  1.3571  0.4063  0.1543
 6885SOL    HW221250   6.427   1.857   6.988  1.1322  1.2309  1.6192
 6886SOL     OW21251   3.428   6.339   6.238 -0.3681 -0.2481 -0.0875
 6886SOL    HW121252   3.408   6.294   6.320 -1.1088  1.0967  0.4823
 6886SOL    HW221253   3.459   6.270   6.180  2.4081 -0.9023  2.0475
 6887SOL     OW21254   3.285   2.964   3.295  0.0586 -0.2387 -0.2747
 6887SOL    HW121255   3.309   2.953   3.387 -2.6069  2.0826  0.7689
 6887SOL    HW221256   3.334   3.041   3.267  1.3434 -1.3086 -1.0011
 6888SOL     OW21257   3.896   2.945   1.750  0.7348 -0.3222  0.2606
 6888SOL    HW121258   3.888   2.889   1.673  0.6989  0.2547 -0.1608
 6888SOL    HW221259   3.938   2.890   1.815  1.2693 -0.6503 -0.3538
 6889SOL     OW21260   4.702   0.106   4.289 -0.1754  0.0068 -0.0183
 6889SOL    HW121261   4.617   0.135   4.322  0.4079  1.4793  0.2084
 6889SOL    HW221262   4.680   0.053   4.212 -1.2989  0.5441 -0.0837
 6890SOL     OW21263   4.664   4.626   3.804  0.1225 -0.0139 -0.1116
 6890SOL    HW121264   4.581   4.605   3.761 -0.9308  1.2970  1.2268
 6890SOL    HW221265   4.714   4.673   3.737 -0.5678 -0.0316 -0.6420
 6891SOL     OW21266   2.313   7.109   1.377  0.5264 -0.5483 -0.3053
 6891SOL    HW121267   2.389   7.164   1.360 -0.4469 -0.0921 -3.6195
 6891SOL    HW221268   2.247   7.170   1.411  0.5367 -0.2841 -0.7507
 6892SOL     OW21269   0.726   2.105   4.027  0.2143 -0.3780 -0.6338
 6892SOL    HW121270   0.691   2.073   4.110  0.2510  2.2322  0.4252
 6892SOL    HW221271   0.651   2.107   3.968 -0.3900  0.3562  0.1511
 6893SOL     OW21272   4.225   5.522   5.517 -0.1404 -0.0358 -0.0461
 6893SOL    HW121273   4.314   5.516   5.483 -0.2025 -0.4257 -0.1326
 6893SOL    HW221274   4.231   5.489   5.606 -0.5663 -1.8812 -0.6789
 6894SOL     OW21275   1.650   4.766   5.487 -1.2342 -0.4701  0.1564
 6894SOL    HW121276   1.664   4.734   5.576 -1.3750  0.8561  0.6761
 6894SOL    HW221277   1.730   4.743   5.441 -0.8626 -0.5308  0.8204
 6895SOL     OW21278   6.895   3.495   0.488  0.5968 -0.1277  0.1164
 6895SOL    HW121279   6.895   3.407   0.526 -0.5766 -0.2513 -0.1508
 6895SOL    HW221280   6.956   3.490   0.414  1.1564 -0.4915  0.6031
 6896SOL     OW21281   2.785   2.238   4.078  0.3074 -0.2064  0.2210
 6896SOL    HW121282   2.718   2.299   4.110  0.9685  1.6821 -1.8291
 6896SOL    HW221283   2.739   2.186   4.011  0.8940  1.2532 -1.3588
 6897SOL     OW21284   3.959   1.140   5.110  0.0634 -0.0355  0.5479
 6897SOL    HW121285   3.960   1.166   5.017  0.4710  0.0456  0.5749
 6897SOL    HW221286   3.965   1.044   5.108  1.7421  0.0687  0.5392
 6898SOL     OW21287   1.293   4.774   5.230  0.1987 -0.2741  0.7158
 6898SOL    HW121288   1.273   4.823   5.309 -0.3450  2.4216 -1.0256
 6898SOL    HW221289   1.387   4.753   5.238  0.3507  0.7467  1.6528
 6899SOL     OW21290   4.469   0.120   3.443  0.1543 -0.0718 -0.3329
 6899SOL    HW121291   4.382   0.149   3.467  1.3738  0.3832  3.9255
 6899SOL    HW221292   4.457   0.030   3.413 -1.5562 -0.7273  2.1622
 6900SOL     OW21293   0.575   0.354   6.166  0.1433  0.0564 -0.2460
 6900SOL    HW121294   0.585   0.302   6.246  0.3086 -1.6938 -1.3824
 6900SOL    HW221295   0.645   0.419   6.170  0.9362 -0.8369  0.4041
 6901SOL     OW21296   2.125   0.748   1.472  0.2997  0.1793  0.4393
 6901SOL    HW121297   2.070   0.719   1.545 -0.3443 -0.4696 -0.3017
 6901SOL    HW221298   2.074   0.817   1.430  0.3071 -0.0248  0.0962
 6902SOL     OW21299   6.525   6.697   5.380  0.1898 -0.4948 -0.4552
 6902SOL    HW121300   6.591   6.695   5.450  0.0833 -0.0429 -0.3414
 6902SOL    HW221301   6.563   6.645   5.310 -0.3503 -2.2325  0.5168
 6903SOL     OW21302   1.810   1.987   1.193  0.5783  0.4476 -0.3380
 6903SOL    HW121303   1.756   1.909   1.177  1.2850  0.1054 -1.0643
 6903SOL    HW221304   1.781   2.019   1.279  0.3301 -0.6518 -0.0061
 6904SOL     OW21305   6.803   4.626   4.663  0.4127 -0.3487  0.1513
 6904SOL    HW121306   6.821   4.667   4.578 -0.1731  1.8491  1.0763
 6904SOL    HW221307   6.710   4.639   4.677  0.5085 -0.7001  1.1580
 6905SOL     OW21308   1.837   5.512   2.037 -0.3753 -0.4100  0.0535
 6905SOL    HW121309   1.892   5.585   2.008 -0.2039 -1.3430 -2.0686
 6905SOL    HW221310   1.780   5.494   1.962  1.2598 -4.0678 -0.3889
 6906SOL     OW21311   4.839   2.736   5.671  0.2320  0.0914  0.0737
 6906SOL    HW121312   4.781   2.707   5.742 -1.0503  3.1239  0.3166
 6906SOL    HW221313   4.900   2.797   5.713  0.5727  0.5795 -1.1210
 6907SOL     OW21314   0.592   5.468   5.555  0.1216 -1.1366 -0.4323
 6907SOL    HW121315   0.652   5.454   5.481  0.2792  1.2479 -0.8232
 6907SOL    HW221316   0.646   5.511   5.621 -1.1129  1.2066 -0.8589
 6908SOL     OW21317   3.660   5.800   4.190 -0.3062 -0.0438  0.3635
 6908SOL    HW121318   3.673   5.761   4.104 -0.3998 -1.9031  1.1529
 6908SOL    HW221319   3.695   5.889   4.183  1.8564 -0.9737 -0.9220
 6909SOL     OW21320   4.552   3.879   0.781 -0.0377 -0.1506 -0.2123
 6909SOL    HW121321   4.588   3.825   0.711 -1.4309  2.0931 -2.7530
 6909SOL    HW221322   4.536   3.818   0.853  3.6361 -2.0864 -0.9656
 6910SOL     OW21323   4.750   0.897   2.862  0.4523 -0.3245  0.1410
 6910SOL    HW121324   4.772   0.952   2.938 -0.2076 -1.5066  1.1994
 6910SOL    HW221325   4.815   0.827   2.863  0.9382  0.0954 -0.8719
 6911SOL     OW21326   1.106   6.117   2.338 -0.3771 -0.2360 -0.2855
 6911SOL    HW121327   1.133   6.178   2.407  0.4339 -0.7867 -0.1162
 6911SOL    HW221328   1.050   6.170   2.280 -0.0864  0.5403  0.1364
 6912SOL     OW21329   1.938   2.858   3.937 -0.2557  0.0620  0.1594
 6912SOL    HW121330   1.846   2.832   3.927 -0.3351  0.5761 -0.4786
 6912SOL    HW221331   1.934   2.936   3.992 -0.2621  0.5140 -0.4784
 6913SOL     OW21332   0.167   6.023   3.833 -0.6405  0.2209 -0.4183
 6913SOL    HW121333   0.187   6.001   3.924  0.7875  0.6375 -0.6114
 6913SOL    HW221334   0.248   6.063   3.800 -1.4788  0.9860 -1.5778
 6914SOL     OW21335   3.518   4.807   4.987  0.3279 -0.1018  0.0378
 6914SOL    HW121336   3.444   4.854   5.026  0.2730  0.5890 -0.8688
 6914SOL    HW221337   3.552   4.867   4.920  0.2194 -1.3613 -1.1825
 6915SOL     OW21338   6.552   6.234   2.168  0.1699 -0.2243  0.1592
 6915SOL    HW121339   6.590   6.191   2.245 -0.3563 -1.6558 -0.3693
 6915SOL    HW221340   6.618   6.223   2.100 -0.4826 -1.2785 -0.3118
 6916SOL     OW21341   2.443   2.712   4.724 -0.5192  0.2069 -0.2207
 6916SOL    HW121342   2.477   2.639   4.776 -0.3498  0.7508  0.4498
 6916SOL    HW221343   2.520   2.750   4.682 -0.5512  0.2415 -0.2491
 6917SOL     OW21344   0.342   6.196   1.743 -0.1293  0.2072  0.2501
 6917SOL    HW121345   0.402   6.266   1.718 -0.8213 -0.0191 -2.2111
 6917SOL    HW221346   0.276   6.195   1.673 -1.3621 -1.4336  1.4098
 6918SOL     OW21347   6.856   3.738   5.731  0.0818 -0.3880 -0.4623
 6918SOL    HW121348   6.913   3.814   5.743 -0.2892  0.0294 -1.2641
 6918SOL    HW221349   6.916   3.663   5.730  0.5429 -0.0229 -0.5356
 6919SOL     OW21350   4.947   6.639   5.655  0.3016 -0.7566 -0.4754
 6919SOL    HW121351   4.886   6.698   5.610  0.1857 -1.2251 -0.9392
 6919SOL    HW221352   4.957   6.677   5.742  0.3075  0.0120 -0.8020
 6920SOL     OW21353   3.980   1.819   1.658  0.1453  0.2692 -0.8043
 6920SOL    HW121354   4.062   1.770   1.658 -0.5472 -0.9134 -0.9242
 6920SOL    HW221355   3.999   1.899   1.708  1.4524  0.1655 -1.1181
 6921SOL     OW21356   0.391   5.531   0.518  0.1508  0.3343  0.0549
 6921SOL    HW121357   0.437   5.454   0.551 -0.8020  0.0130  0.6728
 6921SOL    HW221358   0.390   5.592   0.592  1.6762  1.3190 -0.7009
 6922SOL     OW21359   0.240   6.111   5.090 -0.4696 -0.0883 -0.1719
 6922SOL    HW121360   0.174   6.180   5.080 -1.2335 -0.7099  0.5795
 6922SOL    HW221361   0.293   6.117   5.010 -1.7221  0.1010 -0.9916
 6923SOL     OW21362   4.439   5.544   6.919 -0.0204  0.2955 -0.3185
 6923SOL    HW121363   4.434   5.552   6.823 -2.4132  0.1476 -0.2421
 6923SOL    HW221364   4.468   5.455   6.934 -0.6422 -0.0092 -0.8974
 6924SOL     OW21365   0.515   6.255   5.874  0.3793 -0.3530 -0.7368
 6924SOL    HW121366   0.484   6.195   5.806 -0.5981 -2.0519  1.1599
 6924SOL    HW221367   0.435   6.288   5.914  0.9302  1.6758 -1.2577
 6925SOL     OW21368   2.829   5.533   2.318 -0.4819 -0.2376  0.2120
 6925SOL    HW121369   2.888   5.490   2.380  1.4464 -1.2791 -2.2156
 6925SOL    HW221370   2.842   5.627   2.334  1.1873 -0.4688  0.3344
 6926SOL     OW21371   6.504   5.383   1.453  0.0324  0.2724 -0.3457
 6926SOL    HW121372   6.469   5.471   1.436 -1.8032 -0.2438  0.7125
 6926SOL    HW221373   6.430   5.334   1.489  1.3585 -1.3819  0.1648
 6927SOL     OW21374   0.053   0.239   2.127  0.0148  0.2363  0.2134
 6927SOL    HW121375   0.071   0.150   2.157 -1.8152 -1.1274 -2.5054
 6927SOL    HW221376   0.133   0.267   2.083 -0.4315 -1.2549 -1.5828
 6928SOL     OW21377   6.938   0.732   3.918  0.0326  0.3477 -0.2914
 6928SOL    HW121378   6.970   0.798   3.980 -0.5377 -0.4112  0.8217
 6928SOL    HW221379   6.844   0.750   3.910  0.2920  1.1274 -1.7917
 6929SOL     OW21380   5.894   6.469   4.688 -0.2328 -0.3385 -0.2826
 6929SOL    HW121381   5.876   6.530   4.616  0.0265  0.4008  0.2637
 6929SOL    HW221382   5.933   6.524   4.756  1.1857 -1.3479 -0.2596
 6930SOL     OW21383   2.095   6.140   2.176 -0.0688  0.0763  0.2838
 6930SOL    HW121384   2.080   6.184   2.092 -3.7910  0.9412  1.3176
 6930SOL    HW221385   2.149   6.202   2.225  0.6669  0.3378 -0.8311
 6931SOL     OW21386   1.505   2.608   5.500 -0.1127  0.0566 -0.5243
 6931SOL    HW121387   1.459   2.574   5.577 -1.5020 -0.4917 -1.5799
 6931SOL    HW221388   1.439   2.606   5.430  1.1462  0.5069 -1.7364
 6932SOL     OW21389   0.043   1.195   0.580  0.1829 -0.3468 -0.2386
 6932SOL    HW121390   0.038   1.223   0.671  2.1300  1.6408 -0.7093
 6932SOL    HW221391   0.088   1.111   0.583 -0.7630 -0.8261  0.7162
 6933SOL     OW21392   2.579   2.964   2.655  0.5024  0.3180 -0.2259
 6933SOL    HW121393   2.620   2.877   2.660 -1.4735 -0.5551  2.2823
 6933SOL    HW221394   2.565   2.989   2.747 -2.8363  1.3522 -0.9486
 6934SOL     OW21395   5.254   5.383   0.569  0.1906  0.1693 -0.2315
 6934SOL    HW121396   5.181   5.437   0.600  0.3034 -0.6315  1.5150
 6934SOL    HW221397   5.325   5.400   0.632  0.1137 -2.2180  0.5517
 6935SOL     OW21398   0.631   6.845   6.036 -0.4105 -0.4920 -0.3603
 6935SOL    HW121399   0.683   6.880   5.964  0.1150 -0.7300 -0.0961
 6935SOL    HW221400   0.694   6.803   6.094 -0.5924  1.2833  1.1761
 6936SOL     OW21401   2.251   0.609   3.317  0.1431 -0.3083 -0.4952
 6936SOL    HW121402   2.286   0.545   3.255  1.3793  0.1029 -0.2263
 6936SOL    HW221403   2.201   0.670   3.262 -1.5184 -1.7906 -0.6889
 6937SOL     OW21404   3.438   0.740   4.250  0.2224  0.0192 -1.0253
 6937SOL    HW121405   3.443   0.657   4.204 -1.0010 -0.5756 -0.0913
 6937SOL    HW221406   3.518   0.743   4.303 -0.2691 -1.0791 -0.2038
 6938SOL     OW21407   6.368   1.065   2.851 -0.7334  0.1454  0.1087
 6938SOL    HW121408   6.339   0.974   2.854 -1.0395  0.2159 -0.6509
 6938SOL    HW221409   6.364   1.089   2.758  0.7831  0.4673  0.1068
 6939SOL     OW21410   6.035   4.515   7.195 -0.4483  0.5197 -0.3001
 6939SOL    HW121411   6.066   4.431   7.228  1.8067  1.0228 -1.0876
 6939SOL    HW221412   5.996   4.558   7.271 -0.8649 -0.8795  0.2946
 6940SOL     OW21413   5.923   0.927   5.005  0.5701 -0.1692  0.0651
 6940SOL    HW121414   5.963   1.013   5.019  1.7777 -0.5306 -1.1287
 6940SOL    HW221415   5.951   0.875   5.081 -2.1405  1.1641  2.0533
 6941SOL     OW21416   5.674   6.468   6.757  0.3239  0.6885 -0.3428
 6941SOL    HW121417   5.769   6.472   6.749  0.2746  0.3982 -1.1306
 6941SOL    HW221418   5.644   6.436   6.672 -0.5068  1.1428 -0.2250
 6942SOL     OW21419   4.952   0.633   3.988  0.0378  0.2022 -0.1330
 6942SOL    HW121420   4.863   0.600   3.975  0.1032 -0.4334  0.9061
 6942SOL    HW221421   4.950   0.671   4.076  0.4755  1.2557 -0.5801
 6943SOL     OW21422   6.681   4.960   1.561  0.4308 -0.6621 -0.3150
 6943SOL    HW121423   6.751   4.996   1.616  0.8101 -0.0658 -1.1808
 6943SOL    HW221424   6.726   4.899   1.502  0.4845  0.9335 -1.9717
 6944SOL     OW21425   0.043   2.604   3.862 -1.2016 -0.5524  0.3230
 6944SOL    HW121426   0.008   2.548   3.793 -1.0135  0.2049 -0.4002
 6944SOL    HW221427   0.031   2.693   3.828  0.6425 -0.2423  0.4446
 6945SOL     OW21428   1.259   2.039   0.360 -0.3895 -0.3154  0.3929
 6945SOL    HW121429   1.287   2.000   0.278 -0.2615 -0.6002  0.5715
 6945SOL    HW221430   1.181   1.989   0.385  1.1458 -2.0566  1.8419
 6946SOL     OW21431   6.610   4.635   5.156  0.5275 -0.2988  0.2675
 6946SOL    HW121432   6.555   4.633   5.234 -0.0654 -0.0016 -0.1450
 6946SOL    HW221433   6.552   4.663   5.086  1.1597 -0.1582 -0.2039
 6947SOL     OW21434   0.627   3.674   3.717  0.0210 -0.3347  0.2326
 6947SOL    HW121435   0.552   3.648   3.663 -1.4735 -0.2494  2.1698
 6947SOL    HW221436   0.647   3.763   3.690 -0.5985 -0.3550 -0.2968
 6948SOL     OW21437   5.133   0.411   3.397  0.2324 -0.2050  0.3501
 6948SOL    HW121438   5.225   0.435   3.402  0.6772 -1.6291 -0.8282
 6948SOL    HW221439   5.110   0.417   3.304 -1.4859  2.3319  0.8797
 6949SOL     OW21440   0.621   1.425   3.238 -0.3150 -0.9334  0.5336
 6949SOL    HW121441   0.661   1.422   3.325 -0.1062 -1.9746  0.4104
 6949SOL    HW221442   0.606   1.333   3.215 -1.8274 -0.6103  0.1411
 6950SOL     OW21443   3.887   4.450   2.185 -0.0871 -0.3879 -0.2272
 6950SOL    HW121444   3.821   4.383   2.206 -0.1621 -0.6426 -1.2376
 6950SOL    HW221445   3.969   4.402   2.182  0.1504 -0.0768  0.9930
 6951SOL     OW21446   2.597   5.166   2.262  0.1955 -0.2090  0.3207
 6951SOL    HW121447   2.677   5.144   2.309  2.0821  2.6113 -1.4243
 6951SOL    HW221448   2.590   5.261   2.270 -1.1113 -0.0325 -2.4267
 6952SOL     OW21449   6.229   0.042   0.345 -0.3985 -0.1360 -0.3981
 6952SOL    HW121450   6.200   0.068   0.257 -0.5544 -0.4301 -0.4354
 6952SOL    HW221451   6.262  -0.048   0.333  0.7573  0.2803 -0.4040
 6953SOL     OW21452   7.246   1.105   5.462  0.0848  0.3115  0.2089
 6953SOL    HW121453   7.221   1.168   5.395 -0.8495  2.1985  2.2574
 6953SOL    HW221454   7.341   1.108   5.463  0.0534  2.6300  1.0599
 6954SOL     OW21455   6.610   5.337   6.063  0.2695 -0.4916 -0.1636
 6954SOL    HW121456   6.660   5.284   6.001 -1.4362 -1.7516 -0.4984
 6954SOL    HW221457   6.610   5.286   6.144  1.0764  0.3748  0.4014
 6955SOL     OW21458   5.845   3.651   4.171 -0.4547 -0.1511  0.2229
 6955SOL    HW121459   5.881   3.578   4.222 -1.8447 -0.0011  1.4637
 6955SOL    HW221460   5.845   3.725   4.232 -0.6637  0.4405 -0.4922
 6956SOL     OW21461   5.276   2.973   2.060 -0.4054  0.0744 -0.2283
 6956SOL    HW121462   5.364   3.006   2.044 -0.1793 -0.4028  0.0316
 6956SOL    HW221463   5.227   2.998   1.981  0.9735 -3.1628 -2.2012
 6957SOL     OW21464   7.184   6.546   6.652  0.0377 -0.0637  0.1485
 6957SOL    HW121465   7.230   6.545   6.735 -0.4382 -0.0212  0.4152
 6957SOL    HW221466   7.169   6.454   6.631 -1.2476 -0.0398  0.9005
 6958SOL     OW21467   0.598   2.378   2.053  0.0604  0.1989  0.4176
 6958SOL    HW121468   0.561   2.415   2.133 -0.7939 -0.7273  0.4609
 6958SOL    HW221469   0.625   2.454   2.001 -0.2935  0.8304  1.1511
 6959SOL     OW21470   1.497   3.110   2.898  0.4063 -0.4672 -0.3752
 6959SOL    HW121471   1.482   3.078   2.809 -0.3674  0.6514 -0.6610
 6959SOL    HW221472   1.409   3.115   2.936  0.7860 -1.5406  0.6677
 6960SOL     OW21473   1.313   3.130   3.978  0.0628  0.0022  0.5804
 6960SOL    HW121474   1.315   3.082   4.061  1.5844 -0.5824  0.2064
 6960SOL    HW221475   1.375   3.202   3.990  0.0827  0.0747  0.0447
 6961SOL     OW21476   0.473   4.209   0.780  0.0663 -0.0955  0.2124
 6961SOL    HW121477   0.426   4.214   0.697 -0.1993  0.0804  0.3711
 6961SOL    HW221478   0.410   4.166   0.839 -0.0637  0.5565  0.5468
 6962SOL     OW21479   5.327   3.117   4.233  0.3334 -0.2836 -0.4950
 6962SOL    HW121480   5.267   3.181   4.272 -0.8484  0.2868 -3.1591
 6962SOL    HW221481   5.400   3.169   4.200  1.6856 -0.8436  1.4861
 6963SOL     OW21482   5.607   6.131   5.820  0.1319  0.0939 -0.2919
 6963SOL    HW121483   5.515   6.127   5.847  0.8389  0.1930  2.2827
 6963SOL    HW221484   5.626   6.224   5.811  0.3238  0.1324  0.4711
 6964SOL     OW21485   3.201   0.666   5.471 -0.0530 -0.1854  0.4102
 6964SOL    HW121486   3.107   0.678   5.459 -0.4231 -0.4136  2.7198
 6964SOL    HW221487   3.242   0.726   5.409 -1.7562  1.1668  0.5738
 6965SOL     OW21488   3.334   5.124   2.079  0.6039 -0.5157  0.5570
 6965SOL    HW121489   3.255   5.074   2.094  0.6398 -0.4892  0.8293
 6965SOL    HW221490   3.382   5.121   2.162  0.7100 -0.2198  0.5104
 6966SOL     OW21491   7.163   6.353   6.029 -0.4417  0.1518 -0.0641
 6966SOL    HW121492   7.148   6.280   5.969  0.9291  0.4105 -0.7283
 6966SOL    HW221493   7.245   6.392   6.000  0.1522  0.3971  1.8837
 6967SOL     OW21494   4.002   2.679   1.119 -0.1488 -0.3001 -0.1474
 6967SOL    HW121495   4.017   2.771   1.097  1.2528 -0.3285  0.6733
 6967SOL    HW221496   3.907   2.671   1.120 -0.3397  1.6574  1.8958
 6968SOL     OW21497   4.260   3.985   6.060  0.0145  0.1826  0.0207
 6968SOL    HW121498   4.347   3.971   6.020  0.3253 -0.5037  0.9084
 6968SOL    HW221499   4.273   4.057   6.121 -0.2369  0.6136 -0.4336
 6969SOL     OW21500   6.726   4.192   1.634  0.0690  0.3862 -0.2521
 6969SOL    HW121501   6.797   4.132   1.657  1.1858  1.0454 -1.9078
 6969SOL    HW221502   6.742   4.214   1.542 -1.2044  2.0226 -0.0994
 6970SOL     OW21503   4.293   0.069   1.976 -0.2226  0.3406 -1.0420
 6970SOL    HW121504   4.295  -0.018   1.937  0.0386 -0.4986  0.7900
 6970SOL    HW221505   4.205   0.077   2.012  0.4201  0.0025  0.6219
 6971SOL     OW21506   0.068   7.094   1.363 -0.0140 -0.0852  0.9636
 6971SOL    HW121507  -0.026   7.103   1.383  0.5135  1.6348  2.7326
 6971SOL    HW221508   0.112   7.107   1.447  1.8649 -0.4555  0.0589
 6972SOL     OW21509   0.730   0.685   0.280 -0.2098  0.1872 -0.0011
 6972SOL    HW121510   0.634   0.685   0.275 -0.1224 -0.4156 -1.9902
 6972SOL    HW221511   0.752   0.608   0.333 -0.8493  0.8418  1.2298
 6973SOL     OW21512   6.586   0.069   3.245  0.4767  0.4150 -0.2344
 6973SOL    HW121513   6.532   0.148   3.245 -0.4575 -0.2066 -1.7856
 6973SOL    HW221514   6.649   0.083   3.174 -1.6244 -1.4905 -2.5491
 6974SOL     OW21515   0.156   5.690   4.571 -0.0268 -0.4526  0.0324
 6974SOL    HW121516   0.248   5.717   4.576  0.2874 -1.8914  2.6551
 6974SOL    HW221517   0.150   5.640   4.490  1.4956 -0.3367 -0.1627
 6975SOL     OW21518   5.278   3.163   1.281  0.3082  0.6232 -0.1312
 6975SOL    HW121519   5.307   3.192   1.367 -0.4574 -0.4151  0.4745
 6975SOL    HW221520   5.184   3.148   1.290  0.5785 -1.5772 -0.5365
 6976SOL     OW21521   6.387   1.228   0.415  0.2730  0.3993  0.1210
 6976SOL    HW121522   6.308   1.274   0.386 -0.7950 -2.3810 -1.5245
 6976SOL    HW221523   6.455   1.255   0.354  0.1563  1.3235  0.3885
 6977SOL     OW21524   3.207   1.636   4.521 -0.1688  0.0574 -0.1969
 6977SOL    HW121525   3.164   1.673   4.443  0.5411  0.3028 -0.4698
 6977SOL    HW221526   3.134   1.614   4.579 -0.7948 -1.2676 -1.4268
 6978SOL     OW21527   3.438   0.866   1.779 -0.1862 -0.3058 -0.4967
 6978SOL    HW121528   3.404   0.785   1.740  0.5254 -1.4877  1.2635
 6978SOL    HW221529   3.482   0.837   1.859 -0.3007  1.8918  0.3884
 6979SOL     OW21530   4.002   5.492   4.892  0.2481  0.3720 -0.4862
 6979SOL    HW121531   4.091   5.461   4.906 -1.0033 -3.0189  0.3072
 6979SOL    HW221532   3.984   5.549   4.966  0.5389 -1.7912  1.2918
 6980SOL     OW21533   0.983   2.549   0.897  0.3637  0.4879 -0.6063
 6980SOL    HW121534   1.021   2.516   0.979  1.2009 -0.1737 -1.2539
 6980SOL    HW221535   0.888   2.539   0.910  0.5446 -0.9627 -0.2651
 6981SOL     OW21536   7.056   6.672   4.159  0.1051 -0.4713  0.2490
 6981SOL    HW121537   7.027   6.607   4.223 -1.7799  0.6821  0.5943
 6981SOL    HW221538   7.022   6.640   4.075 -1.1139  0.2193  0.4679
 6982SOL     OW21539   5.261   1.171   4.989 -0.1833  0.1060  0.0397
 6982SOL    HW121540   5.178   1.130   4.965 -0.1962  0.5677 -0.6971
 6982SOL    HW221541   5.250   1.263   4.968  0.3508  0.2518  0.3831
 6983SOL     OW21542   4.512   4.027   7.175 -0.0455 -0.0066  0.1878
 6983SOL    HW121543   4.424   4.014   7.139 -0.2466  0.4166  0.5166
 6983SOL    HW221544   4.532   3.943   7.218 -0.5441  0.0964  0.6363
 6984SOL     OW21545   1.025   6.894   1.928  0.2258 -0.1358 -0.1316
 6984SOL    HW121546   1.089   6.823   1.929  0.3742 -0.0295 -1.0601
 6984SOL    HW221547   0.978   6.882   1.845  1.2086  1.6696 -0.9831
 6985SOL     OW21548   0.806   3.542   5.675 -0.1916 -0.0740 -0.7588
 6985SOL    HW121549   0.845   3.575   5.756 -1.6794 -2.6112  1.0668
 6985SOL    HW221550   0.860   3.467   5.652 -1.5801 -1.1832 -0.4261
 6986SOL     OW21551   3.184   3.606   7.039  0.2176  0.2858  0.4136
 6986SOL    HW121552   3.264   3.646   7.004  0.0415  0.7350  0.5223
 6986SOL    HW221553   3.120   3.677   7.041  0.6029  0.5941  2.9317
 6987SOL     OW21554   3.978   6.006   3.766 -0.5120 -0.2095 -0.0473
 6987SOL    HW121555   3.934   6.087   3.742  0.2971  0.1884 -0.2159
 6987SOL    HW221556   4.060   6.008   3.716 -0.5622 -1.2055 -0.1790
 6988SOL     OW21557   6.494   6.542   4.582  0.1779 -0.0519  0.1812
 6988SOL    HW121558   6.427   6.490   4.627  0.5573 -0.7749 -0.0884
 6988SOL    HW221559   6.549   6.478   4.537 -0.2228  0.6743 -1.3658
 6989SOL     OW21560   3.736   5.253   0.416  0.2675  0.1825  0.1653
 6989SOL    HW121561   3.831   5.262   0.415  0.1878  1.0187 -0.2632
 6989SOL    HW221562   3.712   5.239   0.324  0.0225 -0.5545  0.3363
 6990SOL     OW21563   5.058   5.072   7.177  0.2361 -0.0764  0.2497
 6990SOL    HW121564   5.071   4.977   7.181  1.3109  0.0851  0.8624
 6990SOL    HW221565   5.059   5.100   7.269  1.4508  0.7235  0.0009
 6991SOL     OW21566   5.987   1.645   4.124 -0.1160  0.2026  0.3166
 6991SOL    HW121567   6.050   1.573   4.123  0.4596  0.6977  0.1353
 6991SOL    HW221568   5.963   1.655   4.216  0.1027  0.0328  0.3939
 6992SOL     OW21569   3.137   6.959   3.274 -0.3211  0.0253  0.5673
 6992SOL    HW121570   3.049   6.992   3.287  0.2054  1.4870  0.4940
 6992SOL    HW221571   3.155   6.974   3.181  0.1346  0.0485  0.6555
 6993SOL     OW21572   4.500   4.447   7.229  0.0036 -0.0802 -0.2526
 6993SOL    HW121573   4.406   4.437   7.213  0.1215  0.8222 -1.5938
 6993SOL    HW221574   4.519   4.384   7.299 -1.6186 -0.1634  0.1367
 6994SOL     OW21575   3.078   5.849   1.460  0.0226 -0.2215  0.4449
 6994SOL    HW121576   3.038   5.895   1.386 -0.9537 -0.2185  0.9566
 6994SOL    HW221577   3.101   5.918   1.522 -0.5524 -0.3260  0.7887
 6995SOL     OW21578   2.719   3.379   6.441 -0.3908 -0.0775  0.0589
 6995SOL    HW121579   2.724   3.375   6.536  0.5087  1.1411  0.0827
 6995SOL    HW221580   2.712   3.473   6.422 -1.1240 -0.3502 -1.0468
 6996SOL     OW21581   5.493   4.067   2.672 -0.1274 -0.8665  0.5836
 6996SOL    HW121582   5.440   4.041   2.596  0.4320  0.0644 -0.1326
 6996SOL    HW221583   5.468   4.005   2.741 -0.8069 -1.5807 -0.2908
 6997SOL     OW21584   5.308   1.664   0.783 -0.1485  0.5460 -0.0317
 6997SOL    HW121585   5.354   1.717   0.718 -0.8633  2.0022  0.6309
 6997SOL    HW221586   5.276   1.589   0.734 -0.0583  1.2644 -1.2216
 6998SOL     OW21587   2.334   0.367   6.565 -0.6689  0.0735  0.7182
 6998SOL    HW121588   2.362   0.341   6.653 -1.8658 -0.2647  0.9965
 6998SOL    HW221589   2.410   0.413   6.529 -0.5404  1.1272  2.3033
 6999SOL     OW21590   4.121   3.280   3.414  0.1524  0.3432 -0.6474
 6999SOL    HW121591   4.123   3.202   3.469  1.6447 -0.0372 -1.2085
 6999SOL    HW221592   4.128   3.353   3.476  2.8819 -0.1085 -0.3400
 7000SOL     OW21593   1.947   0.041   4.620  0.0790  0.0728 -0.1050
 7000SOL    HW121594   1.923   0.111   4.559 -0.7345  1.6912  2.0367
 7000SOL    HW221595   1.916  -0.039   4.577 -0.5522  1.1755 -1.7780
 7001SOL     OW21596   4.262   5.351   5.230 -0.4087 -0.1449 -0.7196
 7001SOL    HW121597   4.288   5.276   5.176  0.6108 -0.1110 -0.2970
 7001SOL    HW221598   4.170   5.336   5.250 -0.3368 -1.0380 -1.0442
 7002SOL     OW21599   6.304   3.814   4.105  0.2957  0.4184  0.6908
 7002SOL    HW121600   6.267   3.814   4.193 -1.1652  3.3361  0.1466
 7002SOL    HW221601   6.237   3.772   4.051 -0.0866  1.2466  0.5128
 7003SOL     OW21602   4.288   0.410   3.196 -0.4198  0.2317 -0.0907
 7003SOL    HW121603   4.211   0.354   3.185 -1.9157  1.8986  1.4894
 7003SOL    HW221604   4.267   0.489   3.147  0.4272  0.5711  0.0826
 7004SOL     OW21605   2.689   0.114   3.153 -0.7188 -0.1401 -0.2239
 7004SOL    HW121606   2.695   0.052   3.081 -0.0412  0.3099 -0.5619
 7004SOL    HW221607   2.672   0.198   3.111 -0.0483  0.1702  0.1177
 7005SOL     OW21608   6.735   6.709   1.575  0.3710 -0.6290 -0.0667
 7005SOL    HW121609   6.811   6.708   1.632  0.4569 -2.1853 -0.1798
 7005SOL    HW221610   6.768   6.742   1.492  0.8211 -0.8248  0.0322
 7006SOL     OW21611   2.272   5.514   4.632 -0.0848 -0.0856 -0.2417
 7006SOL    HW121612   2.217   5.462   4.574  1.3818 -1.3956 -0.4568
 7006SOL    HW221613   2.235   5.498   4.719 -0.0887 -0.9092 -0.3884
 7007SOL     OW21614   5.014   2.975   7.213  0.0920  0.5023  0.3035
 7007SOL    HW121615   5.057   2.973   7.299 -1.6372  2.3093  1.2406
 7007SOL    HW221616   5.075   3.022   7.156 -0.8039  3.5914  1.7764
 7008SOL     OW21617   1.927   3.384   3.961  0.1428 -0.2652  0.3834
 7008SOL    HW121618   1.921   3.353   4.052  0.1393 -0.6028  0.2695
 7008SOL    HW221619   1.931   3.479   3.969  1.9186 -0.3572  0.8331
 7009SOL     OW21620   5.489   5.967   4.464 -0.2243 -0.3010 -0.5166
 7009SOL    HW121621   5.416   5.985   4.524  0.8409 -0.3334  0.8043
 7009SOL    HW221622   5.479   5.874   4.443  1.6925 -1.3467  2.8095
 7010SOL     OW21623   2.442   3.307   7.056  0.1204  0.3875 -0.3061
 7010SOL    HW121624   2.442   3.257   6.975  0.4252  1.5539 -1.0364
 7010SOL    HW221625   2.359   3.285   7.098 -0.2024  0.0548 -1.1117
 7011SOL     OW21626   0.408   3.859   0.473  0.5657 -0.1759 -0.1171
 7011SOL    HW121627   0.359   3.895   0.547  0.3389  1.5690 -1.0949
 7011SOL    HW221628   0.495   3.839   0.509  0.4310  0.5868  0.6348
 7012SOL     OW21629   2.751   4.388   4.852  0.2225  0.0710 -0.0261
 7012SOL    HW121630   2.729   4.422   4.938  2.6566  1.5933  0.0263
 7012SOL    HW221631   2.719   4.455   4.791  2.3954  1.1170 -0.0616
 7013SOL     OW21632   3.411   5.601   0.813 -0.3371  0.3408  0.1668
 7013SOL    HW121633   3.403   5.593   0.718 -2.3633 -1.3972  0.4442
 7013SOL    HW221634   3.504   5.582   0.831 -0.0352  0.2736 -1.4209
 7014SOL     OW21635   3.748   5.515   5.708  0.3055 -0.4417 -0.0657
 7014SOL    HW121636   3.838   5.489   5.728  0.7032  1.1358  0.2963
 7014SOL    HW221637   3.694   5.467   5.770  1.0160 -0.3439  0.6330
 7015SOL     OW21638   6.532   2.894   2.175 -0.0682  0.1155  0.4931
 7015SOL    HW121639   6.507   2.804   2.197  0.1861 -0.4148 -1.2749
 7015SOL    HW221640   6.627   2.896   2.189  0.0157 -0.0683 -0.0446
 7016SOL     OW21641   6.968   0.269   2.551  0.2208  0.2010  0.1625
 7016SOL    HW121642   6.992   0.198   2.490 -1.1573 -1.9287  2.0150
 7016SOL    HW221643   7.051   0.307   2.578  1.1045 -1.8261  0.3886
 7017SOL     OW21644   4.381   3.981   1.225 -0.2484 -0.4385 -0.4511
 7017SOL    HW121645   4.400   4.046   1.293 -1.5524 -0.9883  0.4534
 7017SOL    HW221646   4.357   4.033   1.149 -1.2220  0.1542  0.2514
 7018SOL     OW21647   1.258   2.978   4.666 -0.2828 -0.0036 -0.2052
 7018SOL    HW121648   1.191   2.973   4.598  0.6513 -0.1091 -1.1409
 7018SOL    HW221649   1.215   2.947   4.745 -0.9297 -1.4703 -1.1133
 7019SOL     OW21650   1.114   0.328   1.050  0.5752  0.0707  0.0056
 7019SOL    HW121651   1.058   0.254   1.028  2.0664 -1.0231 -0.1845
 7019SOL    HW221652   1.060   0.405   1.034 -1.0163 -0.9746  0.2890
 7020SOL     OW21653   2.417   3.636   4.490 -0.2035 -0.2178  0.1741
 7020SOL    HW121654   2.478   3.568   4.520 -1.3582 -1.3895 -0.0549
 7020SOL    HW221655   2.469   3.715   4.484  1.3071 -1.2207 -0.0799
 7021SOL     OW21656   6.674   5.116   3.879 -0.6893 -0.0938  0.1072
 7021SOL    HW121657   6.753   5.166   3.899 -1.1248  0.3036  0.8404
 7021SOL    HW221658   6.602   5.179   3.888 -1.1842 -0.6967  0.4156
 7022SOL     OW21659   2.668   4.054   6.524  0.6288  0.0253 -0.1181
 7022SOL    HW121660   2.626   4.032   6.442 -0.6542  0.4628  0.4126
 7022SOL    HW221661   2.688   4.148   6.516  1.0791 -0.0757 -0.1854
 7023SOL     OW21662   6.179   3.229   5.721 -0.2837  0.3261  0.4640
 7023SOL    HW121663   6.102   3.182   5.755  0.6775 -1.4157  0.2830
 7023SOL    HW221664   6.168   3.319   5.752 -3.1329  0.4437 -0.7375
 7024SOL     OW21665   3.360   2.295   5.208  0.0992 -0.2089 -0.1270
 7024SOL    HW121666   3.445   2.335   5.188  0.0364 -0.1298 -0.2315
 7024SOL    HW221667   3.382   2.221   5.266  0.0923  0.7475  1.1054
 7025SOL     OW21668   6.156   0.017   3.796  0.0952  0.3354  0.2351
 7025SOL    HW121669   6.212  -0.060   3.785 -0.6980 -0.3926  1.2243
 7025SOL    HW221670   6.191   0.081   3.734  0.5106 -0.9527 -0.8745
 7026SOL     OW21671   7.225   2.762   3.459  0.5387 -0.5363 -0.1415
 7026SOL    HW121672   7.219   2.759   3.554  0.3747 -2.3985 -0.1991
 7026SOL    HW221673   7.202   2.852   3.436 -0.5007 -0.3826  1.4918
 7027SOL     OW21674   0.693   0.785   2.554 -0.1227  0.2020 -0.3609
 7027SOL    HW121675   0.788   0.782   2.546 -0.0691  0.6456  0.1077
 7027SOL    HW221676   0.661   0.756   2.469  0.4309  2.8961 -1.5243
 7028SOL     OW21677   5.924   0.028   2.331 -0.0962  0.6204 -0.0298
 7028SOL    HW121678   5.848  -0.028   2.347 -1.5767  2.3027 -0.9957
 7028SOL    HW221679   5.936   0.027   2.236  1.5777 -0.2149  0.1590
 7029SOL     OW21680   5.458   0.030   4.187  0.4949  0.1288  0.2329
 7029SOL    HW121681   5.390   0.057   4.249  1.5424 -1.3229  2.0630
 7029SOL    HW221682   5.510   0.109   4.174 -0.9582  0.9987 -0.4450
 7030SOL     OW21683   3.564   1.458   4.240 -0.2529 -1.0602  0.6751
 7030SOL    HW121684   3.477   1.462   4.280 -0.5967 -2.4490  0.1065
 7030SOL    HW221685   3.547   1.457   4.146  0.5015  1.1085  0.4899
 7031SOL     OW21686   1.692   5.635   2.321  0.3302  0.0751  0.0180
 7031SOL    HW121687   1.757   5.604   2.258 -1.5070 -1.4286 -1.1998
 7031SOL    HW221688   1.726   5.606   2.406  1.6595  0.0551 -0.5130
 7032SOL     OW21689   4.241   6.086   2.128  0.4242 -0.3991  0.0066
 7032SOL    HW121690   4.250   6.054   2.038  2.5311 -1.4936  0.5753
 7032SOL    HW221691   4.328   6.076   2.166 -0.0895  1.3658  1.7612
 7033SOL     OW21692   1.203   6.342   3.921  0.1406 -0.2836 -0.1325
 7033SOL    HW121693   1.223   6.250   3.933 -2.5366 -0.9862 -0.7078
 7033SOL    HW221694   1.160   6.346   3.836  1.3471  1.6982 -0.6854
 7034SOL     OW21695   1.102   3.759   1.771 -0.3796 -0.5158 -0.3928
 7034SOL    HW121696   1.133   3.726   1.687  0.3793 -0.4368 -0.1407
 7034SOL    HW221697   1.065   3.682   1.815 -0.5436 -0.6062 -0.6834
 7035SOL     OW21698   4.010   0.039   2.118 -0.3437  0.1276 -0.1877
 7035SOL    HW121699   3.991  -0.012   2.039  0.1662 -0.8499  0.3111
 7035SOL    HW221700   3.924   0.064   2.152 -0.5723  0.2178 -0.8368
 7036SOL     OW21701   6.957   6.677   6.549 -0.1120 -0.2305  0.3531
 7036SOL    HW121702   6.898   6.730   6.603  2.0675 -0.2379  2.8603
 7036SOL    HW221703   7.025   6.647   6.610  1.6102 -1.5439 -2.1109
 7037SOL     OW21704   0.960   5.351   3.399 -0.4288  0.0494  0.0799
 7037SOL    HW121705   0.881   5.296   3.395 -0.4110 -0.0364  0.7931
 7037SOL    HW221706   1.024   5.305   3.346 -0.2145 -0.9611  1.1941
 7038SOL     OW21707   5.173   1.646   3.293 -0.1608 -0.7410  0.7118
 7038SOL    HW121708   5.112   1.601   3.235  0.1955  1.4834 -1.5050
 7038SOL    HW221709   5.170   1.738   3.264  1.0854  0.1656  3.3155
 7039SOL     OW21710   0.991   5.048   1.304  0.3597 -0.6980 -0.1746
 7039SOL    HW121711   1.004   5.043   1.399 -1.3382  1.1204  0.1787
 7039SOL    HW221712   0.933   4.974   1.284  2.2667 -2.2503 -0.1201
 7040SOL     OW21713   4.487   4.897   1.282  0.0263  0.5772 -0.3873
 7040SOL    HW121714   4.563   4.839   1.281 -0.2002  0.2163  1.8694
 7040SOL    HW221715   4.518   4.977   1.323 -0.6525  0.6519 -0.0129
 7041SOL     OW21716   3.962   2.790   2.979  0.1876  0.2989 -0.1695
 7041SOL    HW121717   4.047   2.802   3.022  0.3699  0.1676 -0.4818
 7041SOL    HW221718   3.911   2.738   3.040  1.4524 -2.4246 -1.3051
 7042SOL     OW21719   5.395   4.370   6.414 -0.4133 -0.4770 -0.0157
 7042SOL    HW121720   5.483   4.354   6.449 -0.1598  0.7388 -0.0533
 7042SOL    HW221721   5.375   4.293   6.362  0.4311 -0.9859  0.4036
 7043SOL     OW21722   7.068   3.600   6.564 -0.7756  0.2373  0.0252
 7043SOL    HW121723   7.033   3.683   6.531 -0.1545  0.1706 -0.8104
 7043SOL    HW221724   7.134   3.626   6.629 -1.0481  0.3871  0.2427
 7044SOL     OW21725   1.366   6.020   4.524 -0.2940 -0.1562 -0.2854
 7044SOL    HW121726   1.426   5.995   4.595 -1.5450 -0.7999  0.5617
 7044SOL    HW221727   1.316   5.941   4.505 -0.6507  0.2893 -1.2261
 7045SOL     OW21728   6.323   4.665   6.640  0.3187  0.1924  0.0473
 7045SOL    HW121729   6.399   4.714   6.608  0.1458 -0.2461 -1.0777
 7045SOL    HW221730   6.270   4.731   6.686  0.6196  0.8300 -0.5016
 7046SOL     OW21731   0.759   6.621   2.873 -0.1882 -0.4249 -0.2414
 7046SOL    HW121732   0.835   6.663   2.912 -1.3281  1.1752  0.3293
 7046SOL    HW221733   0.691   6.628   2.940 -0.9020 -1.6654 -0.8082
 7047SOL     OW21734   3.410   1.001   7.040 -0.3135 -0.5963  0.2282
 7047SOL    HW121735   3.416   0.980   6.947 -2.8341  1.6358 -0.4833
 7047SOL    HW221736   3.317   1.010   7.057  0.1388 -0.5194  2.8932
 7048SOL     OW21737   5.338   7.024   5.712 -0.2280 -0.0445  0.3713
 7048SOL    HW121738   5.356   7.116   5.694 -0.6022  0.1913  1.1595
 7048SOL    HW221739   5.384   7.006   5.794  0.4683 -0.7699 -0.1717
 7049SOL     OW21740   4.628   0.001   7.175 -0.4509 -0.5297 -0.3465
 7049SOL    HW121741   4.536  -0.017   7.192 -0.4858  0.5180  0.6404
 7049SOL    HW221742   4.628   0.085   7.129  0.0592 -0.1601  0.3239
 7050SOL     OW21743   5.496   4.118   5.775 -0.6722  0.0538  0.4778
 7050SOL    HW121744   5.448   4.174   5.713  0.9761  0.5094 -0.4230
 7050SOL    HW221745   5.584   4.155   5.777 -0.4820 -0.4303  2.5357
 7051SOL     OW21746   4.719   5.941   2.387 -0.1263 -0.5424  0.2096
 7051SOL    HW121747   4.799   5.907   2.349  0.4151  0.4666  0.4214
 7051SOL    HW221748   4.718   5.906   2.476  0.9018  0.7085  0.7355
 7052SOL     OW21749   3.734   3.589   5.532 -0.4222 -0.6353 -0.5904
 7052SOL    HW121750   3.729   3.603   5.626 -0.3120 -2.6884 -0.2601
 7052SOL    HW221751   3.780   3.666   5.499 -0.0190 -0.1248  1.0985
 7053SOL     OW21752   4.232   4.229   2.825 -0.1243 -0.3264 -0.1581
 7053SOL    HW121753   4.258   4.235   2.916  0.0146 -1.8255 -0.0860
 7053SOL    HW221754   4.224   4.320   2.796 -0.3304  0.1580  1.3827
 7054SOL     OW21755   2.410   2.014   4.008 -0.0966 -0.0222  0.0387
 7054SOL    HW121756   2.403   1.920   3.996  0.4393 -0.0674  0.0491
 7054SOL    HW221757   2.451   2.024   4.094 -2.2610  0.2665  1.0740
 7055SOL     OW21758   1.860   1.455   2.634  0.2404 -0.1829 -0.2810
 7055SOL    HW121759   1.930   1.454   2.700  0.4266  0.5048 -0.4593
 7055SOL    HW221760   1.812   1.373   2.648  0.3909 -0.1286  0.5939
 7056SOL     OW21761   5.393   6.788   5.586 -0.4865 -0.0356 -0.6590
 7056SOL    HW121762   5.468   6.848   5.578  0.3302 -0.9085  0.4000
 7056SOL    HW221763   5.318   6.846   5.601  0.2483  0.7480  0.0512
 7057SOL     OW21764   6.030   1.878   5.815  0.2246 -0.1096 -0.8453
 7057SOL    HW121765   5.937   1.901   5.808  0.6929  2.2015  0.1742
 7057SOL    HW221766   6.038   1.840   5.902  0.7524  2.4273  0.2581
 7058SOL     OW21767   0.559   3.959   0.861  0.0437 -0.0349 -0.1144
 7058SOL    HW121768   0.473   3.962   0.903 -0.4489 -0.3111 -1.0794
 7058SOL    HW221769   0.567   4.044   0.817 -0.7359 -0.8483 -1.9170
 7059SOL     OW21770   1.837   4.637   6.329  0.2704  0.3000  0.0830
 7059SOL    HW121771   1.871   4.555   6.366 -0.3531 -0.7893 -1.7188
 7059SOL    HW221772   1.855   4.703   6.397  2.4701 -0.9594  0.7575
 7060SOL     OW21773   4.574   3.688   5.699  0.6274 -0.2782 -0.1064
 7060SOL    HW121774   4.621   3.605   5.708  0.9361 -0.1317 -0.3946
 7060SOL    HW221775   4.588   3.715   5.608  2.1284  1.0588  0.4916
 7061SOL     OW21776   2.556   6.843   2.288 -0.1630  0.1910 -0.2164
 7061SOL    HW121777   2.635   6.799   2.319  0.3817 -0.8426 -2.9238
 7061SOL    HW221778   2.490   6.774   2.283 -0.6034  0.6007 -0.0864
 7062SOL     OW21779   3.186   6.477   0.418  0.6804 -0.0855  0.3168
 7062SOL    HW121780   3.147   6.400   0.461  1.7376  0.2477  1.9284
 7062SOL    HW221781   3.133   6.550   0.449  1.1791  0.1029  0.7454
 7063SOL     OW21782   1.413   1.764   6.647  0.5202 -0.1397 -0.2538
 7063SOL    HW121783   1.415   1.709   6.569  1.3040 -0.2990 -0.1283
 7063SOL    HW221784   1.394   1.852   6.615  2.8478  0.1872 -0.8738
 7064SOL     OW21785   4.402   2.621   5.860  0.0883 -0.0208  0.2128
 7064SOL    HW121786   4.309   2.640   5.851  0.4126  1.1217 -0.9477
 7064SOL    HW221787   4.420   2.636   5.953 -1.0426 -1.0442  0.6049
 7065SOL     OW21788   2.382   0.624   4.136  0.2851 -0.1964  0.2417
 7065SOL    HW121789   2.360   0.587   4.221 -0.7796  0.5357  0.2866
 7065SOL    HW221790   2.424   0.707   4.155 -1.6577  0.8632  0.0183
 7066SOL     OW21791   0.941   0.194   4.817 -0.1365 -0.4394  0.3272
 7066SOL    HW121792   0.905   0.253   4.751  0.4153  0.8680  1.1796
 7066SOL    HW221793   0.966   0.116   4.767  1.7184  1.1363 -1.3050
 7067SOL     OW21794   2.508   3.896   0.012  0.3580  0.7543 -0.5993
 7067SOL    HW121795   2.494   3.987  -0.015 -1.6541  1.0667  1.3795
 7067SOL    HW221796   2.449   3.845  -0.044 -0.1083  0.8849 -0.2250
 7068SOL     OW21797   3.892   4.872   3.697 -0.0477  0.1814 -0.6709
 7068SOL    HW121798   3.902   4.944   3.759 -0.2340 -0.8164  0.5361
 7068SOL    HW221799   3.925   4.906   3.615  0.3729  1.4646  0.0266
 7069SOL     OW21800   4.030   6.786   3.033  0.3492  0.0688  0.1494
 7069SOL    HW121801   3.991   6.811   3.117  1.3245  0.5700  0.4606
 7069SOL    HW221802   4.087   6.713   3.054  1.0791  0.6008  0.0342
 7070SOL     OW21803   6.886   0.784   4.695  0.1361  0.0471  0.1365
 7070SOL    HW121804   6.910   0.872   4.725 -2.0925  1.1499 -1.1514
 7070SOL    HW221805   6.949   0.764   4.626  0.7042  0.6225  0.4814
 7071SOL     OW21806   2.898   5.141   1.162  0.2397  0.3468  0.4762
 7071SOL    HW121807   2.930   5.205   1.226  0.7675  1.1635 -0.5850
 7071SOL    HW221808   2.945   5.162   1.082 -0.1546 -0.8956 -0.0947
 7072SOL     OW21809   6.405   1.558   3.544 -0.2026 -0.2003  0.6648
 7072SOL    HW121810   6.429   1.513   3.462 -1.6436  1.0779 -0.4910
 7072SOL    HW221811   6.470   1.527   3.607  0.6697 -1.5783 -0.8359
 7073SOL     OW21812   0.735   7.028   5.467  0.2105  0.3420 -0.5885
 7073SOL    HW121813   0.720   7.083   5.390 -1.9999  1.1222  0.3397
 7073SOL    HW221814   0.653   6.979   5.478 -0.4225  1.9417  2.5489
 7074SOL     OW21815   5.763   5.566   1.312 -0.2675  0.4972  0.0860
 7074SOL    HW121816   5.834   5.505   1.289  1.1543  1.5958  1.4543
 7074SOL    HW221817   5.698   5.511   1.356  1.3499  0.0690  1.9978
 7075SOL     OW21818   1.366   6.926   1.839 -0.0635 -0.5671  0.4216
 7075SOL    HW121819   1.451   6.883   1.844  0.3208  0.3452  1.9526
 7075SOL    HW221820   1.302   6.855   1.846  0.5468 -1.2509 -0.6993
 7076SOL     OW21821   0.099   5.554   0.046  0.0080  0.0702  0.2888
 7076SOL    HW121822   0.108   5.628   0.107  0.6080  0.2460 -0.0050
 7076SOL    HW221823   0.166   5.570  -0.021  0.6954 -1.1583  0.6540
 7077SOL     OW21824   5.437   6.519   3.008 -0.0136  0.4522 -0.2776
 7077SOL    HW121825   5.465   6.564   2.928  0.9144  2.0229  0.9066
 7077SOL    HW221826   5.348   6.549   3.023 -0.3682 -0.2230 -0.9670
 7078SOL     OW21827   5.180   6.333   3.202  0.0694  0.3200 -0.3535
 7078SOL    HW121828   5.256   6.275   3.203  0.7532  1.2010 -0.5681
 7078SOL    HW221829   5.217   6.421   3.204 -0.9447  0.7596 -0.5900
 7079SOL     OW21830   2.385   2.676   1.120  0.5892 -0.2053  0.0518
 7079SOL    HW121831   2.397   2.768   1.143 -0.6351 -0.2470  0.8729
 7079SOL    HW221832   2.345   2.678   1.033  0.1458  0.0474  0.2610
 7080SOL     OW21833   6.543   2.047   5.980 -0.2760  0.3281  0.0993
 7080SOL    HW121834   6.497   1.968   6.009  0.4234  0.5428  1.8901
 7080SOL    HW221835   6.493   2.120   6.018 -0.9006  0.7612 -1.5122
 7081SOL     OW21836   0.140   6.773   5.488 -0.0192  0.8123  0.0939
 7081SOL    HW121837   0.107   6.862   5.475  1.4923  1.3428 -0.1541
 7081SOL    HW221838   0.174   6.748   5.402 -1.4397 -0.4301 -0.1185
 7082SOL     OW21839   1.889   3.306   4.780 -0.2637 -0.1393  0.2204
 7082SOL    HW121840   1.962   3.331   4.724  0.3995 -0.7091  0.8169
 7082SOL    HW221841   1.923   3.316   4.869 -0.2596 -2.3161  0.4862
 7083SOL     OW21842   1.323   6.248   0.884 -0.3197  0.4268 -0.5119
 7083SOL    HW121843   1.373   6.237   0.803 -2.4791  1.1495 -1.9816
 7083SOL    HW221844   1.294   6.160   0.906 -0.7654  0.3961 -1.2118
 7084SOL     OW21845   4.872   3.485   1.588  0.1189  0.4271 -0.3323
 7084SOL    HW121846   4.858   3.481   1.494  0.3183 -0.5583 -0.3237
 7084SOL    HW221847   4.942   3.549   1.600  0.5911  0.0167 -0.9087
 7085SOL     OW21848   6.830   6.269   3.348 -0.4961  0.0615  0.3253
 7085SOL    HW121849   6.819   6.174   3.341  0.9975 -0.2311  1.5412
 7085SOL    HW221850   6.747   6.305   3.318 -1.6749 -1.6782  1.3821
 7086SOL     OW21851   0.708   5.844   0.885 -0.3540 -0.4106 -0.0439
 7086SOL    HW121852   0.633   5.897   0.910 -0.3662 -0.8500  0.8869
 7086SOL    HW221853   0.682   5.802   0.803  0.2306  2.1820 -1.6059
 7087SOL     OW21854   6.202   4.058   4.158  0.8694 -0.3677  0.3036
 7087SOL    HW121855   6.226   3.967   4.140  0.0303 -0.5577  0.1020
 7087SOL    HW221856   6.118   4.052   4.205 -0.0894  0.3524 -1.2796
 7088SOL     OW21857   1.475   1.092   0.195 -0.0969  0.4060  0.0819
 7088SOL    HW121858   1.518   1.058   0.274 -0.6054 -0.2474  0.0784
 7088SOL    HW221859   1.418   1.163   0.228  1.0614  1.3633  0.0704
 7089SOL     OW21860   4.405   6.214   2.541  0.2379 -0.4194  0.1463
 7089SOL    HW121861   4.413   6.240   2.449  1.8813  1.0130  0.6614
 7089SOL    HW221862   4.487   6.242   2.580 -0.3306 -1.2987  1.9917
 7090SOL     OW21863   6.984   0.863   3.558 -0.0509  0.2956 -0.0254
 7090SOL    HW121864   6.960   0.777   3.523  2.5800 -0.4128 -0.1650
 7090SOL    HW221865   6.901   0.901   3.586 -1.3545 -1.9502 -0.7031
 7091SOL     OW21866   1.676   3.711   3.555  0.7410  0.1262 -0.8886
 7091SOL    HW121867   1.643   3.781   3.499 -0.2887 -0.7444 -1.3795
 7091SOL    HW221868   1.735   3.755   3.617 -0.7458  1.5822 -0.4857
 7092SOL     OW21869   0.521   4.053   3.689  0.5700  0.4050 -0.2296
 7092SOL    HW121870   0.554   4.094   3.609  0.7187  1.4132  0.3327
 7092SOL    HW221871   0.574   3.974   3.699 -0.2540 -0.3544 -1.7584
 7093SOL     OW21872   0.707   6.729   5.699 -0.6258  0.1582  0.0246
 7093SOL    HW121873   0.634   6.775   5.658 -0.0990 -1.0281 -2.3070
 7093SOL    HW221874   0.665   6.666   5.758 -1.5008 -0.1752 -0.9291
 7094SOL     OW21875   3.033   6.434   4.166 -0.2581  0.3871 -0.0800
 7094SOL    HW121876   2.984   6.467   4.241 -1.9750  3.6922 -2.5263
 7094SOL    HW221877   2.966   6.404   4.105  1.0597 -0.5872 -1.0838
 7095SOL     OW21878   3.479   6.691   4.284  0.2947 -0.4476  0.0650
 7095SOL    HW121879   3.531   6.637   4.225 -0.7581  0.8072 -2.0910
 7095SOL    HW221880   3.503   6.781   4.261  0.1200  0.0673  1.8049
 7096SOL     OW21881   5.779   0.979   3.395 -0.2802 -0.3279 -0.3749
 7096SOL    HW121882   5.789   0.910   3.329 -1.9634 -0.5360 -0.4168
 7096SOL    HW221883   5.695   1.019   3.376 -0.1228  0.5711  0.7597
 7097SOL     OW21884   6.824   4.713   5.333 -0.0464 -0.6355  0.6570
 7097SOL    HW121885   6.903   4.738   5.285 -0.1603  1.2789  1.4179
 7097SOL    HW221886   6.761   4.689   5.265  1.1651 -2.1166  0.0452
 7098SOL     OW21887   0.049   1.719   5.721 -0.1241 -0.2924 -0.1389
 7098SOL    HW121888   0.132   1.740   5.677 -0.5803  1.3903 -0.2222
 7098SOL    HW221889   0.005   1.658   5.662 -0.2065  1.0371 -1.4738
 7099SOL     OW21890   4.736   2.460   6.030 -0.1915  0.3274 -0.1346
 7099SOL    HW121891   4.796   2.530   6.054 -0.1869  0.8331 -1.6076
 7099SOL    HW221892   4.785   2.380   6.045  0.0325  0.6504  0.9122
 7100SOL     OW21893   2.610   4.075   4.279 -0.1637  0.0646  0.3316
 7100SOL    HW121894   2.640   4.142   4.341 -0.2737 -0.1877  0.6558
 7100SOL    HW221895   2.648   4.101   4.195  3.4292 -1.8734  1.2809
 7101SOL     OW21896   0.016   1.962   5.154  0.1386 -0.0922  0.0246
 7101SOL    HW121897  -0.024   2.021   5.090 -0.9691 -0.0474  0.7453
 7101SOL    HW221898  -0.058   1.915   5.193  0.6880  0.7215  2.1030
 7102SOL     OW21899   4.731   4.720   2.881 -0.4096  0.2678 -0.0602
 7102SOL    HW121900   4.767   4.666   2.810  0.4873 -0.1029  0.6677
 7102SOL    HW221901   4.787   4.701   2.956 -0.8623  1.2650  0.5385
 7103SOL     OW21902   1.618   3.393   2.978 -0.0195  0.3773  0.4250
 7103SOL    HW121903   1.680   3.415   3.047  2.5655  0.6430 -1.8853
 7103SOL    HW221904   1.586   3.306   3.001 -0.9952  1.3944  3.1277
 7104SOL     OW21905   6.888   6.717   0.965 -0.5980  0.0329  0.2004
 7104SOL    HW121906   6.981   6.698   0.974 -0.9354 -1.2882  0.9387
 7104SOL    HW221907   6.875   6.729   0.871  0.3436  0.4262  0.1164
 7105SOL     OW21908   0.485   2.639   7.020  0.2186  0.3068  0.2203
 7105SOL    HW121909   0.580   2.631   7.013  0.3239  0.3791  1.4181
 7105SOL    HW221910   0.466   2.727   6.988  0.4775  0.0410 -0.6718
 7106SOL     OW21911   5.507   5.243   3.944  0.4132 -0.3069  0.1103
 7106SOL    HW121912   5.546   5.202   4.021  0.9997 -0.3521 -0.2091
 7106SOL    HW221913   5.558   5.211   3.871  0.1547  0.1035 -0.2547
 7107SOL     OW21914   4.413   4.537   4.552 -0.5392  0.2480 -0.8085
 7107SOL    HW121915   4.485   4.569   4.605 -0.5815 -0.6061 -0.2237
 7107SOL    HW221916   4.392   4.610   4.493  2.1292 -0.2092 -2.4067
 7108SOL     OW21917   2.808   4.259   3.827  0.2705 -0.1025  0.3079
 7108SOL    HW121918   2.884   4.314   3.808 -0.2447  0.8940  1.0397
 7108SOL    HW221919   2.757   4.260   3.746  0.4341  0.2217  0.2088
 7109SOL     OW21920   0.391   3.423   3.445  0.1494  0.1042 -0.1688
 7109SOL    HW121921   0.421   3.371   3.371  0.8024 -1.5163  1.1906
 7109SOL    HW221922   0.427   3.510   3.430  0.2328 -0.1989 -1.7718
 7110SOL     OW21923   1.267   1.500   5.588 -0.0069 -0.1144  0.0415
 7110SOL    HW121924   1.178   1.476   5.615  1.2326 -1.5142  3.0405
 7110SOL    HW221925   1.254   1.554   5.510 -3.4385 -1.1095 -0.1681
 7111SOL     OW21926   1.431   1.571   6.079  0.3176  0.3722  0.4712
 7111SOL    HW121927   1.441   1.525   5.996  0.1957  0.6370  0.3106
 7111SOL    HW221928   1.483   1.650   6.069 -1.2193  1.3516 -0.0618
 7112SOL     OW21929   0.261   2.363   5.499  0.1813  0.1476  0.2580
 7112SOL    HW121930   0.268   2.456   5.478  2.0365  0.3163  1.5085
 7112SOL    HW221931   0.233   2.323   5.417 -1.1968  1.8695 -0.1494
 7113SOL     OW21932   1.061   0.554   2.468  0.4617 -0.0974 -0.4952
 7113SOL    HW121933   1.099   0.471   2.496  1.2852 -0.0987 -1.5742
 7113SOL    HW221934   0.977   0.531   2.430  1.6151 -0.7249 -2.7739
 7114SOL     OW21935   3.063   6.352   0.927  0.5582 -0.3092  0.0467
 7114SOL    HW121936   3.027   6.314   0.846  0.7571 -0.5819  0.0852
 7114SOL    HW221937   3.077   6.277   0.984 -0.0225 -0.0680  0.5119
 7115SOL     OW21938   1.076   3.284   4.754 -0.1897  0.2551 -0.9852
 7115SOL    HW121939   1.115   3.197   4.745  1.4675  0.9662 -0.8553
 7115SOL    HW221940   1.079   3.302   4.848 -1.7573 -0.0718 -0.8495
 7116SOL     OW21941   5.649   3.480   1.311 -0.0318 -0.2457 -0.1803
 7116SOL    HW121942   5.616   3.447   1.395  1.1820  0.2106  0.4910
 7116SOL    HW221943   5.619   3.571   1.309  0.7520  0.0263  0.2074
 7117SOL     OW21944   1.075   1.304   5.663  0.3491 -0.5393  0.3196
 7117SOL    HW121945   1.149   1.258   5.703  0.0847 -0.8562  0.4402
 7117SOL    HW221946   1.001   1.286   5.721  0.5832  1.3318  1.2321
 7118SOL     OW21947   2.975   2.379   6.502  0.7706 -0.4222  0.2862
 7118SOL    HW121948   3.063   2.372   6.464  0.4426 -1.2476 -0.3497
 7118SOL    HW221949   2.983   2.340   6.589  1.2002  0.1807  0.5214
 7119SOL     OW21950   2.490   3.297   1.518  0.1712  0.0631 -0.4200
 7119SOL    HW121951   2.531   3.236   1.457 -0.5809  2.9745 -4.0513
 7119SOL    HW221952   2.397   3.294   1.497 -0.0455  1.4448  0.2826
 7120SOL     OW21953   1.350   4.319   5.926  0.3844  0.2154  0.8407
 7120SOL    HW121954   1.311   4.273   6.001  0.4240  1.3200  1.5456
 7120SOL    HW221955   1.444   4.306   5.936  0.2988 -1.3576 -0.1526
 7121SOL     OW21956   5.661   7.122   0.763 -0.6291 -0.7279  0.4366
 7121SOL    HW121957   5.710   7.191   0.718 -1.0173 -0.0749  1.0027
 7121SOL    HW221958   5.673   7.044   0.709 -2.0846  0.3128 -1.4264
 7122SOL     OW21959   2.826   0.707   3.202 -1.0798  0.2916  0.5657
 7122SOL    HW121960   2.817   0.619   3.237  0.9137  0.4411  1.5304
 7122SOL    HW221961   2.831   0.763   3.279 -0.7741  1.0897 -0.0261
 7123SOL     OW21962   5.040   2.313   4.591 -0.1418 -0.1699  0.0860
 7123SOL    HW121963   5.017   2.310   4.684 -1.5610  0.1722 -0.2420
 7123SOL    HW221964   5.117   2.256   4.584  0.1961  0.0891  1.5255
 7124SOL     OW21965   4.468   5.648   2.075 -0.5851 -0.3096 -0.4769
 7124SOL    HW121966   4.539   5.713   2.069 -1.7027  1.0173  0.4609
 7124SOL    HW221967   4.475   5.599   1.993 -0.2948  1.6178 -1.6569
 7125SOL     OW21968   4.466   3.424   5.328  0.1955 -0.0971 -0.0662
 7125SOL    HW121969   4.556   3.436   5.298 -0.1359  0.1867 -0.9531
 7125SOL    HW221970   4.420   3.390   5.251 -0.4689 -0.1774  0.3697
 7126SOL     OW21971   1.865   4.437   1.217  0.1173 -0.5007 -0.1727
 7126SOL    HW121972   1.903   4.507   1.165 -0.2040 -1.3971 -1.6306
 7126SOL    HW221973   1.882   4.357   1.167  0.6701 -1.5154  1.5552
 7127SOL     OW21974   1.148   4.203   1.632 -0.1211 -0.4021  0.6314
 7127SOL    HW121975   1.242   4.211   1.646  0.0300 -1.8095  0.5571
 7127SOL    HW221976   1.127   4.271   1.568  0.7860  0.1626  0.9306
 7128SOL     OW21977   2.705   2.283   4.550 -0.2161 -0.0587 -0.3442
 7128SOL    HW121978   2.729   2.225   4.478  0.3217  0.2579 -0.4192
 7128SOL    HW221979   2.787   2.301   4.595 -1.0408 -3.5261  2.8463
 7129SOL     OW21980   1.240   6.344   6.732 -0.2467  0.2549 -0.2531
 7129SOL    HW121981   1.254   6.344   6.637  0.2693  0.4364 -0.1770
 7129SOL    HW221982   1.328   6.348   6.770 -0.4620  0.5276  0.2273
 7130SOL     OW21983   1.017   5.546   2.274  0.3843  0.1344 -0.4508
 7130SOL    HW121984   1.112   5.557   2.281  0.4213 -0.0503 -0.6469
 7130SOL    HW221985   0.983   5.579   2.357  0.6167  0.2444 -0.3990
 7131SOL     OW21986   2.536   6.071   4.469  0.0045 -0.0269 -0.8205
 7131SOL    HW121987   2.473   6.105   4.405 -0.8538  1.4083  0.7571
 7131SOL    HW221988   2.621   6.104   4.439 -0.6127  2.1465 -0.2488
 7132SOL     OW21989   0.697   7.140   4.527 -0.6118 -0.2391 -0.1666
 7132SOL    HW121990   0.788   7.139   4.557 -0.7223  2.4038  0.3274
 7132SOL    HW221991   0.691   7.215   4.469 -2.6366 -0.0339  0.2702
 7133SOL     OW21992   0.855   5.970   0.197  0.5394  0.7019  0.3798
 7133SOL    HW121993   0.836   5.879   0.173 -0.6310  0.5240  1.8889
 7133SOL    HW221994   0.899   6.007   0.120  1.2748 -1.2151 -0.1340
 7134SOL     OW21995   4.318   3.411   4.262  1.3002  0.1253 -0.5105
 7134SOL    HW121996   4.379   3.348   4.300 -0.6671 -0.3191  2.1069
 7134SOL    HW221997   4.232   3.370   4.274  0.1490  2.4625 -0.4706
 7135SOL     OW21998   5.182   5.279   2.080 -0.2969 -0.5326  0.5770
 7135SOL    HW121999   5.207   5.312   2.166 -0.3946 -1.9926  1.1933
 7135SOL    HW222000   5.187   5.354   2.022  2.4109 -0.1061  1.3278
 7136SOL     OW22001   0.615   6.779   4.536  0.0784 -0.0440  0.0659
 7136SOL    HW122002   0.625   6.871   4.513 -0.7504  0.3700  1.3091
 7136SOL    HW222003   0.621   6.777   4.631 -0.2817 -1.2220  0.0725
 7137SOL     OW22004   5.247   4.006   1.819 -0.2359  0.0597  0.0685
 7137SOL    HW122005   5.250   3.912   1.836  1.8834  0.4700  2.2813
 7137SOL    HW222006   5.326   4.040   1.861 -0.6915  2.7628 -1.1648
 7138SOL     OW22007   5.370   7.206   2.591 -0.4348 -0.0304  0.1537
 7138SOL    HW122008   5.338   7.136   2.534 -0.5252  2.1465 -2.5736
 7138SOL    HW222009   5.293   7.261   2.608  0.2311  0.9906 -0.0932
 7139SOL     OW22010   4.729   5.365   2.312  0.1086  0.0849  0.4609
 7139SOL    HW122011   4.781   5.297   2.355  1.8318 -0.4280 -2.3515
 7139SOL    HW222012   4.664   5.318   2.260 -0.5892  0.6691  0.7773
 7140SOL     OW22013   5.002   1.619   3.851 -0.4002 -0.2129 -0.1132
 7140SOL    HW122014   5.015   1.634   3.757  0.6617 -2.9906 -0.4616
 7140SOL    HW222015   5.089   1.595   3.884 -0.9320 -0.1018  1.4111
 7141SOL     OW22016   0.842   0.245   7.042 -0.1331 -0.0449  0.3738
 7141SOL    HW122017   0.880   0.188   6.976 -1.8289  0.5741 -1.1813
 7141SOL    HW222018   0.748   0.227   7.039 -0.6780  2.6616 -0.0237
 7142SOL     OW22019   2.256   2.160   7.085 -0.1195  0.7885 -0.2791
 7142SOL    HW122020   2.236   2.156   6.992  0.5062 -1.5131 -0.3417
 7142SOL    HW222021   2.294   2.074   7.105 -0.7208  1.0697  2.1896
 7143SOL     OW22022   0.633   6.362   6.466 -0.2697  0.6281 -0.0864
 7143SOL    HW122023   0.637   6.457   6.455  1.9172  0.5524 -0.2051
 7143SOL    HW222024   0.548   6.337   6.430 -0.0191  2.3152 -1.9366
 7144SOL     OW22025   4.448   4.586   3.395 -0.1459 -0.1001  0.2489
 7144SOL    HW122026   4.401   4.588   3.311 -0.1111 -2.0990  0.1537
 7144SOL    HW222027   4.403   4.519   3.446 -0.2097  1.1581  1.8807
 7145SOL     OW22028   6.122   5.669   0.917  0.1100  0.2585  0.1617
 7145SOL    HW122029   6.031   5.698   0.908  0.1550  0.6455  0.9454
 7145SOL    HW222030   6.116   5.576   0.940 -0.0321 -0.4241 -2.4311
 7146SOL     OW22031   1.646   4.459   4.431  0.2487  0.1528 -0.0262
 7146SOL    HW122032   1.653   4.367   4.459 -0.0691  0.5429  1.3637
 7146SOL    HW222033   1.648   4.455   4.336 -1.4214 -1.4412 -0.0126
 7147SOL     OW22034   3.240   4.067   2.293  0.1963 -0.6377 -0.0309
 7147SOL    HW122035   3.157   4.031   2.263  0.0723 -0.2260 -0.1842
 7147SOL    HW222036   3.235   4.161   2.273  0.8336 -0.6659 -0.3677
 7148SOL     OW22037   5.532   7.194   2.803 -0.2662 -0.4211 -0.1613
 7148SOL    HW122038   5.487   7.229   2.726  1.6798  0.7015 -0.8433
 7148SOL    HW222039   5.530   7.265   2.867 -0.6802 -0.8650  0.3192
 7149SOL     OW22040   2.919   0.146   2.862 -0.1233  0.0671  0.5789
 7149SOL    HW122041   2.825   0.132   2.873 -0.3582 -0.5760 -1.9709
 7149SOL    HW222042   2.928   0.240   2.849 -0.6608 -0.1107 -1.1929
 7150SOL     OW22043   0.076   0.358   5.138 -0.6110 -0.2941 -0.4922
 7150SOL    HW122044  -0.010   0.350   5.095 -0.9845  1.2905 -0.0851
 7150SOL    HW222045   0.119   0.429   5.091  0.0537 -0.3725 -0.0035
 7151SOL     OW22046   1.736   2.476   4.584  0.1605 -0.3020 -0.0986
 7151SOL    HW122047   1.812   2.456   4.530 -0.5530 -2.7315 -0.2210
 7151SOL    HW222048   1.771   2.531   4.654  1.6507  0.2417 -1.2321
 7152SOL     OW22049   2.130   4.533   5.587 -0.6449  0.1444  0.3129
 7152SOL    HW122050   2.169   4.446   5.585  0.8636  0.7764  1.2391
 7152SOL    HW222051   2.138   4.561   5.678 -0.9017  1.3449 -0.0223
 7153SOL     OW22052   0.859   0.894   5.569 -0.1570 -0.3277  0.2948
 7153SOL    HW122053   0.934   0.928   5.617 -1.0440 -0.9913  2.2164
 7153SOL    HW222054   0.803   0.970   5.555 -0.1430 -0.2152  0.8189
 7154SOL     OW22055   3.088   5.604   6.649  0.1097 -0.1518 -0.4685
 7154SOL    HW122056   3.167   5.579   6.697  0.2538 -1.6852 -1.4839
 7154SOL    HW222057   3.022   5.618   6.717  0.7525 -0.6795  0.2648
 7155SOL     OW22058   2.634   4.598   3.450 -0.4263  0.0887 -0.2148
 7155SOL    HW122059   2.641   4.690   3.476  2.0799 -0.5504  1.4614
 7155SOL    HW222060   2.583   4.557   3.520  0.2658 -0.2094  0.1204
 7156SOL     OW22061   5.709   4.002   5.975  0.3014 -0.1221 -0.2454
 7156SOL    HW122062   5.622   3.967   5.956  0.6908 -2.0298  1.3950
 7156SOL    HW222063   5.702   4.037   6.064  0.3189  2.7859 -1.3080
 7157SOL     OW22064   4.113   5.242   6.562 -0.3483 -0.5894 -0.3669
 7157SOL    HW122065   4.198   5.284   6.571 -0.3095 -0.5654 -0.8464
 7157SOL    HW222066   4.101   5.231   6.468 -1.2122  0.0928 -0.3463
 7158SOL     OW22067   4.933   4.864   6.878 -0.2642 -0.0652 -0.1284
 7158SOL    HW122068   4.853   4.853   6.929 -1.9392  0.2350 -2.6137
 7158SOL    HW222069   4.986   4.786   6.899 -1.7230 -0.8743  0.6070
 7159SOL     OW22070   0.580   5.612   0.327  0.1294  0.2298  0.5438
 7159SOL    HW122071   0.561   5.551   0.256  1.8402  0.6182 -0.2534
 7159SOL    HW222072   0.519   5.586   0.397  0.9216 -2.4826  0.2914
 7160SOL     OW22073   5.268   4.874   4.945  0.1765  0.1652 -0.9159
 7160SOL    HW122074   5.288   4.904   4.856  0.9934 -0.7855 -1.0627
 7160SOL    HW222075   5.274   4.779   4.940  1.4746  0.1593  0.4519
 7161SOL     OW22076   5.928   3.391   0.018  0.4534 -0.0632  0.1457
 7161SOL    HW122077   5.854   3.331   0.024  0.7171 -0.3821  0.1975
 7161SOL    HW222078   5.917   3.432  -0.068 -0.6504  1.0348  0.7948
 7162SOL     OW22079   3.011   1.797   1.968 -0.1822 -0.6792  0.2166
 7162SOL    HW122080   3.069   1.741   2.019  1.0976 -1.0654 -1.6335
 7162SOL    HW222081   3.000   1.875   2.023  2.3292 -0.4670  0.4900
 7163SOL     OW22082   3.796   2.764   1.556  0.1622  0.1293 -0.0113
 7163SOL    HW122083   3.833   2.725   1.477 -0.3977 -0.4688  0.0172
 7163SOL    HW222084   3.730   2.701   1.585 -0.2080  0.7327  0.4685
 7164SOL     OW22085   4.968   5.308   2.818  0.3820 -0.5049  0.0583
 7164SOL    HW122086   4.882   5.325   2.856  0.6665  0.6657  0.2169
 7164SOL    HW222087   5.029   5.334   2.887  0.8609 -1.2038 -0.1037
 7165SOL     OW22088   2.658   4.565   6.246 -0.0610 -0.2111 -0.0112
 7165SOL    HW122089   2.701   4.555   6.331 -0.6865  0.3737  0.3815
 7165SOL    HW222090   2.608   4.647   6.254 -1.3167 -0.9255 -0.4204
 7166SOL     OW22091   6.604   1.316   1.202 -0.3939  0.5112  0.0637
 7166SOL    HW122092   6.616   1.261   1.125 -2.2319 -0.3082  0.3434
 7166SOL    HW222093   6.560   1.394   1.168 -0.2771  0.5985  0.1148
 7167SOL     OW22094   6.421   4.951   1.122  0.3588 -0.3141  0.2412
 7167SOL    HW122095   6.484   4.955   1.194  0.0822  0.2555  0.4463
 7167SOL    HW222096   6.335   4.951   1.164  0.2170 -1.3090 -0.0276
 7168SOL     OW22097   0.048   2.023   4.608 -0.8920 -0.2580 -0.1034
 7168SOL    HW122098   0.010   1.939   4.631 -3.1010  0.4883 -0.9242
 7168SOL    HW222099  -0.014   2.062   4.547 -0.3048  2.3283  0.8785
 7169SOL     OW22100   2.395   1.832   1.444  0.1110  0.2480 -0.4957
 7169SOL    HW122101   2.436   1.885   1.513  2.6353 -2.1125 -0.1385
 7169SOL    HW222102   2.454   1.839   1.370  0.0518 -1.4371 -0.7088
 7170SOL     OW22103   4.633   7.236   1.971  0.1928  0.3896  0.2608
 7170SOL    HW122104   4.691   7.188   1.914 -0.5649 -0.6252  0.3359
 7170SOL    HW222105   4.562   7.175   1.992  0.0760  0.9720  1.6863
 7171SOL     OW22106   2.081   4.650   0.366  0.2915  0.3264 -0.0548
 7171SOL    HW122107   2.054   4.616   0.451  0.3503  0.9746  0.2274
 7171SOL    HW222108   2.077   4.745   0.375 -0.4531  0.3949 -1.0267
 7172SOL     OW22109   4.612   3.956   2.296  0.1328 -0.1220 -0.3096
 7172SOL    HW122110   4.587   4.044   2.321  0.4806  0.0219 -0.4583
 7172SOL    HW222111   4.580   3.945   2.207 -1.1682 -0.6590  0.2085
 7173SOL     OW22112   2.031   4.382   6.679 -0.5101 -0.1292 -0.3531
 7173SOL    HW122113   1.980   4.384   6.760 -0.6789  0.8491 -0.4738
 7173SOL    HW222114   2.081   4.301   6.684  0.8911  0.7992  1.6191
 7174SOL     OW22115   3.951   6.927   5.396  0.1632 -0.1243  0.1497
 7174SOL    HW122116   3.903   7.002   5.362 -0.8834 -1.5952 -1.6727
 7174SOL    HW222117   3.892   6.888   5.460 -0.2128 -0.6815 -0.5300
 7175SOL     OW22118   2.655   0.078   4.496  0.0530  1.2379  0.5137
 7175SOL    HW122119   2.614  -0.005   4.521 -2.4874  2.7319  1.4808
 7175SOL    HW222120   2.703   0.058   4.416 -0.4793 -1.1787  0.7711
 7176SOL     OW22121   2.700   3.063   4.322  0.3959  0.0025  0.5442
 7176SOL    HW122122   2.764   3.076   4.393 -0.6183 -0.2284  1.5112
 7176SOL    HW222123   2.649   3.144   4.321  0.3496 -0.0306  0.1347
 7177SOL     OW22124   4.493   7.000   0.208 -0.3764  0.1891  0.2997
 7177SOL    HW122125   4.477   6.921   0.157  0.9092 -0.0135  0.1871
 7177SOL    HW222126   4.470   7.072   0.150  0.6061 -0.0533 -0.4176
 7178SOL     OW22127   2.250   2.681   4.506  0.2408  0.3290 -0.5220
 7178SOL    HW122128   2.298   2.633   4.438 -0.7873 -0.0389 -1.0002
 7178SOL    HW222129   2.308   2.754   4.529  0.6107  0.4558 -1.7953
 7179SOL     OW22130   5.675   2.945   1.038 -0.3913  0.3180 -0.2945
 7179SOL    HW122131   5.648   2.990   1.118 -1.2945  2.0414 -1.5429
 7179SOL    HW222132   5.678   3.014   0.972  2.7425 -0.6269 -1.2177
 7180SOL     OW22133   2.357   1.512   0.500  0.2537 -0.2591 -0.3832
 7180SOL    HW122134   2.322   1.596   0.470  0.8179  1.2501  2.9243
 7180SOL    HW222135   2.281   1.466   0.535  0.3835  0.0408  0.3043
 7181SOL     OW22136   2.674   5.130   0.997 -0.3026  0.7508  0.1793
 7181SOL    HW122137   2.651   5.038   1.010  1.7120 -0.0564 -1.7186
 7181SOL    HW222138   2.751   5.145   1.051  0.6350  0.7453 -1.1423
 7182SOL     OW22139   3.519   1.264   5.191 -0.2845 -0.3668  0.0993
 7182SOL    HW122140   3.576   1.203   5.238 -0.3962  0.8959  1.9083
 7182SOL    HW222141   3.579   1.323   5.146 -0.1757 -0.9247 -0.4932
 7183SOL     OW22142   6.798   5.137   4.598 -0.0131 -0.6649  0.1315
 7183SOL    HW122143   6.787   5.226   4.633 -0.4268 -0.7031  0.1020
 7183SOL    HW222144   6.873   5.144   4.539 -0.2885 -0.2422 -0.1724
 7184SOL     OW22145   0.293   6.730   0.447 -0.2156 -0.6552 -0.0569
 7184SOL    HW122146   0.314   6.746   0.540  1.0809 -0.1295 -0.4245
 7184SOL    HW222147   0.366   6.679   0.414  0.9638  1.8934 -1.5727
 7185SOL     OW22148   4.127   3.881   0.686 -0.2109  0.1895 -0.6053
 7185SOL    HW122149   4.037   3.848   0.692  0.4922 -1.4905  1.3539
 7185SOL    HW222150   4.121   3.958   0.628 -2.6165 -0.8310 -1.7677
 7186SOL     OW22151   2.169   6.298   6.782  0.3257  0.4146  0.0593
 7186SOL    HW122152   2.117   6.360   6.730 -2.1464 -2.0804 -0.5285
 7186SOL    HW222153   2.253   6.293   6.737  0.3653  2.8650 -0.2180
 7187SOL     OW22154   6.522   0.367   2.668  0.0715 -0.1805 -0.0936
 7187SOL    HW122155   6.525   0.410   2.754  0.9340  0.9918 -0.6970
 7187SOL    HW222156   6.613   0.363   2.641  0.0413 -2.7638  0.1103
 7188SOL     OW22157   7.100   1.638   6.170 -0.0546 -0.8051  0.1770
 7188SOL    HW122158   7.153   1.689   6.232 -0.4717 -1.0775  0.7611
 7188SOL    HW222159   7.161   1.573   6.134  0.4798  0.1061 -0.5752
 7189SOL     OW22160   1.087   7.246   5.127 -0.2409  0.4109 -0.0733
 7189SOL    HW122161   1.051   7.174   5.179  1.4043 -0.1753  0.2936
 7189SOL    HW222162   1.053   7.325   5.169  1.4019 -0.0255  2.2242
 7190SOL     OW22163   1.924   6.934   1.105  0.2028 -0.7688  0.3311
 7190SOL    HW122164   1.993   6.918   1.169  0.1053 -0.0507  0.6248
 7190SOL    HW222165   1.849   6.883   1.136  0.4578 -1.1914  0.2560
 7191SOL     OW22166   6.271   2.806   6.100  0.4552  0.3998  0.3452
 7191SOL    HW122167   6.243   2.729   6.151 -1.0804  0.7313  0.0350
 7191SOL    HW222168   6.213   2.876   6.130  1.2719  1.2268 -0.0028
 7192SOL     OW22169   4.486   2.871   2.979  0.2185  0.1243 -0.0439
 7192SOL    HW122170   4.532   2.840   2.901  0.1741 -0.0132 -0.0150
 7192SOL    HW222171   4.407   2.913   2.946  0.6951  0.9575 -0.1399
 7193SOL     OW22172   2.608   2.676   3.140 -0.2342 -0.2903 -0.5395
 7193SOL    HW122173   2.653   2.671   3.224 -1.1087 -2.0178 -0.1388
 7193SOL    HW222174   2.678   2.674   3.075  0.4647  1.4319  0.1530
 7194SOL     OW22175   5.913   4.531   5.799  0.3717 -1.1081  0.0301
 7194SOL    HW122176   5.918   4.466   5.869  1.7300 -1.2265 -0.1782
 7194SOL    HW222177   6.003   4.556   5.781 -0.1611  1.3225  0.5300
 7195SOL     OW22178   0.019   5.357   6.889  0.3500  0.2104  0.3631
 7195SOL    HW122179  -0.064   5.310   6.903  0.9136 -1.2568 -1.1093
 7195SOL    HW222180  -0.008   5.446   6.867 -0.9833 -0.9118 -2.7805
 7196SOL     OW22181   3.973   2.370   2.520 -0.4018  0.4202 -0.5274
 7196SOL    HW122182   3.991   2.412   2.436 -0.2314  1.2838 -0.0674
 7196SOL    HW222183   4.056   2.331   2.546 -0.6912 -0.6712 -1.2069
 7197SOL     OW22184   6.912   4.684   0.094  0.2215 -0.5024  0.3153
 7197SOL    HW122185   6.845   4.623   0.063 -0.6244  0.0357  1.0916
 7197SOL    HW222186   6.918   4.669   0.188  0.8550 -0.2105  0.3284
 7198SOL     OW22187   7.250   5.135   6.030 -0.0475 -0.2137  0.5856
 7198SOL    HW122188   7.323   5.111   6.088  0.8271 -1.4038 -0.9751
 7198SOL    HW222189   7.268   5.226   6.007  0.6568 -0.3369  0.6280
 7199SOL     OW22190   5.329   0.589   1.566  0.1728  0.5012  0.1059
 7199SOL    HW122191   5.330   0.643   1.487 -0.3327 -0.7635 -0.7703
 7199SOL    HW222192   5.303   0.650   1.636  0.2231  1.5271 -0.7493
 7200SOL     OW22193   0.991   3.342   5.468  0.0825 -0.4998  0.1246
 7200SOL    HW122194   0.929   3.332   5.396  2.4109 -0.3862 -1.9490
 7200SOL    HW222195   0.959   3.283   5.536 -1.7154 -1.1961 -1.3016
 7201SOL     OW22196   4.562   5.927   0.954  0.2135  0.3483 -0.1967
 7201SOL    HW122197   4.499   5.966   0.894 -0.1243 -0.2560 -0.2313
 7201SOL    HW222198   4.647   5.947   0.915  0.2212  3.5982  1.2785
 7202SOL     OW22199   3.880   3.425   3.279 -0.1563 -0.5162  0.0524
 7202SOL    HW122200   3.968   3.393   3.299  0.8247  0.2828 -2.7751
 7202SOL    HW222201   3.877   3.513   3.316  0.0001 -0.7916  0.7204
 7203SOL     OW22202   1.340   4.260   4.230 -0.5622 -0.1334 -0.0253
 7203SOL    HW122203   1.266   4.200   4.237 -1.1447  0.7712  1.6909
 7203SOL    HW222204   1.382   4.257   4.316  0.7433  0.2121 -0.6381
 7204SOL     OW22205   3.568   5.926   5.178  0.1923 -0.2549  0.1057
 7204SOL    HW122206   3.501   5.948   5.242  1.1483  2.0394  0.3553
 7204SOL    HW222207   3.649   5.962   5.214  0.6642  1.5463 -2.6161
 7205SOL     OW22208   2.798   4.886   0.438 -0.6689 -0.2384 -0.1684
 7205SOL    HW122209   2.802   4.963   0.381  0.3180 -0.9579 -1.0786
 7205SOL    HW222210   2.884   4.883   0.480 -1.7604  0.9509  2.2694
 7206SOL     OW22211   4.825   5.722   7.186  1.1531  0.3911 -0.2089
 7206SOL    HW122212   4.757   5.739   7.121  0.1453 -1.5650  0.2706
 7206SOL    HW222213   4.900   5.691   7.135  1.4329  1.8328 -0.6792
 7207SOL     OW22214   6.496   5.918   3.200 -0.2215  0.2259  0.6982
 7207SOL    HW122215   6.515   6.005   3.164 -0.8593 -0.3512 -1.1148
 7207SOL    HW222216   6.471   5.866   3.123  0.4806 -1.6480  1.7153
 7208SOL     OW22217   1.613   5.103   0.783 -0.2345  0.1844 -0.2739
 7208SOL    HW122218   1.538   5.046   0.766 -0.7892  0.8969 -0.2186
 7208SOL    HW222219   1.681   5.043   0.814 -0.9283 -0.4134  0.1261
 7209SOL     OW22220   6.029   2.063   3.132 -0.5700  0.4082 -0.4228
 7209SOL    HW122221   6.059   2.146   3.169  0.8731 -0.1825 -0.2338
 7209SOL    HW222222   6.003   2.011   3.208  1.0130 -0.2669 -0.3266
 7210SOL     OW22223   4.575   2.262   2.980 -0.4612  0.4669 -0.3614
 7210SOL    HW122224   4.483   2.249   3.000 -0.6998  0.1430 -1.6233
 7210SOL    HW222225   4.576   2.322   2.905  0.3471  0.3868 -0.4268
 7211SOL     OW22226   3.256   4.052   0.720 -0.1954  0.1049  0.1894
 7211SOL    HW122227   3.245   4.103   0.640 -1.2359 -0.2614  0.0865
 7211SOL    HW222228   3.284   3.965   0.689 -1.2089 -0.2242  0.1695
 7212SOL     OW22229   0.753   6.399   1.831  0.0051 -0.1035 -0.5592
 7212SOL    HW122230   0.732   6.309   1.807 -0.5827  0.1135 -0.8481
 7212SOL    HW222231   0.837   6.392   1.878 -0.7370 -0.9597  0.6715
 7213SOL     OW22232   4.895   2.868   4.285  0.1146 -0.1116 -0.0889
 7213SOL    HW122233   4.968   2.806   4.276 -0.5166 -0.6582 -1.8040
 7213SOL    HW222234   4.817   2.814   4.274 -0.6256  0.2289  3.1732
 7214SOL     OW22235   6.755   0.036   4.256 -0.5291 -0.6432  0.2714
 7214SOL    HW122236   6.724  -0.053   4.241 -1.4130  0.0876 -2.5835
 7214SOL    HW222237   6.740   0.081   4.173 -0.5528  2.3097  1.7903
 7215SOL     OW22238   6.355   4.115   2.440 -0.0376 -0.7095 -0.8474
 7215SOL    HW122239   6.381   4.177   2.373  2.8203 -1.2419 -0.2981
 7215SOL    HW222240   6.413   4.040   2.428 -0.5267 -1.4643  1.2203
 7216SOL     OW22241   6.421   3.466   1.411 -0.3685  0.1708  0.3651
 7216SOL    HW122242   6.481   3.404   1.452  1.0876  0.6535 -0.9834
 7216SOL    HW222243   6.340   3.416   1.397  0.1991 -0.9098  0.8831
 7217SOL     OW22244   1.580   2.021   2.949 -0.2892 -0.0762  0.3911
 7217SOL    HW122245   1.609   1.956   2.885 -0.3880 -1.7093  1.9507
 7217SOL    HW222246   1.661   2.059   2.982 -0.2722  1.5078 -1.4165
 7218SOL     OW22247   0.863   3.426   6.532  0.0024 -0.8951 -0.2390
 7218SOL    HW122248   0.878   3.362   6.463 -1.5283 -1.8023  0.2360
 7218SOL    HW222249   0.833   3.374   6.607 -0.5145  0.2883  0.3998
 7219SOL     OW22250   0.238   4.489   0.764 -0.2533 -0.3845  0.4096
 7219SOL    HW122251   0.265   4.559   0.705 -3.1892  1.3504  1.0058
 7219SOL    HW222252   0.257   4.408   0.716  1.8229  0.8353 -0.8881
 7220SOL     OW22253   2.986   0.348   0.154  0.1324 -0.1333  0.4215
 7220SOL    HW122254   3.014   0.439   0.142  1.1311 -0.2219  1.9004
 7220SOL    HW222255   3.048   0.298   0.101 -0.9476  0.0862 -1.0878
 7221SOL     OW22256   6.217   5.135   0.831 -0.5837 -0.4102  0.2460
 7221SOL    HW122257   6.259   5.052   0.854 -0.2784 -0.4812 -0.5565
 7221SOL    HW222258   6.265   5.166   0.755 -1.0933  0.2031  0.1692
 7222SOL     OW22259   6.378   1.191   5.087  0.1316 -0.5751 -0.1957
 7222SOL    HW122260   6.446   1.250   5.120  0.8815 -1.3232 -0.3806
 7222SOL    HW222261   6.389   1.111   5.139 -0.7338 -0.6331 -0.0940
 7223SOL     OW22262   6.153   6.187   3.443 -0.2369  0.5720  0.0526
 7223SOL    HW122263   6.227   6.196   3.383 -0.6974 -0.3515 -0.6814
 7223SOL    HW222264   6.102   6.267   3.430  0.4236  1.0351  0.2804
 7224SOL     OW22265   5.209   3.008   6.788 -0.2490 -0.2362  0.2034
 7224SOL    HW122266   5.269   2.994   6.715 -0.6454  0.6964 -0.3075
 7224SOL    HW222267   5.131   2.958   6.765  0.2926 -1.3990  0.8387
 7225SOL     OW22268   6.976   2.171   6.734  0.4843 -0.3483  0.3999
 7225SOL    HW122269   7.072   2.175   6.731  0.5822 -1.6603  1.5156
 7225SOL    HW222270   6.954   2.191   6.825 -0.3221  0.2727  0.0739
 7226SOL     OW22271   1.416   3.032   2.619  0.4282  0.0352 -0.8193
 7226SOL    HW122272   1.476   2.963   2.590  1.7273 -0.7068  3.3131
 7226SOL    HW222273   1.338   2.985   2.648  0.1852  0.5312 -0.6588
 7227SOL     OW22274   3.984   6.790   3.315 -0.2729 -0.1384  0.2642
 7227SOL    HW122275   3.935   6.708   3.309  1.4289 -1.1831  0.2319
 7227SOL    HW222276   3.923   6.852   3.356 -1.5557 -1.4288  0.3345
 7228SOL     OW22277   1.353   3.809   4.409 -0.2451  0.3398 -0.3153
 7228SOL    HW122278   1.409   3.826   4.333  0.7370  1.5046  0.6454
 7228SOL    HW222279   1.348   3.893   4.454 -1.9331 -0.0214  0.1834
 7229SOL     OW22280   5.553   1.652   4.357 -0.2978 -0.1038  0.3652
 7229SOL    HW122281   5.539   1.565   4.319 -0.1061  0.8974 -2.1146
 7229SOL    HW222282   5.647   1.664   4.353 -0.4751  0.9240 -0.9855
 7230SOL     OW22283   0.437   1.500   3.596 -0.7954 -0.0569 -0.5471
 7230SOL    HW122284   0.408   1.457   3.677  0.0013  2.4344  1.1262
 7230SOL    HW222285   0.520   1.458   3.575  1.1672  2.1526  2.3888
 7231SOL     OW22286   6.233   6.739   7.099 -0.0390  0.2432  0.0498
 7231SOL    HW122287   6.137   6.737   7.099 -0.0233 -1.1533  1.5993
 7231SOL    HW222288   6.256   6.792   7.175  0.4219 -0.3336  0.3188
 7232SOL     OW22289   3.597   4.023   1.325 -0.1876 -0.0691  0.2068
 7232SOL    HW122290   3.549   4.104   1.341 -0.4331 -0.3163  0.7296
 7232SOL    HW222291   3.638   4.003   1.409  0.3410 -0.1812 -0.0745
 7233SOL     OW22292   6.738   6.760   5.567 -0.2579 -0.7020  0.1113
 7233SOL    HW122293   6.670   6.809   5.613 -1.0366 -1.3035 -0.3997
 7233SOL    HW222294   6.804   6.826   5.546 -0.3389 -0.2469  1.2372
 7234SOL     OW22295   6.643   0.618   0.857 -0.1877  0.0498  0.1570
 7234SOL    HW122296   6.722   0.673   0.861  0.2484 -0.5907  0.3577
 7234SOL    HW222297   6.574   0.678   0.829  0.2467  0.7512  0.5712
 7235SOL     OW22298   5.268   6.014   6.893 -0.2329 -0.1846 -0.4585
 7235SOL    HW122299   5.204   6.013   6.964 -0.3810 -0.6997 -0.5987
 7235SOL    HW222300   5.331   6.082   6.918 -2.0995  1.9551 -1.4380
 7236SOL     OW22301   5.536   0.837   5.459 -0.6664 -0.2640 -0.2303
 7236SOL    HW122302   5.492   0.762   5.419 -1.4303  0.7904 -1.4502
 7236SOL    HW222303   5.602   0.862   5.394 -0.2242 -0.0697  0.2992
 7237SOL     OW22304   4.631   2.114   6.722 -0.2600 -0.3101  0.1241
 7237SOL    HW122305   4.642   2.192   6.666  0.3013  0.3882  1.1969
 7237SOL    HW222306   4.716   2.070   6.719 -0.1287 -0.0982  0.6833
 7238SOL     OW22307   5.915   2.589   0.447  0.0363  0.2212  1.1458
 7238SOL    HW122308   5.896   2.503   0.486  0.3834  0.5065  1.9559
 7238SOL    HW222309   5.829   2.622   0.422 -0.0955 -0.3886  0.7660
 7239SOL     OW22310   5.894   5.314   6.675  0.5389  0.1591 -0.3640
 7239SOL    HW122311   5.842   5.258   6.733  0.6729  1.5033  1.1068
 7239SOL    HW222312   5.983   5.281   6.684  0.2830 -0.7376 -1.1503
 7240SOL     OW22313   6.621   1.029   0.202 -0.0330 -0.0731  0.3442
 7240SOL    HW122314   6.574   0.989   0.274  0.8401  0.8349  1.4377
 7240SOL    HW222315   6.628   1.122   0.226  0.5690  0.1721 -0.7334
 7241SOL     OW22316   0.391   4.009   6.844 -0.4913  0.1747  0.1842
 7241SOL    HW122317   0.483   4.004   6.818 -0.7952  0.7478 -1.0160
 7241SOL    HW222318   0.394   4.019   6.939  0.6554 -0.7681  0.2573
 7242SOL     OW22319   4.273   5.968   3.674  0.1116  0.0229  0.3066
 7242SOL    HW122320   4.292   5.904   3.742 -0.3767  0.3234  0.7322
 7242SOL    HW222321   4.347   5.961   3.613  1.8944  1.5261  2.2015
 7243SOL     OW22322   1.942   4.707   3.954  0.6253 -0.1448  0.0547
 7243SOL    HW122323   1.919   4.621   3.920  0.8836  0.9105 -2.9704
 7243SOL    HW222324   1.901   4.769   3.893 -0.8424  1.9191  3.0255
 7244SOL     OW22325   3.503   6.972   5.615 -0.2716  0.0035  0.1581
 7244SOL    HW122326   3.488   7.064   5.595 -0.1747  0.5766  2.5733
 7244SOL    HW222327   3.416   6.934   5.620 -0.3339  0.0908 -0.2599
 7245SOL     OW22328   5.505   3.890   3.582  0.0299 -0.1443  0.0743
 7245SOL    HW122329   5.586   3.859   3.542  0.0501 -1.6423  1.2441
 7245SOL    HW222330   5.440   3.885   3.511  0.9155  0.9612 -0.8333
 7246SOL     OW22331   4.441   2.198   0.644 -0.6120 -0.5223  0.3258
 7246SOL    HW122332   4.473   2.278   0.602  1.2356 -1.7120 -0.6045
 7246SOL    HW222333   4.443   2.131   0.575 -1.5330 -1.5334  1.2507
 7247SOL     OW22334   4.907   3.504   0.268  0.4146  0.0998  0.3155
 7247SOL    HW122335   4.992   3.459   0.267 -0.4515 -1.6624  1.8929
 7247SOL    HW222336   4.879   3.497   0.359 -0.7900  1.8992  0.0799
 7248SOL     OW22337   2.852   4.655   3.306 -0.6244  0.3386  0.1934
 7248SOL    HW122338   2.927   4.667   3.364  0.4662 -0.4174 -1.0409
 7248SOL    HW222339   2.783   4.622   3.363  0.4704 -0.5370  1.0387
 7249SOL     OW22340   4.793   1.552   3.562 -0.0053  0.3807 -0.8313
 7249SOL    HW122341   4.707   1.588   3.582  0.3192  0.8344 -0.2588
 7249SOL    HW222342   4.851   1.628   3.557  0.4069  0.0600 -0.9955
 7250SOL     OW22343   3.080   4.755   1.445  0.1249 -0.3840  0.4451
 7250SOL    HW122344   3.106   4.846   1.462  0.0615 -0.4488  0.9051
 7250SOL    HW222345   3.040   4.757   1.358 -2.1578  0.5234  1.4642
 7251SOL     OW22346   0.815   5.655   0.425 -0.3355  0.2843  0.3560
 7251SOL    HW122347   0.733   5.637   0.378 -0.5304  1.7541  0.1134
 7251SOL    HW222348   0.793   5.641   0.517 -0.6583 -0.0604  0.2298
 7252SOL     OW22349   0.104   0.568   2.865  0.5193 -0.0139  0.1436
 7252SOL    HW122350   0.111   0.476   2.891  2.3977 -0.3323 -1.4050
 7252SOL    HW222351   0.015   0.593   2.889  0.2109 -2.0305  1.2053
 7253SOL     OW22352   2.270   2.968   5.340 -0.2502 -0.0779 -0.4360
 7253SOL    HW122353   2.280   2.875   5.359 -0.4978  0.2187  1.2325
 7253SOL    HW222354   2.359   3.003   5.342 -0.3313  0.0593  0.7762
 7254SOL     OW22355   4.086   5.269   0.026 -0.3818 -0.0191 -0.1990
 7254SOL    HW122356   4.147   5.328  -0.018 -1.1255  0.1033 -1.0664
 7254SOL    HW222357   4.113   5.181  -0.003  0.7026 -0.1212  1.0668
 7255SOL     OW22358   2.909   3.032   2.336  0.0302  0.7535 -0.3453
 7255SOL    HW122359   2.912   2.951   2.388 -0.4574  1.1015  0.2368
 7255SOL    HW222360   2.823   3.031   2.295  0.4418  0.4480 -1.2076
 7256SOL     OW22361   1.368   1.445   5.839  0.2042  0.3443  0.1924
 7256SOL    HW122362   1.329   1.359   5.851 -1.2983  0.9058 -0.6277
 7256SOL    HW222363   1.334   1.477   5.755 -0.3151  2.2910  1.1070
 7257SOL     OW22364   0.105   5.047   4.178  0.0863  0.4127  0.1390
 7257SOL    HW122365   0.067   4.960   4.195  2.4874 -0.0576  3.6024
 7257SOL    HW222366   0.196   5.029   4.157  0.0765  2.0074 -1.3635
 7258SOL     OW22367   0.951   7.230   0.045  0.7918  0.5655 -0.1224
 7258SOL    HW122368   1.007   7.164   0.085 -0.2725  1.3106  2.7041
 7258SOL    HW222369   0.865   7.189   0.039  0.7152  0.8027 -0.8041
 7259SOL     OW22370   6.749   3.104   5.447 -0.0775 -0.2007  0.2345
 7259SOL    HW122371   6.712   3.060   5.524 -0.3019 -0.8919 -0.2570
 7259SOL    HW222372   6.823   3.049   5.421  0.3342  0.3320  0.2885
 7260SOL     OW22373   6.489   5.996   4.307 -0.2387 -0.2374  0.3999
 7260SOL    HW122374   6.453   6.070   4.356 -1.1123 -0.0146 -0.5504
 7260SOL    HW222375   6.438   5.921   4.337 -1.1968 -0.0007 -0.5904
 7261SOL     OW22376   0.721   5.452   2.101 -0.3824 -0.3533  0.1197
 7261SOL    HW122377   0.733   5.546   2.087 -2.1310 -0.2845 -1.1519
 7261SOL    HW222378   0.807   5.415   2.085  0.1638  0.9705 -0.1174
 7262SOL     OW22379   0.450   6.382   4.912 -0.2637 -0.2002 -0.0626
 7262SOL    HW122380   0.515   6.448   4.935 -0.1198  0.0027 -1.0434
 7262SOL    HW222381   0.377   6.398   4.973 -0.3125  0.9891 -0.4275
 7263SOL     OW22382   5.555   4.438   7.002  0.0805 -0.3912 -0.3767
 7263SOL    HW122383   5.516   4.351   6.995  0.4194 -0.7402  1.6457
 7263SOL    HW222384   5.574   4.464   6.912  0.1860 -2.5100 -0.9836
 7264SOL     OW22385   0.077   7.181   6.455  0.1362  0.4122 -0.1078
 7264SOL    HW122386   0.127   7.223   6.384  0.5892  0.3631  0.1786
 7264SOL    HW222387   0.067   7.090   6.426 -0.5007  0.6207 -0.5442
 7265SOL     OW22388   6.292   2.527   1.612 -0.6419  0.1463 -0.3908
 7265SOL    HW122389   6.246   2.489   1.538 -1.0270 -0.5161  0.1794
 7265SOL    HW222390   6.384   2.524   1.587 -0.9659  2.6798 -2.0891
 7266SOL     OW22391   0.825   4.577   4.034  0.3277  0.1906 -0.7329
 7266SOL    HW122392   0.798   4.641   4.099  0.4561 -0.5909  0.1037
 7266SOL    HW222393   0.752   4.516   4.028  1.6490 -1.6731  1.1977
 7267SOL     OW22394   1.970   0.147   3.901  0.1104  0.1378  0.2263
 7267SOL    HW122395   1.970   0.241   3.881  0.5594  0.1188  0.1288
 7267SOL    HW222396   2.003   0.106   3.821 -0.8828 -0.1711 -0.0332
 7268SOL     OW22397   1.533   5.865   3.515 -0.2824 -0.0493  0.2125
 7268SOL    HW122398   1.512   5.932   3.580  0.6302 -0.9220  1.4501
 7268SOL    HW222399   1.599   5.906   3.459  0.5241 -0.0131  1.1707
 7269SOL     OW22400   5.172   4.688   5.541  0.7068  0.5187  0.0156
 7269SOL    HW122401   5.158   4.736   5.623 -0.1587 -1.4486  1.0515
 7269SOL    HW222402   5.163   4.755   5.473 -1.7466  1.6242  1.3357
 7270SOL     OW22403   6.287   4.470   3.707 -0.0452  0.1690 -0.1095
 7270SOL    HW122404   6.287   4.514   3.621 -2.2482 -1.5032 -1.0102
 7270SOL    HW222405   6.196   4.473   3.735  0.4610 -0.3912  1.6268
 7271SOL     OW22406   0.237   6.772   3.998 -0.2115 -0.3578 -0.3197
 7271SOL    HW122407   0.182   6.745   3.925 -1.7981 -1.5383  1.2719
 7271SOL    HW222408   0.239   6.696   4.056  1.8427  0.2188  0.4003
 7272SOL     OW22409   0.546   0.913   5.091  0.0680 -0.2396  0.5118
 7272SOL    HW122410   0.583   0.868   5.015 -1.3487 -1.1258  0.3270
 7272SOL    HW222411   0.610   0.899   5.161  0.9908 -0.1203 -0.3018
 7273SOL     OW22412   4.211   3.715   0.249 -0.6966 -0.1191 -0.5216
 7273SOL    HW122413   4.278   3.784   0.239 -0.1561 -0.8218 -1.9354
 7273SOL    HW222414   4.261   3.635   0.265 -0.9662 -1.2446 -4.7897
 7274SOL     OW22415   3.322   3.041   6.484 -0.2549 -0.4498 -0.1973
 7274SOL    HW122416   3.255   3.100   6.449 -1.1476 -1.0355  0.5144
 7274SOL    HW222417   3.353   2.993   6.407  0.3115  0.7678 -0.7437
 7275SOL     OW22418   6.324   1.465   2.928  0.1967 -0.2507  0.6781
 7275SOL    HW122419   6.257   1.401   2.953  0.4025 -0.6020  0.3414
 7275SOL    HW222420   6.393   1.453   2.992  1.1568 -1.8389 -0.6015
 7276SOL     OW22421   0.285   4.014   4.748 -0.2857 -0.0043  0.1534
 7276SOL    HW122422   0.203   4.008   4.698 -0.2729  0.4456  0.0687
 7276SOL    HW222423   0.266   4.079   4.816  1.0503  2.7748 -1.9866
 7277SOL     OW22424   1.007   3.127   1.734  0.2494 -0.0197 -0.6767
 7277SOL    HW122425   0.986   3.179   1.812  1.6705  2.6956 -2.0438
 7277SOL    HW222426   1.097   3.149   1.714  0.3228 -1.7333 -2.3498
 7278SOL     OW22427   7.258   2.269   4.761 -0.0743 -0.2313  0.1891
 7278SOL    HW122428   7.183   2.280   4.701 -0.1615 -1.5121  0.0415
 7278SOL    HW222429   7.284   2.178   4.750  0.3121 -0.3154  1.6513
 7279SOL     OW22430   4.499   4.221   2.261 -0.1157 -0.1229 -0.2386
 7279SOL    HW122431   4.438   4.280   2.219 -0.4776 -0.2895  0.0480
 7279SOL    HW222432   4.509   4.255   2.350  1.4768  0.8529 -0.7707
 7280SOL     OW22433   2.013   5.040   2.723  0.6354 -0.3883 -0.3851
 7280SOL    HW122434   2.047   5.127   2.699  1.2913 -0.5393 -0.0120
 7280SOL    HW222435   1.924   5.057   2.752  1.1702  0.3327  0.8580
 7281SOL     OW22436   6.493   0.462   4.942  0.4865  0.4372 -0.4336
 7281SOL    HW122437   6.488   0.515   4.862 -1.0275 -0.1671 -0.7553
 7281SOL    HW222438   6.587   0.453   4.958  0.8560 -0.5134 -2.8678
 7282SOL     OW22439   0.467   5.109   1.587 -0.2910 -0.1774 -0.3647
 7282SOL    HW122440   0.427   5.130   1.672 -1.3809 -0.8099 -0.7064
 7282SOL    HW222441   0.529   5.180   1.571 -1.4289  0.9274  0.0875
 7283SOL     OW22442   4.677   3.350   3.652 -0.5137 -0.3600  0.0811
 7283SOL    HW122443   4.730   3.279   3.619  0.2658  0.1798  0.1489
 7283SOL    HW222444   4.669   3.333   3.746  0.0545 -0.1259  0.1773
 7284SOL     OW22445   1.766   3.635   1.301  0.0898  0.1437 -0.3911
 7284SOL    HW122446   1.800   3.583   1.228 -0.2847  0.6788 -0.9629
 7284SOL    HW222447   1.698   3.689   1.261 -0.3056  0.2471  0.4179
 7285SOL     OW22448   0.125   4.327   3.707 -0.2751  0.0172 -0.3136
 7285SOL    HW122449   0.210   4.310   3.746 -0.6459 -0.1558  0.4363
 7285SOL    HW222450   0.063   4.282   3.765 -1.0012  1.3701 -0.0313
 7286SOL     OW22451   4.659   3.366   0.212 -0.0513  0.3189 -0.2157
 7286SOL    HW122452   4.675   3.328   0.125  3.4606 -1.2437  1.0452
 7286SOL    HW222453   4.714   3.444   0.215  0.8313 -0.3322  1.0419
 7287SOL     OW22454   6.681   5.395   1.935 -0.6757 -0.3197  0.0414
 7287SOL    HW122455   6.758   5.442   1.901 -0.7728  0.0723  0.3735
 7287SOL    HW222456   6.622   5.389   1.860 -0.7257  0.2110  0.0403
 7288SOL     OW22457   2.682   0.719   5.443  0.2542 -0.1525  0.3083
 7288SOL    HW122458   2.619   0.723   5.516  0.2218  0.7213  0.2370
 7288SOL    HW222459   2.702   0.626   5.435 -1.0256 -0.4502  0.3365
 7289SOL     OW22460   2.948   1.187   4.790  0.1640  0.2511  0.4285
 7289SOL    HW122461   2.900   1.189   4.707 -0.6517  0.7833  0.9144
 7289SOL    HW222462   3.011   1.259   4.782  2.4714 -1.8743 -1.1462
 7290SOL     OW22463   5.486   7.031   4.097  0.1514 -0.3367 -0.2022
 7290SOL    HW122464   5.579   7.038   4.116  0.2927  1.8017 -1.4534
 7290SOL    HW222465   5.448   7.112   4.132 -1.0625 -0.7182 -0.5878
 7291SOL     OW22466   1.843   3.949   0.842 -0.1158 -0.0387 -0.1165
 7291SOL    HW122467   1.865   3.860   0.813 -1.5162  0.1953 -2.0304
 7291SOL    HW222468   1.830   3.998   0.760 -0.5825  1.6097  0.9251
 7292SOL     OW22469   6.646   0.176   7.161  0.8866 -0.3624 -0.0894
 7292SOL    HW122470   6.681   0.263   7.182 -0.8649  0.4231 -0.3003
 7292SOL    HW222471   6.587   0.191   7.087 -0.8766 -1.3939  1.0662
 7293SOL     OW22472   5.441   6.467   3.293  0.1141 -0.6880  0.2274
 7293SOL    HW122473   5.499   6.454   3.219 -0.9692 -1.6767 -0.4601
 7293SOL    HW222474   5.429   6.380   3.330 -2.0872 -0.7363 -0.5323
 7294SOL     OW22475   1.959   1.272   5.811  0.6108  0.2596 -0.0433
 7294SOL    HW122476   1.974   1.271   5.716  1.6944  2.9980  0.0721
 7294SOL    HW222477   1.883   1.214   5.823 -1.0082  1.6818 -2.8394
 7295SOL     OW22478   0.033   1.337   3.813 -0.8140  0.4153 -0.3766
 7295SOL    HW122479  -0.050   1.347   3.860 -0.2439  2.0452  0.3090
 7295SOL    HW222480   0.042   1.418   3.763 -0.2798 -0.3300 -1.4974
 7296SOL     OW22481   0.192   6.945   3.397  0.1202  0.5145  0.4026
 7296SOL    HW122482   0.163   6.874   3.455  0.2075 -0.1042 -0.3130
 7296SOL    HW222483   0.116   6.964   3.342  0.1542  0.8516  0.4707
 7297SOL     OW22484   1.626   3.403   6.355  0.1901 -0.0476  0.5787
 7297SOL    HW122485   1.609   3.497   6.347 -1.9426 -0.3023  1.8202
 7297SOL    HW222486   1.595   3.366   6.273 -1.1798  0.0500  1.0446
 7298SOL     OW22487   7.043   5.483   5.695 -0.2663 -0.3560 -0.3115
 7298SOL    HW122488   7.072   5.569   5.727  0.0470  0.5525 -2.9146
 7298SOL    HW222489   7.083   5.475   5.608 -2.9128 -1.7409 -1.4614
 7299SOL     OW22490   3.931   1.651   0.989 -0.0662  0.3660  0.0012
 7299SOL    HW122491   3.981   1.597   0.928 -1.0666 -1.3208  0.6334
 7299SOL    HW222492   3.853   1.676   0.939 -0.6537 -0.6183  0.4008
 7300SOL     OW22493   3.202   3.845   2.499 -0.0399 -0.1452 -0.1825
 7300SOL    HW122494   3.253   3.868   2.422 -1.6810  0.7154 -1.0378
 7300SOL    HW222495   3.214   3.751   2.509  0.9173 -0.1115 -0.9472
 7301SOL     OW22496   1.335   6.596   7.065 -0.1756 -0.2721  0.4807
 7301SOL    HW122497   1.343   6.560   6.977  0.6661 -0.4205  0.6171
 7301SOL    HW222498   1.240   6.601   7.080 -0.3475 -3.4190  0.8484
 7302SOL     OW22499   2.522   4.541   1.719 -0.5696 -0.1378  0.2142
 7302SOL    HW122500   2.467   4.479   1.767  0.9945 -2.3014 -0.7421
 7302SOL    HW222501   2.601   4.550   1.773 -0.1954 -0.0703 -0.3416
 7303SOL     OW22502   6.240   6.684   5.027 -0.0841 -0.0309  0.1033
 7303SOL    HW122503   6.285   6.615   5.076  0.0646  0.5277  0.7500
 7303SOL    HW222504   6.309   6.729   4.980  0.1200  1.2189  1.5761
 7304SOL     OW22505   3.859   4.481   3.970 -0.0326 -0.0703 -0.1442
 7304SOL    HW122506   3.882   4.562   3.924  0.0125 -0.3966 -0.7095
 7304SOL    HW222507   3.898   4.491   4.057 -0.7323  0.8702  0.0739
 7305SOL     OW22508   6.525   2.942   1.892 -0.5205  0.1422 -0.6637
 7305SOL    HW122509   6.612   2.901   1.887  0.4156  1.8208  0.9779
 7305SOL    HW222510   6.494   2.921   1.980 -0.6309  1.7596 -0.3015
 7306SOL     OW22511   5.474   4.376   4.162  0.4668  0.7813  0.3862
 7306SOL    HW122512   5.544   4.441   4.160  1.6346 -0.4312  0.7235
 7306SOL    HW222513   5.475   4.342   4.252  0.2328 -0.0630  0.0777
 7307SOL     OW22514   1.660   3.916   2.830 -0.3336 -0.0753  0.0637
 7307SOL    HW122515   1.591   3.885   2.771 -0.1438  0.5569 -0.4931
 7307SOL    HW222516   1.691   3.837   2.874 -1.8082 -0.2905  0.7411
 7308SOL     OW22517   6.358   3.234   5.525  0.4191 -0.1040 -0.3152
 7308SOL    HW122518   6.435   3.186   5.554  0.4069  0.5373  0.7939
 7308SOL    HW222519   6.290   3.212   5.589 -0.1071 -0.0684 -0.8560
 7309SOL     OW22520   3.777   2.038   5.402  0.5376  0.0543 -0.4642
 7309SOL    HW122521   3.830   2.101   5.451  1.6428 -0.4449 -0.9798
 7309SOL    HW222522   3.778   2.071   5.312 -0.4017  0.2682 -0.4044
 7310SOL     OW22523   1.083   2.707   4.814  0.4538  0.6275 -0.4593
 7310SOL    HW122524   1.006   2.651   4.804  2.1975 -1.5652 -2.0135
 7310SOL    HW222525   1.053   2.779   4.871 -2.3469 -0.8629  0.0352
 7311SOL     OW22526   6.330   1.653   2.728 -0.3155  0.2890 -0.2665
 7311SOL    HW122527   6.358   1.610   2.647  2.2345  1.7007 -0.1921
 7311SOL    HW222528   6.336   1.584   2.795 -0.9795 -0.4867 -0.9952
 7312SOL     OW22529   7.130   4.179   0.962 -0.0720 -0.0223 -0.0452
 7312SOL    HW122530   7.225   4.189   0.965 -0.0386 -0.5470  0.6050
 7312SOL    HW222531   7.097   4.269   0.952  0.5039  0.1291 -0.5508
 7313SOL     OW22532   3.676   0.826   1.205 -0.1621 -0.1284  0.4866
 7313SOL    HW122533   3.658   0.748   1.257  0.3870  0.1856  1.1505
 7313SOL    HW222534   3.642   0.805   1.118 -1.0719 -0.6602  0.9620
 7314SOL     OW22535   4.235   1.631   4.756 -0.0996 -0.0352  0.2531
 7314SOL    HW122536   4.306   1.668   4.808  0.1511  0.9565 -0.7814
 7314SOL    HW222537   4.214   1.699   4.692 -0.6954 -1.0695 -0.6706
 7315SOL     OW22538   4.469   1.695   4.221 -0.3142  0.6516 -0.3812
 7315SOL    HW122539   4.492   1.634   4.151 -1.1800 -0.3326  0.1819
 7315SOL    HW222540   4.547   1.750   4.232  0.0999  0.3022 -1.5798
 7316SOL     OW22541   6.653   0.536   1.634  0.8065  0.0272 -0.1004
 7316SOL    HW122542   6.577   0.542   1.692  0.1911  0.3776 -0.9216
 7316SOL    HW222543   6.677   0.627   1.617  0.8812 -0.0703 -0.5185
 7317SOL     OW22544   4.253   1.525   2.494 -0.1868 -0.0466 -0.2349
 7317SOL    HW122545   4.211   1.481   2.568 -1.2077  0.3463 -0.5675
 7317SOL    HW222546   4.266   1.615   2.524  0.6061 -0.2157 -0.0620
 7318SOL     OW22547   3.948   1.502   6.629  0.7992  0.7511  0.3233
 7318SOL    HW122548   4.034   1.504   6.586  0.6353  0.4325 -0.0200
 7318SOL    HW222549   3.895   1.564   6.579  0.1871 -0.6717 -0.8420
 7319SOL     OW22550   4.701   0.966   6.240 -0.2284  0.6840  0.0857
 7319SOL    HW122551   4.634   1.010   6.292 -1.5524 -0.5545 -0.5197
 7319SOL    HW222552   4.721   0.886   6.290  0.2271  0.6663 -0.1239
 7320SOL     OW22553   2.956   5.875   3.875 -0.0341  0.6390 -0.1175
 7320SOL    HW122554   3.025   5.862   3.810  0.2487  0.9713  0.1156
 7320SOL    HW222555   3.002   5.877   3.959 -0.1708  2.1611 -0.0664
 7321SOL     OW22556   6.264   4.185   5.296  0.4791  1.2432 -0.8719
 7321SOL    HW122557   6.206   4.193   5.220  1.9424 -0.7416 -2.2809
 7321SOL    HW222558   6.250   4.095   5.327  2.4486  0.8432 -1.0159
 7322SOL     OW22559   2.068   4.053   4.944 -0.3518  0.3266 -0.4933
 7322SOL    HW122560   2.101   4.016   4.862 -0.2361  0.1021 -0.3465
 7322SOL    HW222561   2.009   3.986   4.979 -2.0580  1.2964 -1.4461
 7323SOL     OW22562   6.176   4.734   6.260  0.4480  0.1199 -0.4549
 7323SOL    HW122563   6.248   4.772   6.209  1.3922  2.2320  2.3690
 7323SOL    HW222564   6.101   4.792   6.243  0.3440 -0.0666 -0.6400
 7324SOL     OW22565   3.250   0.545   3.819  0.5360 -0.2277  0.4824
 7324SOL    HW122566   3.256   0.632   3.859  2.4231  0.3389 -0.9796
 7324SOL    HW222567   3.280   0.557   3.729 -3.9587 -1.4458 -1.3021
 7325SOL     OW22568   5.049   5.716   6.227 -0.0516  0.3546  0.2136
 7325SOL    HW122569   5.070   5.806   6.201  0.0253  0.1678 -0.3746
 7325SOL    HW222570   5.130   5.667   6.211 -0.3298  0.0265 -0.2232
 7326SOL     OW22571   0.680   5.123   5.968 -0.3385 -0.0850 -0.1259
 7326SOL    HW122572   0.735   5.053   6.003 -0.0248 -0.7263 -1.8594
 7326SOL    HW222573   0.692   5.196   6.029  1.6301 -0.5551  0.0885
 7327SOL     OW22574   5.081   3.242   4.113 -0.5575 -0.0630 -0.0732
 7327SOL    HW122575   5.118   3.247   4.025 -1.0326 -2.8103 -0.4843
 7327SOL    HW222576   5.020   3.168   4.109 -0.9239  0.0634  2.4363
 7328SOL     OW22577   5.964   3.783   4.974  0.1810 -0.3733  0.1704
 7328SOL    HW122578   5.880   3.829   4.973  0.0472 -0.6251 -0.4267
 7328SOL    HW222579   5.992   3.786   5.066 -0.7295 -0.7479  0.4712
 7329SOL     OW22580   3.723   0.128   2.180 -0.2361  0.0148  0.0496
 7329SOL    HW122581   3.689   0.214   2.155  0.5311 -0.2869 -2.1261
 7329SOL    HW222582   3.747   0.137   2.272  2.2511  2.8934 -0.8202
 7330SOL     OW22583   5.774   5.686   4.907 -0.5430  0.0690  0.6527
 7330SOL    HW122584   5.858   5.681   4.862 -0.2827 -1.7172  1.3100
 7330SOL    HW222585   5.709   5.688   4.837 -0.0453 -0.4182  0.1713
 7331SOL     OW22586   4.668   3.475   3.376  0.1876  0.2230  0.1198
 7331SOL    HW122587   4.710   3.392   3.356  0.9728  0.4343  0.8437
 7331SOL    HW222588   4.588   3.450   3.422  0.3676 -0.1443  0.2414
 7332SOL     OW22589   6.436   0.610   6.684 -0.3641 -0.3255 -0.1201
 7332SOL    HW122590   6.476   0.683   6.731  0.3688 -1.6361  1.3632
 7332SOL    HW222591   6.346   0.638   6.669 -0.2673  0.6301  0.9955
 7333SOL     OW22592   4.609   1.274   0.981  0.2178  0.0201 -0.6659
 7333SOL    HW122593   4.607   1.193   1.032 -0.0730  0.5779  0.2315
 7333SOL    HW222594   4.672   1.257   0.911  0.7423 -0.7187 -0.0263
 7334SOL     OW22595   5.111   1.665   2.509 -0.0282  0.8420 -0.1950
 7334SOL    HW122596   5.037   1.635   2.562  0.4863 -0.3943 -0.1569
 7334SOL    HW222597   5.071   1.695   2.428 -0.6643  1.1424  0.2197
 7335SOL     OW22598   3.506   1.715   6.454 -0.4564 -0.1327  0.0082
 7335SOL    HW122599   3.499   1.716   6.358  0.3547 -2.2651 -0.0979
 7335SOL    HW222600   3.599   1.700   6.471 -0.8650 -1.5086  1.0998
 7336SOL     OW22601   6.524   3.925   2.075  0.2756 -0.3286  0.0704
 7336SOL    HW122602   6.505   3.944   1.983  1.9488  5.1378  0.6526
 7336SOL    HW222603   6.617   3.902   2.076  0.8559  1.9354  0.6031
 7337SOL     OW22604   1.396   5.557   4.300 -0.2087  0.7588 -0.0154
 7337SOL    HW122605   1.372   5.480   4.352  0.3673  1.2214  0.9346
 7337SOL    HW222606   1.483   5.582   4.331  0.0057  1.2389 -0.9698
 7338SOL     OW22607   2.192   4.924   5.550 -0.1146  0.3826  0.1942
 7338SOL    HW122608   2.138   4.878   5.486  0.8558  0.2892 -0.5665
 7338SOL    HW222609   2.165   4.887   5.635 -1.2345  0.3418 -0.1737
 7339SOL     OW22610   6.756   4.677   6.783 -0.4157  0.2636 -0.4062
 7339SOL    HW122611   6.680   4.683   6.726 -0.8726  1.0818  0.2695
 7339SOL    HW222612   6.729   4.721   6.864 -0.3205 -2.2098  1.0287
 7340SOL     OW22613   4.564   6.907   4.972 -0.5386 -0.3429  0.0580
 7340SOL    HW122614   4.643   6.941   5.012 -0.3413  0.8221 -1.3021
 7340SOL    HW222615   4.595   6.844   4.907 -0.8393 -1.8807  1.3881
 7341SOL     OW22616   3.484   0.804   6.814  0.1295  0.4123  0.2465
 7341SOL    HW122617   3.413   0.740   6.807  1.5680 -1.2107  0.1615
 7341SOL    HW222618   3.464   0.869   6.745 -1.2780  0.0143  0.2580
 7342SOL     OW22619   5.364   6.894   3.889  0.2624  0.1530  0.6289
 7342SOL    HW122620   5.437   6.839   3.861  1.6607  1.6529  1.2869
 7342SOL    HW222621   5.397   6.944   3.963 -0.6609  2.6042 -0.5591
 7343SOL     OW22622   1.877   0.498   5.844 -0.0997 -0.4663 -0.4000
 7343SOL    HW122623   1.797   0.532   5.803  0.5195  1.0569 -0.3706
 7343SOL    HW222624   1.927   0.576   5.867 -0.2200 -1.2926  2.8773
 7344SOL     OW22625   2.339   0.694   2.358  0.3299  0.4158  0.2230
 7344SOL    HW122626   2.367   0.605   2.381 -1.2299  0.3836  2.1674
 7344SOL    HW222627   2.376   0.749   2.427  1.3633  1.3107 -1.0263
 7345SOL     OW22628   2.009   4.832   1.505  0.4402  0.1732 -0.6470
 7345SOL    HW122629   1.954   4.810   1.429 -0.6220  0.1438  0.1240
 7345SOL    HW222630   2.038   4.748   1.539  0.3923  0.1615 -0.6356
 7346SOL     OW22631   5.067   3.024   2.232 -0.1787 -0.0806 -1.0193
 7346SOL    HW122632   5.063   3.118   2.216 -1.7068  0.1504  0.5873
 7346SOL    HW222633   5.144   2.995   2.182  0.7664  2.1283 -0.9332
 7347SOL     OW22634   0.199   0.099   4.355  0.6903 -0.2905 -0.1227
 7347SOL    HW122635   0.143   0.051   4.417  0.5448 -2.0868 -1.5775
 7347SOL    HW222636   0.146   0.104   4.275  1.3103  0.9908 -0.4504
 7348SOL     OW22637   2.002   0.007   2.339 -0.4506 -0.4374 -0.4588
 7348SOL    HW122638   2.042  -0.007   2.254 -0.0384  1.7405 -0.6381
 7348SOL    HW222639   2.065   0.060   2.388 -1.0180 -1.0158  0.9431
 7349SOL     OW22640   1.151   7.226   3.661 -0.0233  0.1788 -0.2390
 7349SOL    HW122641   1.120   7.229   3.751  3.3184  0.7796  0.9367
 7349SOL    HW222642   1.178   7.315   3.641  0.1333 -0.1394 -1.5400
 7350SOL     OW22643   7.145   5.444   3.379  0.6166 -0.2240 -0.0974
 7350SOL    HW122644   7.088   5.490   3.441  1.9734  1.9478 -0.4145
 7350SOL    HW222645   7.103   5.360   3.366 -1.3344  0.4852  1.3958
 7351SOL     OW22646   3.514   1.517   2.653  0.0315 -0.5767  0.5527
 7351SOL    HW122647   3.542   1.547   2.566 -0.9486  0.3746  0.5567
 7351SOL    HW222648   3.584   1.547   2.711 -1.5545  3.0338  0.7694
 7352SOL     OW22649   6.430   1.903   2.004 -0.0572 -0.1708 -0.3257
 7352SOL    HW122650   6.378   1.941   1.932 -1.5536 -1.1524  0.2159
 7352SOL    HW222651   6.422   1.967   2.075 -0.7127 -0.4261 -0.1692
 7353SOL     OW22652   2.957   1.356   3.897 -0.0951 -0.1671  0.2125
 7353SOL    HW122653   3.008   1.288   3.941 -2.6273 -2.2343  0.1083
 7353SOL    HW222654   2.922   1.410   3.969 -2.4762 -2.2647  0.7112
 7354SOL     OW22655   4.300   2.102   5.122 -0.1427  0.3323  0.4804
 7354SOL    HW122656   4.269   2.189   5.098 -1.2371  0.0196  0.7443
 7354SOL    HW222657   4.388   2.117   5.156 -0.6756  1.4726  1.4050
 7355SOL     OW22658   4.401   6.237   5.664  0.1013 -0.0070 -0.6215
 7355SOL    HW122659   4.426   6.328   5.678 -0.4021 -0.0366  0.5364
 7355SOL    HW222660   4.454   6.188   5.727  0.6612 -0.5601 -1.5112
 7356SOL     OW22661   2.901   5.197   5.122 -0.1835 -0.0294  0.1017
 7356SOL    HW122662   2.874   5.183   5.212  0.1146  0.5488  0.2794
 7356SOL    HW222663   2.932   5.111   5.093 -1.8316 -0.6072  0.0156
 7357SOL     OW22664   0.690   2.708   2.772  0.2740 -0.4868  0.3640
 7357SOL    HW122665   0.777   2.671   2.787  0.4112  0.0409  0.8939
 7357SOL    HW222666   0.704   2.777   2.707  0.2959 -0.2491  0.6166
 7358SOL     OW22667   1.204   2.969   6.689 -0.1800 -0.4265  0.3149
 7358SOL    HW122668   1.111   2.949   6.700 -0.3504  0.0941 -0.1392
 7358SOL    HW222669   1.231   2.918   6.613 -0.3592  0.2295 -0.1998
 7359SOL     OW22670   4.244   2.860   5.299  0.4999  0.2639 -0.2762
 7359SOL    HW122671   4.311   2.800   5.266 -0.4422 -1.0184  0.1094
 7359SOL    HW222672   4.288   2.910   5.368  1.0129 -0.7214  0.1228
 7360SOL     OW22673   2.854   6.016   0.449 -0.0810 -0.4402  0.1809
 7360SOL    HW122674   2.780   5.963   0.421 -0.7871  1.1290 -0.9700
 7360SOL    HW222675   2.825   6.106   0.438  1.9649  0.1986 -0.1711
 7361SOL     OW22676   1.899   2.536   5.141  0.2302 -0.1290  0.4020
 7361SOL    HW122677   1.895   2.604   5.208 -0.6824 -0.3004  0.5278
 7361SOL    HW222678   1.965   2.567   5.080 -0.0558  0.7870  0.5475
 7362SOL     OW22679   5.779   3.442   6.819  0.3284 -0.2819 -0.3487
 7362SOL    HW122680   5.701   3.414   6.771  0.5602 -1.4981 -0.0350
 7362SOL    HW222681   5.834   3.484   6.753 -0.5087  0.4281 -0.6086
 7363SOL     OW22682   4.752   2.490   0.065 -0.6067  0.2192  0.2313
 7363SOL    HW122683   4.842   2.498   0.099 -0.3163  0.5953 -0.6112
 7363SOL    HW222684   4.740   2.568   0.011 -2.2121  1.2814  2.0359
 7364SOL     OW22685   3.095   4.202   6.252  0.2808 -0.1132 -0.3156
 7364SOL    HW122686   3.165   4.234   6.195  0.7866 -1.3394 -0.3780
 7364SOL    HW222687   3.101   4.107   6.247 -0.6186 -0.2220  0.6306
 7365SOL     OW22688   6.864   1.232   4.080 -0.1328  0.0786 -0.1850
 7365SOL    HW122689   6.829   1.191   4.159 -0.5330  0.6497 -0.0595
 7365SOL    HW222690   6.827   1.180   4.008 -1.9734  1.1882 -0.0920
 7366SOL     OW22691   5.063   4.685   2.922  0.5285 -0.0859 -0.2520
 7366SOL    HW122692   5.081   4.668   3.014  0.4019  2.1121  0.2049
 7366SOL    HW222693   5.076   4.601   2.879 -0.6841 -1.4448  1.9501
 7367SOL     OW22694   1.671   2.705   1.834 -0.2810  0.0549 -0.1432
 7367SOL    HW122695   1.620   2.781   1.862 -1.8507 -0.7154 -0.8532
 7367SOL    HW222696   1.638   2.633   1.888  1.7239  0.0025  1.0648
 7368SOL     OW22697   1.348   5.772   2.942 -0.4021  0.4695  0.1648
 7368SOL    HW122698   1.258   5.784   2.973 -0.4731 -0.5060  0.3567
 7368SOL    HW222699   1.378   5.860   2.919 -1.7719  0.6797 -0.8798
 7369SOL     OW22700   1.429   4.451   6.195 -0.2750  0.3211  0.3071
 7369SOL    HW122701   1.497   4.424   6.257 -0.6808  0.1525  0.6834
 7369SOL    HW222702   1.460   4.419   6.110 -0.7027 -1.2639  0.7221
 7370SOL     OW22703   3.916   0.305   2.609  0.1371  0.4556  0.0487
 7370SOL    HW122704   3.831   0.277   2.645  0.8864  0.0716  1.5364
 7370SOL    HW222705   3.904   0.300   2.514 -1.1485 -0.6925  0.2545
 7371SOL     OW22706   3.491   2.098   1.071 -0.1373 -0.2052  0.9137
 7371SOL    HW122707   3.461   2.170   1.126 -2.4369  0.6275 -1.3056
 7371SOL    HW222708   3.412   2.048   1.051  0.7427 -0.9285 -0.9154
 7372SOL     OW22709   2.830   5.667   6.171 -0.5289  0.0020 -0.4138
 7372SOL    HW122710   2.760   5.733   6.171 -0.2596  0.2896 -0.3815
 7372SOL    HW222711   2.808   5.609   6.098  0.9590  1.9633 -2.5029
 7373SOL     OW22712   4.272   0.309   5.671  0.3144  0.3587 -0.4405
 7373SOL    HW122713   4.321   0.233   5.702  0.3326  0.7654  0.5433
 7373SOL    HW222714   4.182   0.294   5.700  0.1801  0.3679 -0.8576
 7374SOL     OW22715   2.346   3.701   2.515 -0.3545 -0.3918  0.1621
 7374SOL    HW122716   2.352   3.637   2.586 -1.7181 -0.9161 -0.1672
 7374SOL    HW222717   2.405   3.667   2.448 -0.5693 -0.9618  0.2560
 7375SOL     OW22718   3.234   4.172   0.485  0.2383 -0.6421 -0.3473
 7375SOL    HW122719   3.177   4.139   0.416  0.1561 -1.0065 -0.1054
 7375SOL    HW222720   3.212   4.265   0.492 -1.8950 -1.2310  1.2684
 7376SOL     OW22721   7.183   1.615   4.737  0.0194 -0.3622 -0.1114
 7376SOL    HW122722   7.137   1.640   4.818  0.2291  0.5835 -0.2842
 7376SOL    HW222723   7.112   1.595   4.675 -0.1454 -0.7456  0.1990
 7377SOL     OW22724   5.162   3.311   5.955  0.0655 -0.2852 -0.1886
 7377SOL    HW122725   5.172   3.218   5.936 -0.2846 -0.4579  0.4759
 7377SOL    HW222726   5.209   3.324   6.038 -0.3736  0.0194  0.0116
 7378SOL     OW22727   4.187   0.722   0.302  0.1352  0.6783  1.4061
 7378SOL    HW122728   4.136   0.766   0.235 -3.0246 -1.8438  2.0131
 7378SOL    HW222729   4.200   0.788   0.370 -0.6832  1.9069  0.3816
 7379SOL     OW22730   1.998   2.284   5.276  0.2364  0.6068  0.4452
 7379SOL    HW122731   1.935   2.353   5.297 -0.4477 -0.3220  1.4797
 7379SOL    HW222732   2.007   2.288   5.181 -1.0661  1.0118  0.3259
 7380SOL     OW22733   0.444   5.523   7.118  0.0229 -0.1381  0.0443
 7380SOL    HW122734   0.409   5.612   7.110  0.7594  0.4124  2.3664
 7380SOL    HW222735   0.368   5.466   7.110 -0.4360  0.6881 -1.5917
 7381SOL     OW22736   0.126   6.096   1.569  0.6487 -0.1388  0.4522
 7381SOL    HW122737   0.173   6.021   1.605 -0.6247 -1.3310 -0.3378
 7381SOL    HW222738   0.075   6.130   1.642  3.4404  1.7738  1.5858
 7382SOL     OW22739   4.697   4.945   4.725 -0.6836 -0.1914  0.4983
 7382SOL    HW122740   4.768   4.890   4.755 -1.9507 -1.8796  0.4874
 7382SOL    HW222741   4.688   4.924   4.632  0.7981  2.2922 -0.2608
 7383SOL     OW22742   4.738   2.271   0.503 -0.1648  0.0644  0.2633
 7383SOL    HW122743   4.708   2.185   0.473  0.1817 -0.0718  0.3091
 7383SOL    HW222744   4.709   2.331   0.434 -2.1102  0.1910  1.1640
 7384SOL     OW22745   4.268   5.426   6.267 -0.1226 -0.0484 -0.0432
 7384SOL    HW122746   4.196   5.366   6.246 -0.7213  0.0232  1.7032
 7384SOL    HW222747   4.343   5.369   6.283  0.3697 -0.0937 -2.4281
 7385SOL     OW22748   5.308   2.182   2.249 -0.0358 -0.1249 -0.7012
 7385SOL    HW122749   5.349   2.104   2.287 -0.1392  0.5419  0.8205
 7385SOL    HW222750   5.217   2.178   2.277 -0.0076  0.6208 -0.4828
 7386SOL     OW22751   0.076   0.856   3.365  0.6616 -0.2829  0.8023
 7386SOL    HW122752   0.120   0.911   3.429  0.6831 -0.5900  1.0534
 7386SOL    HW222753   0.074   0.769   3.405 -0.3297 -0.2326  0.8653
 7387SOL     OW22754   4.226   2.931   0.033 -0.4726  0.0317 -0.2459
 7387SOL    HW122755   4.273   2.902   0.111  0.0040  2.7718  0.5370
 7387SOL    HW222756   4.204   2.850  -0.014 -1.5944 -1.7089  3.1715
 7388SOL     OW22757   4.093   0.070   4.345  0.4222 -0.0879 -0.0403
 7388SOL    HW122758   4.084   0.052   4.439  0.0582  0.5054  0.0416
 7388SOL    HW222759   4.097  -0.017   4.305 -1.0763 -0.3609  0.3743
 7389SOL     OW22760   2.677   5.961   5.441  0.1079  0.1515 -0.3402
 7389SOL    HW122761   2.622   5.884   5.457 -1.7578  1.5661  0.3062
 7389SOL    HW222762   2.709   5.951   5.352 -1.1904 -0.7266 -0.7118
 7390SOL     OW22763   3.677   2.828   2.564 -0.0552 -0.5187 -0.0700
 7390SOL    HW122764   3.706   2.801   2.652 -0.4696 -0.4294  0.0939
 7390SOL    HW222765   3.673   2.746   2.515  0.8201 -0.4937 -0.1986
 7391SOL     OW22766   2.080   0.603   4.533 -0.1146 -0.0526 -0.0105
 7391SOL    HW122767   2.158   0.581   4.483 -0.2992 -1.5347  0.3430
 7391SOL    HW222768   2.007   0.572   4.480 -0.3931 -0.0669  0.3816
 7392SOL     OW22769   1.074   0.947   1.719  0.2775 -0.0578 -0.0495
 7392SOL    HW122770   0.986   0.932   1.752  0.4577  0.8965  0.8798
 7392SOL    HW222771   1.123   0.868   1.743 -0.7780 -1.4513 -2.2709
 7393SOL     OW22772   4.687   7.232   5.529 -0.5134 -0.5822  0.1974
 7393SOL    HW122773   4.700   7.145   5.491  0.8514  0.2721 -1.3546
 7393SOL    HW222774   4.720   7.224   5.619  2.0956 -0.9929 -0.7522
 7394SOL     OW22775   5.495   5.351   0.295 -0.0008  0.4645 -0.1203
 7394SOL    HW122776   5.506   5.327   0.387  0.3235 -0.3500 -0.3599
 7394SOL    HW222777   5.585   5.361   0.262 -0.1227  1.2802 -0.2175
 7395SOL     OW22778   6.085   0.659   3.732 -0.0908  0.3794  0.0535
 7395SOL    HW122779   6.165   0.653   3.680  0.5937  2.8930  0.7691
 7395SOL    HW222780   6.019   0.692   3.671 -0.1482  0.0605 -0.0615
 7396SOL     OW22781   6.399   4.960   1.584  0.0073 -0.5752  0.3730
 7396SOL    HW122782   6.360   4.904   1.651  0.8997  0.4500  1.7778
 7396SOL    HW222783   6.493   4.942   1.589  0.2726  0.8802  0.6847
 7397SOL     OW22784   6.548   1.259   4.599 -0.3974  0.4964  0.4081
 7397SOL    HW122785   6.631   1.307   4.602  0.5108 -1.0796  0.7535
 7397SOL    HW222786   6.509   1.273   4.686 -0.6738  1.5246  0.1272
 7398SOL     OW22787   2.043   2.914   0.501  0.3227 -0.1634 -0.2302
 7398SOL    HW122788   2.130   2.875   0.499  0.5127  0.0593  2.1049
 7398SOL    HW222789   2.044   2.972   0.578 -1.8730 -0.1360 -0.1787
 7399SOL     OW22790   5.735   1.370   1.716  0.0142  0.1616  0.5297
 7399SOL    HW122791   5.760   1.435   1.782 -1.0155  0.4222  0.6649
 7399SOL    HW222792   5.717   1.421   1.637  1.5792 -0.1771 -0.0719
 7400SOL     OW22793   6.846   6.614   2.875 -0.0344  0.5284 -0.0874
 7400SOL    HW122794   6.863   6.676   2.804  2.6127  1.1956  1.0601
 7400SOL    HW222795   6.885   6.532   2.846 -2.1183 -0.1923 -0.9140
 7401SOL     OW22796   2.875   2.962   5.328  0.3832 -0.2175  0.1556
 7401SOL    HW122797   2.815   2.889   5.345  2.0914 -1.9020 -0.8193
 7401SOL    HW222798   2.898   2.952   5.235 -0.4717  2.4409 -0.3855
 7402SOL     OW22799   0.792   6.696   2.085 -0.4392 -0.6008  0.9216
 7402SOL    HW122800   0.864   6.745   2.045  0.1518 -0.1498  2.4990
 7402SOL    HW222801   0.737   6.670   2.012  1.0170 -0.4390 -0.2520
 7403SOL     OW22802   6.383   2.383   7.206  0.3058 -0.2552  0.2842
 7403SOL    HW122803   6.421   2.336   7.280 -1.7487 -2.3549  0.0737
 7403SOL    HW222804   6.339   2.315   7.154 -1.5113  1.6892 -0.8271
 7404SOL     OW22805   0.831   4.568   4.646 -0.0488  0.0926 -0.0697
 7404SOL    HW122806   0.865   4.635   4.586  0.0749  0.4004  0.3456
 7404SOL    HW222807   0.759   4.528   4.598 -2.0778  2.5510  0.8149
 7405SOL     OW22808   2.672   4.196   0.117 -0.4316  0.7775 -0.1750
 7405SOL    HW122809   2.709   4.127   0.171 -0.8779  0.7482  0.1012
 7405SOL    HW222810   2.743   4.223   0.058  0.5783  1.9778  1.5492
 7406SOL     OW22811   6.366   5.615   1.469  0.1513 -0.1510  0.4151
 7406SOL    HW122812   6.405   5.689   1.423  1.6493 -1.3925 -0.3692
 7406SOL    HW222813   6.409   5.616   1.555  0.8946 -0.6600  0.0612
 7407SOL     OW22814   5.341   2.054   5.681  0.0260  0.3354  0.0581
 7407SOL    HW122815   5.266   2.011   5.721 -0.0671 -0.0385 -0.5146
 7407SOL    HW222816   5.406   2.060   5.752  0.2394 -1.2189  0.0134
 7408SOL     OW22817   4.610   0.013   1.633 -0.4074 -0.2890  0.1966
 7408SOL    HW122818   4.547   0.039   1.566  0.3181 -1.1181 -0.8385
 7408SOL    HW222819   4.650   0.095   1.662  1.1056 -0.0936 -2.2583
 7409SOL     OW22820   2.918   4.495   5.934  0.0162 -0.4184 -0.2100
 7409SOL    HW122821   2.826   4.510   5.913 -0.0250 -1.4587 -0.8444
 7409SOL    HW222822   2.953   4.581   5.955 -0.9270  0.0842 -0.6761
 7410SOL     OW22823   1.897   3.445   6.231  0.8590 -0.1126  0.3518
 7410SOL    HW122824   1.821   3.403   6.271  2.3968 -2.1153  1.2749
 7410SOL    HW222825   1.864   3.482   6.149 -1.1642 -0.6649  0.8934
 7411SOL     OW22826   2.102   2.361   6.280  0.0722 -0.4283  0.0323
 7411SOL    HW122827   2.147   2.427   6.334 -0.6764 -1.1069  1.5118
 7411SOL    HW222828   2.059   2.412   6.211 -0.6400  0.6788  1.2625
 7412SOL     OW22829   5.933   0.414   7.131 -0.4241 -0.0650 -0.4281
 7412SOL    HW122830   6.018   0.416   7.087  0.2024  0.8461  0.7830
 7412SOL    HW222831   5.894   0.331   7.104  0.8109 -0.4508 -1.0702
 7413SOL     OW22832   6.651   2.766   3.352  0.5201  0.0586  0.2751
 7413SOL    HW122833   6.721   2.734   3.295  0.5295  1.3925 -0.4638
 7413SOL    HW222834   6.695   2.794   3.432  0.4906 -1.9686  1.0326
 7414SOL     OW22835   6.193   2.772   0.636 -1.0743 -0.0780  0.6855
 7414SOL    HW122836   6.192   2.815   0.722 -1.8996 -1.0245  1.1493
 7414SOL    HW222837   6.221   2.683   0.654  0.5319  0.2183 -0.2763
 7415SOL     OW22838   3.530   4.424   2.228  0.5255  0.1442  0.1901
 7415SOL    HW122839   3.544   4.474   2.147  1.5581  2.4186  1.7297
 7415SOL    HW222840   3.603   4.361   2.230  0.5398  0.1327 -0.6019
 7416SOL     OW22841   0.584   0.550   0.584  0.0181 -0.2704  0.3857
 7416SOL    HW122842   0.616   0.620   0.641 -0.9625  0.8108 -0.3627
 7416SOL    HW222843   0.525   0.500   0.640 -0.9958  0.8255  0.3273
 7417SOL     OW22844   4.455   5.432   6.551 -0.0072  0.3009  0.0164
 7417SOL    HW122845   4.445   5.338   6.567  1.4073  0.2823  0.8987
 7417SOL    HW222846   4.476   5.439   6.458 -1.6255 -0.1312 -0.3927
 7418SOL     OW22847   1.267   2.512   7.134 -0.1933  0.4300  0.5269
 7418SOL    HW122848   1.185   2.481   7.096  0.8003 -1.4714 -0.1506
 7418SOL    HW222849   1.294   2.443   7.195  1.2084  0.7213  0.2667
 7419SOL     OW22850   3.584   1.139   3.090  0.6010 -0.3582  0.6842
 7419SOL    HW122851   3.623   1.159   3.175  2.5188 -1.1438  0.0208
 7419SOL    HW222852   3.599   1.045   3.079 -1.1076 -0.5868  0.1943
 7420SOL     OW22853   0.990   3.865   6.432 -0.3411  0.0729 -0.0445
 7420SOL    HW122854   0.935   3.790   6.454  1.1019 -1.1435 -0.4936
 7420SOL    HW222855   1.047   3.833   6.362  0.4187  1.5398 -0.1092
 7421SOL     OW22856   5.780   2.243   5.969  0.6927  0.0617 -0.2309
 7421SOL    HW122857   5.825   2.163   5.996  1.6255 -0.0344 -1.9782
 7421SOL    HW222858   5.847   2.311   5.975  0.7038  0.1797 -1.4688
 7422SOL     OW22859   3.190   3.506   4.574  0.5633 -0.1604  0.5375
 7422SOL    HW122860   3.162   3.459   4.653  2.8953 -0.4997  1.1961
 7422SOL    HW222861   3.194   3.597   4.601  0.5587 -0.1686  0.5654
 7423SOL     OW22862   3.834   5.621   1.492  0.4500 -0.0653  0.0145
 7423SOL    HW122863   3.744   5.588   1.486  0.0813  0.5420  1.8365
 7423SOL    HW222864   3.879   5.560   1.550  1.2810 -0.4627 -1.0277
 7424SOL     OW22865   6.103   0.581   5.238 -0.0506  0.2650 -0.3340
 7424SOL    HW122866   6.182   0.614   5.195  0.1254  0.2948  0.0127
 7424SOL    HW222867   6.120   0.487   5.250  0.6318  0.5849  1.2641
 7425SOL     OW22868   2.568   1.823   3.461  0.2754  0.1403  0.6168
 7425SOL    HW122869   2.648   1.811   3.410 -0.2418 -1.6816  0.1893
 7425SOL    HW222870   2.499   1.832   3.395  0.4118  4.4345  0.9179
 7426SOL     OW22871   5.354   7.035   3.320  0.2242 -0.2454  0.6401
 7426SOL    HW122872   5.329   7.110   3.375 -1.9106  0.2710 -0.9747
 7426SOL    HW222873   5.291   6.967   3.343 -0.9110  0.0933 -1.3718
 7427SOL     OW22874   0.133   5.301   3.646 -0.0300  0.2082  0.6270
 7427SOL    HW122875   0.209   5.262   3.602  0.1712  0.8652  0.3858
 7427SOL    HW222876   0.066   5.305   3.577 -0.2079 -0.1590  0.7789
 7428SOL     OW22877   1.716   3.549   1.634  0.1429 -0.6294 -0.2614
 7428SOL    HW122878   1.796   3.601   1.625 -0.5978  0.5866  0.0578
 7428SOL    HW222879   1.676   3.550   1.547  0.2017 -0.7751 -0.2896
 7429SOL     OW22880   4.452   0.890   6.911  0.3450 -0.0681 -0.0787
 7429SOL    HW122881   4.363   0.859   6.931  0.3727 -0.3729 -0.4262
 7429SOL    HW222882   4.441   0.949   6.837  0.3786  0.2486  0.1657
 7430SOL     OW22883   0.864   3.319   3.433 -0.5638  0.4715 -0.1812
 7430SOL    HW122884   0.929   3.257   3.400 -1.7021 -0.8965  0.1275
 7430SOL    HW222885   0.898   3.405   3.406 -0.7451 -0.4871 -3.6913
 7431SOL     OW22886   0.160   6.475   3.059  0.4278 -0.1679 -0.1474
 7431SOL    HW122887   0.158   6.568   3.080  0.6099  0.1081 -1.3185
 7431SOL    HW222888   0.068   6.448   3.061 -0.0105  0.9206 -3.6052
 7432SOL     OW22889   6.401   0.565   3.115 -0.2585  0.6384  0.0967
 7432SOL    HW122890   6.317   0.606   3.137 -0.6124 -0.4779  0.8748
 7432SOL    HW222891   6.457   0.638   3.090 -0.5861  1.7267  2.3907
 7433SOL     OW22892   1.019   2.601   2.296  0.0846 -0.2781  0.0010
 7433SOL    HW122893   1.066   2.518   2.290 -0.2900 -0.5131  0.3385
 7433SOL    HW222894   1.087   2.666   2.314  0.3790 -0.5079 -0.2849
 7434SOL     OW22895   6.867   6.111   7.144  0.1094  0.0526 -0.3538
 7434SOL    HW122896   6.842   6.199   7.115 -0.1033  0.2209  0.3343
 7434SOL    HW222897   6.882   6.063   7.062 -0.0807  0.6360 -0.7401
 7435SOL     OW22898   2.977   2.195   1.964 -0.3441 -0.1195 -0.5159
 7435SOL    HW122899   3.015   2.120   2.010 -0.1672  0.4217  0.2318
 7435SOL    HW222900   2.982   2.267   2.027 -0.7977  0.4459 -1.1168
 7436SOL     OW22901   6.791   6.904   6.617  0.0866  0.4839 -0.2601
 7436SOL    HW122902   6.855   6.973   6.634  0.4701  0.5261 -1.8140
 7436SOL    HW222903   6.712   6.951   6.592 -0.3201  0.4127  0.8947
 7437SOL     OW22904   6.339   1.403   3.237 -0.0569 -0.0779 -0.3544
 7437SOL    HW122905   6.300   1.340   3.177  0.4774 -0.5696 -0.1937
 7437SOL    HW222906   6.393   1.350   3.296  0.6082  0.5456 -0.3856
 7438SOL     OW22907   3.908   5.546   0.997  0.3049 -0.7436  0.1396
 7438SOL    HW122908   3.872   5.490   1.065  2.7515 -0.9482  1.2937
 7438SOL    HW222909   3.953   5.616   1.044 -0.4840  0.7587 -1.2865
 7439SOL     OW22910   4.445   2.587   0.516 -0.2872 -0.3693 -0.7277
 7439SOL    HW122911   4.501   2.535   0.460 -0.3869 -0.2460 -0.9414
 7439SOL    HW222912   4.472   2.678   0.501  1.4601 -0.5039  1.3581
 7440SOL     OW22913   2.853   6.299   2.816 -0.2827  0.1762  0.1978
 7440SOL    HW122914   2.825   6.208   2.812 -0.3516  0.2215 -0.5585
 7440SOL    HW222915   2.809   6.335   2.892 -2.5020  0.3076 -1.1105
 7441SOL     OW22916   4.079   2.037   0.067  0.2477 -0.6709 -0.0264
 7441SOL    HW122917   4.092   2.132   0.067 -0.3232 -0.5777  0.9824
 7441SOL    HW222918   4.164   2.001   0.093  0.6272 -0.4737 -0.9694
 7442SOL     OW22919   1.679   1.838   5.569 -0.1858  0.0520 -0.0034
 7442SOL    HW122920   1.622   1.774   5.526  0.3111 -0.1948 -0.3005
 7442SOL    HW222921   1.636   1.922   5.555  1.1346  0.2741 -2.9475
 7443SOL     OW22922   1.378   7.173   1.969  0.4227  0.0659 -0.1601
 7443SOL    HW122923   1.440   7.220   1.913  2.2217 -1.9590  0.0207
 7443SOL    HW222924   1.360   7.092   1.921 -1.6210  0.3618  0.0948
 7444SOL     OW22925   1.638   5.264   2.336  0.4039  0.4252 -0.1250
 7444SOL    HW122926   1.727   5.287   2.310  0.2481  0.5435 -0.5550
 7444SOL    HW222927   1.593   5.348   2.346 -0.1965  0.3183 -1.8063
 7445SOL     OW22928   3.119   0.107   0.285  0.2240 -0.3571 -0.0606
 7445SOL    HW122929   3.031   0.144   0.283  0.2520 -0.2482  0.6794
 7445SOL    HW222930   3.120   0.050   0.361  1.3089  0.9299  0.9171
 7446SOL     OW22931   2.036   4.909   3.110  0.1619 -0.3899 -0.1761
 7446SOL    HW122932   2.000   4.879   3.193  2.0760 -4.1094 -0.5780
 7446SOL    HW222933   2.128   4.929   3.130 -0.3866  2.6728 -0.5490
 7447SOL     OW22934   5.329   0.881   4.639 -0.3946 -0.2051 -0.3167
 7447SOL    HW122935   5.244   0.912   4.609  0.0805 -0.7572 -2.3121
 7447SOL    HW222936   5.365   0.953   4.690 -0.2017  1.7567 -3.1165
 7448SOL     OW22937   5.975   1.388   2.862  0.0198  0.0602 -0.0027
 7448SOL    HW122938   5.988   1.421   2.951 -0.5605 -0.1699  0.1693
 7448SOL    HW222939   5.881   1.368   2.858 -0.0415  0.5005 -0.8149
 7449SOL     OW22940   3.818   3.536   6.845 -0.4823 -0.2014 -0.0667
 7449SOL    HW122941   3.776   3.461   6.887  0.9416 -1.6072 -1.0989
 7449SOL    HW222942   3.838   3.506   6.756  1.7236  0.7763  0.0643
 7450SOL     OW22943   5.613   2.915   6.918  0.1111  0.4137  0.5513
 7450SOL    HW122944   5.691   2.962   6.889 -0.3517  0.1289 -1.2437
 7450SOL    HW222945   5.646   2.850   6.980  1.5650 -0.9780 -1.6392
 7451SOL     OW22946   0.490   4.708   2.619  0.3314  0.4020 -0.1633
 7451SOL    HW122947   0.456   4.795   2.641 -0.1161  0.3322 -0.5700
 7451SOL    HW222948   0.510   4.713   2.526 -0.4776 -0.1868 -0.3736
 7452SOL     OW22949   3.494   5.929   0.126 -0.0625 -0.1580 -0.4489
 7452SOL    HW122950   3.467   5.985   0.200  0.7495 -1.7162  1.0751
 7452SOL    HW222951   3.557   5.982   0.077 -0.7086  0.9514 -0.1048
 7453SOL     OW22952   0.344   1.681   0.051  0.3892 -0.3947  0.7213
 7453SOL    HW122953   0.305   1.709  -0.032 -0.9268 -0.2908  1.3800
 7453SOL    HW222954   0.273   1.638   0.099  1.1618 -0.5296  1.7715
 7454SOL     OW22955   4.708   3.049   4.519 -0.7260  0.3979 -0.3193
 7454SOL    HW122956   4.738   3.043   4.610  1.0598  0.7886 -0.8519
 7454SOL    HW222957   4.626   3.001   4.517 -0.4268 -0.2121  1.3499
 7455SOL     OW22958   6.588   1.398   5.921  0.2275 -0.1577 -0.2682
 7455SOL    HW122959   6.529   1.464   5.956  0.6235 -0.0063  0.1111
 7455SOL    HW222960   6.654   1.386   5.988  0.5604 -0.4223 -0.6388
 7456SOL     OW22961   5.177   0.824   6.467  0.4017  0.7576 -0.5486
 7456SOL    HW122962   5.121   0.844   6.393 -0.3163 -3.1120 -1.1311
 7456SOL    HW222963   5.117   0.798   6.537  1.2513  1.1147  0.3374
 7457SOL     OW22964   4.860   5.074   0.892  0.0313 -0.1691 -0.5214
 7457SOL    HW122965   4.765   5.063   0.898  0.0117  0.6554  1.0579
 7457SOL    HW222966   4.896   4.992   0.926 -0.1274  0.0870  0.2871
 7458SOL     OW22967   6.301   5.121   6.170  0.3670 -0.7403 -0.2541
 7458SOL    HW122968   6.253   5.111   6.251  2.9771 -2.8049  1.1214
 7458SOL    HW222969   6.383   5.164   6.195  0.1567  0.8873 -2.2023
 7459SOL     OW22970   4.157   0.158   2.690  0.2852 -0.5390  0.4848
 7459SOL    HW122971   4.090   0.216   2.654  0.2759  0.1288  1.5635
 7459SOL    HW222972   4.231   0.166   2.631 -0.0633 -0.1601  0.0959
 7460SOL     OW22973   6.841   5.469   4.007 -0.2442  0.2517  0.2150
 7460SOL    HW122974   6.883   5.405   3.948 -1.7191 -1.2046  0.7278
 7460SOL    HW222975   6.807   5.536   3.948  0.0482 -0.1742 -0.4549
 7461SOL     OW22976   0.521   0.212   2.792  0.6056  0.0416 -0.4086
 7461SOL    HW122977   0.572   0.164   2.727  2.4403  0.1515  0.9071
 7461SOL    HW222978   0.535   0.304   2.770  1.9593  0.1095  0.6270
 7462SOL     OW22979   5.318   6.334   6.990 -0.4222  0.1288 -0.3800
 7462SOL    HW122980   5.327   6.334   7.086  0.2239 -2.3271 -0.3937
 7462SOL    HW222981   5.407   6.321   6.958 -0.8611 -0.8305 -1.2399
 7463SOL     OW22982   1.121   4.871   4.083 -0.6117 -0.1235  0.0551
 7463SOL    HW122983   1.101   4.887   3.991 -1.8551 -0.6107  0.2246
 7463SOL    HW222984   1.210   4.837   4.083 -1.3399 -2.0989 -1.1677
 7464SOL     OW22985   1.837   6.104   6.597  0.5287  0.0079  0.3490
 7464SOL    HW122986   1.842   6.187   6.549  0.3974 -0.6300 -0.8011
 7464SOL    HW222987   1.779   6.122   6.671  1.9518  1.4241  1.1464
 7465SOL     OW22988   0.974   4.141   0.797 -0.1976  0.5044  0.1802
 7465SOL    HW122989   0.986   4.122   0.890 -1.2445  0.9029  0.4044
 7465SOL    HW222990   0.964   4.236   0.793 -0.1991  0.4853 -0.3357
 7466SOL     OW22991   2.611   2.545   6.360  0.1925  0.6296 -0.5793
 7466SOL    HW122992   2.611   2.467   6.414 -0.0164 -0.0710 -1.5787
 7466SOL    HW222993   2.576   2.614   6.417 -0.5462 -0.2203  0.0079
 7467SOL     OW22994   5.366   0.529   3.525  0.3460  0.0988 -0.5320
 7467SOL    HW122995   5.372   0.534   3.620 -0.8703 -2.3612 -0.2703
 7467SOL    HW222996   5.434   0.467   3.500  1.5886  1.7961 -1.4257
 7468SOL     OW22997   5.081   1.075   1.589  0.9618  0.3397  0.5287
 7468SOL    HW122998   5.123   1.110   1.510  0.0056 -2.4506 -1.3141
 7468SOL    HW222999   5.147   1.018   1.628  1.2111  1.2296  1.4294
 7469SOL     OW23000   4.227   2.962   2.885  0.1809  0.1497 -0.1089
 7469SOL    HW123001   4.166   3.022   2.928 -1.6030 -1.2992 -0.5523
 7469SOL    HW223002   4.210   2.973   2.792  2.0331  1.2083 -0.3257
 7470SOL     OW23003   3.256   2.515   3.075 -0.6347 -0.3048 -0.0933
 7470SOL    HW123004   3.205   2.455   3.129  0.0604 -0.9883 -0.2008
 7470SOL    HW223005   3.282   2.585   3.134 -0.6750 -0.5696  0.2349
 7471SOL     OW23006   0.564   4.738   6.937  0.6594 -0.7689  0.2252
 7471SOL    HW123007   0.655   4.727   6.964  0.2912 -1.7675  1.0701
 7471SOL    HW223008   0.544   4.830   6.957  1.6334 -0.4122 -0.4394
 7472SOL     OW23009   0.943   1.502   6.850  0.1086  0.5583 -0.2505
 7472SOL    HW123010   0.951   1.428   6.791  1.1697  0.9925 -0.6615
 7472SOL    HW223011   0.869   1.553   6.816  0.5358  0.6567 -1.0435
 7473SOL     OW23012   3.150   1.672   5.353  0.2710 -0.6808  0.2040
 7473SOL    HW123013   3.183   1.586   5.378 -0.6695 -0.9146  0.6726
 7473SOL    HW223014   3.121   1.712   5.435  1.5864  0.4709  0.1161
 7474SOL     OW23015   2.964   4.400   6.378  0.9376  0.0443  0.4965
 7474SOL    HW123016   2.968   4.476   6.319  1.7769  0.0224  0.5204
 7474SOL    HW223017   3.022   4.336   6.338 -0.0907 -0.7542  0.2573
 7475SOL     OW23018   1.600   5.180   6.325 -0.1103  0.0408 -0.0537
 7475SOL    HW123019   1.567   5.230   6.400  1.7237  1.3288 -0.0902
 7475SOL    HW223020   1.530   5.187   6.260  0.1687  2.7566 -0.1331
 7476SOL     OW23021   0.851   3.292   6.052  0.0665 -0.4729  0.1766
 7476SOL    HW123022   0.884   3.291   5.962  0.3174  3.7737  0.1097
 7476SOL    HW223023   0.767   3.337   6.046  0.7151  1.1023  2.2148
 7477SOL     OW23024   7.141   0.087   6.903 -0.2079  1.0559  0.9845
 7477SOL    HW123025   7.193   0.131   6.971 -0.1136  0.9296  0.9954
 7477SOL    HW223026   7.063   0.142   6.893  1.2725  2.8337 -1.1092
 7478SOL     OW23027   6.188   5.164   5.356 -0.4648  0.1342  0.2531
 7478SOL    HW123028   6.129   5.171   5.281  1.2637  1.3760 -1.0089
 7478SOL    HW223029   6.194   5.253   5.390  0.4112 -0.0658  0.6242
 7479SOL     OW23030   0.807   0.811   1.392  0.0411 -0.0074  0.0675
 7479SOL    HW123031   0.791   0.794   1.485 -1.3093 -0.9830 -0.3336
 7479SOL    HW223032   0.840   0.901   1.390 -0.3253  0.1766  1.4515
 7480SOL     OW23033   3.279   1.940   2.893 -0.3742  1.0974  0.1964
 7480SOL    HW123034   3.284   1.882   2.817  0.3052 -0.5307  1.4473
 7480SOL    HW223035   3.366   1.977   2.901 -0.7720  2.1910 -0.5216
 7481SOL     OW23036   3.318   3.903   7.197  0.4554  0.5015 -0.0904
 7481SOL    HW123037   3.370   3.983   7.207  1.1895 -0.2029  1.8677
 7481SOL    HW223038   3.330   3.856   7.280  0.4851 -1.9220 -1.4462
 7482SOL     OW23039   6.756   3.510   5.260  0.1574  0.1822 -0.0848
 7482SOL    HW123040   6.776   3.579   5.198 -0.5500  0.8676  0.4529
 7482SOL    HW223041   6.736   3.555   5.342  0.8375 -0.6997  0.5864
 7483SOL     OW23042   0.148   3.797   6.017 -0.0413 -0.0740 -0.0024
 7483SOL    HW123043   0.126   3.846   6.097 -0.4688 -1.6423  0.8469
 7483SOL    HW223044   0.171   3.865   5.954  0.2609  1.2004  1.4341
 7484SOL     OW23045   6.995   2.633   3.783  0.5491  0.5477  0.4366
 7484SOL    HW123046   7.044   2.684   3.719 -2.2851  1.9839 -0.6613
 7484SOL    HW223047   6.957   2.698   3.842  0.3646 -0.5674  1.5805
 7485SOL     OW23048   3.255   0.063   5.305  0.0148 -0.3567  0.6242
 7485SOL    HW123049   3.328   0.120   5.281  0.5612 -0.9915  0.7630
 7485SOL    HW223050   3.296  -0.021   5.328 -0.9820 -1.6829 -2.2342
 7486SOL     OW23051   1.883   0.217   7.244 -0.0137  0.4081 -0.0445
 7486SOL    HW123052   1.954   0.159   7.216  0.5024  1.1214 -0.2228
 7486SOL    HW223053   1.894   0.225   7.338  0.1251  0.5027 -0.0696
 7487SOL     OW23054   0.135   2.473   4.401  0.8340  0.3793  0.9751
 7487SOL    HW123055   0.162   2.529   4.474 -0.2105  1.4025  0.5880
 7487SOL    HW223056   0.137   2.531   4.324  1.9719 -0.6965  0.1788
 7488SOL     OW23057   7.214   1.137   2.120 -0.3653 -0.1173  0.0819
 7488SOL    HW123058   7.200   1.116   2.027  1.0448  2.1420 -0.6860
 7488SOL    HW223059   7.173   1.223   2.131  4.6298  2.4307  0.0051
 7489SOL     OW23060   2.307   6.384   2.514 -0.0157 -0.2660 -0.6843
 7489SOL    HW123061   2.219   6.397   2.547 -0.3656 -2.0200 -0.8914
 7489SOL    HW223062   2.296   6.376   2.419  0.2458 -1.4157 -0.6236
 7490SOL     OW23063   4.728   6.715   3.209 -0.4353  0.6592 -0.7311
 7490SOL    HW123064   4.781   6.635   3.208 -2.0343 -0.4233 -2.4814
 7490SOL    HW223065   4.747   6.755   3.294  0.5008 -1.5231  0.1285
 7491SOL     OW23066   5.549   3.428   2.005  0.1901  0.0618 -0.0407
 7491SOL    HW123067   5.626   3.483   1.989  1.3575 -0.9471  1.9548
 7491SOL    HW223068   5.494   3.480   2.065  1.3814 -0.9635  1.9952
 7492SOL     OW23069   2.732   5.983   1.837  0.1726  0.2863  0.2735
 7492SOL    HW123070   2.679   5.990   1.758 -0.0450 -1.5824  0.2561
 7492SOL    HW223071   2.809   6.037   1.817  0.5770 -0.9168 -1.5973
 7493SOL     OW23072   2.749   0.442   1.273  0.1243  0.4568 -0.4804
 7493SOL    HW123073   2.770   0.423   1.182 -0.5386  0.2296 -0.5866
 7493SOL    HW223074   2.805   0.516   1.296 -0.2745  1.0089 -1.2971
 7494SOL     OW23075   2.540   7.162   1.132 -0.2931 -0.0641  0.0600
 7494SOL    HW123076   2.620   7.110   1.138 -0.2979  0.1964  3.0390
 7494SOL    HW223077   2.472   7.099   1.110  0.1609 -0.8697  0.9414
 7495SOL     OW23078   5.372   1.755   2.235 -0.8655  0.6538  0.2653
 7495SOL    HW123079   5.297   1.730   2.182 -0.1648 -0.0568 -0.4100
 7495SOL    HW223080   5.414   1.672   2.258  1.3682  1.1393 -1.8177
 7496SOL     OW23081   6.751   6.980   4.494 -0.2708 -0.1599  0.2927
 7496SOL    HW123082   6.701   6.994   4.413  2.4631  1.9973 -1.1267
 7496SOL    HW223083   6.740   6.887   4.513 -1.8848 -0.4701 -1.9602
 7497SOL     OW23084   7.034   4.447   1.475 -0.0870 -0.4183  0.2335
 7497SOL    HW123085   7.124   4.429   1.451  0.5409  1.8691  0.7518
 7497SOL    HW223086   6.982   4.407   1.405  1.3816 -0.4813 -0.8319
 7498SOL     OW23087   1.325   4.635   6.499 -0.1929  0.7512 -0.2212
 7498SOL    HW123088   1.420   4.625   6.491 -0.3250  0.1911 -1.0792
 7498SOL    HW223089   1.292   4.627   6.410 -0.6494  5.3957 -0.5967
 7499SOL     OW23090   4.390   1.220   6.158  0.0877  0.5569 -0.3849
 7499SOL    HW123091   4.336   1.178   6.225  1.2121  1.4550  1.0924
 7499SOL    HW223092   4.336   1.293   6.127  0.0872  0.9284  0.4753
 7500SOL     OW23093   0.303   0.423   1.751 -0.1618 -0.3241  0.0266
 7500SOL    HW123094   0.375   0.470   1.792 -1.1525 -0.4468  1.9300
 7500SOL    HW223095   0.333   0.333   1.745  0.7590  0.0405 -1.3867
 7501SOL     OW23096   1.857   3.191   4.155  0.1573 -0.4022  0.2837
 7501SOL    HW123097   1.855   3.215   4.248 -0.0753 -1.6896  0.6213
 7501SOL    HW223098   1.808   3.108   4.150  0.4707 -0.5285 -0.9271
 7502SOL     OW23099   3.680   6.893   0.938 -0.2413  0.2725  0.3874
 7502SOL    HW123100   3.744   6.963   0.949  0.2544  0.0405 -0.9717
 7502SOL    HW223101   3.656   6.869   1.027  3.1328 -1.0867  1.0130
 7503SOL     OW23102   0.495   2.963   2.078 -0.0896  0.3909 -0.5235
 7503SOL    HW123103   0.520   2.966   2.170  1.1866 -0.0826 -0.8373
 7503SOL    HW223104   0.554   3.024   2.035  0.4570 -0.6629 -1.2737
 7504SOL     OW23105   6.997   5.825   6.088 -0.0107  0.5168  0.8341
 7504SOL    HW123106   7.081   5.792   6.056 -0.3132  1.4113 -0.9246
 7504SOL    HW223107   6.935   5.754   6.069 -0.0439  0.7305  0.1099
 7505SOL     OW23108   1.752   4.247   3.355 -0.1521 -0.4541 -0.3783
 7505SOL    HW123109   1.837   4.244   3.311 -0.4119  0.6526 -0.9756
 7505SOL    HW223110   1.697   4.298   3.296 -1.4602 -1.8380 -0.3792
 7506SOL     OW23111   0.710   1.414   2.783  0.0308 -0.1279  0.5889
 7506SOL    HW123112   0.700   1.467   2.861 -2.9042 -0.0719  0.2287
 7506SOL    HW223113   0.672   1.329   2.806 -0.8444 -0.1181 -0.7550
 7507SOL     OW23114   1.708   6.601   4.575  0.5734 -0.4578 -0.1311
 7507SOL    HW123115   1.754   6.653   4.641 -2.5030  0.9547  0.9891
 7507SOL    HW223116   1.674   6.526   4.623 -0.0128 -0.4431 -0.5163
 7508SOL     OW23117   2.558   7.068   3.064 -0.3965 -0.6274  0.4201
 7508SOL    HW123118   2.482   7.083   3.121 -1.5851  0.4351 -1.3811
 7508SOL    HW223119   2.521   7.029   2.985  0.6740  1.4811 -1.1696
 7509SOL     OW23120   3.062   5.296   2.359 -0.1211  0.5993 -0.1037
 7509SOL    HW123121   3.120   5.227   2.391  0.3845  0.4497 -1.2990
 7509SOL    HW223122   2.975   5.270   2.388  0.0238 -0.7131 -0.8003
 7510SOL     OW23123   6.088   6.921   4.439  0.1643 -0.0037 -0.1292
 7510SOL    HW123124   5.996   6.938   4.421  0.2954 -0.6442 -1.4120
 7510SOL    HW223125   6.090   6.833   4.476  0.3889 -0.4529 -1.2061
 7511SOL     OW23126   2.603   4.882   2.683  0.2355  0.0781  0.8279
 7511SOL    HW123127   2.581   4.970   2.651  2.6747  0.8663  1.1960
 7511SOL    HW223128   2.647   4.898   2.767 -0.8223 -1.6205  1.7412
 7512SOL     OW23129   6.342   5.935   5.068  0.5019  0.0783  0.1443
 7512SOL    HW123130   6.344   5.840   5.060  1.5437  0.1107  0.0517
 7512SOL    HW223131   6.286   5.951   5.144 -0.5553 -0.5639 -0.4714
 7513SOL     OW23132   1.870   4.035   6.976  0.0564  0.1545 -0.0668
 7513SOL    HW123133   1.819   4.085   6.912 -0.4461 -0.8802 -0.4948
 7513SOL    HW223134   1.820   4.042   7.057 -0.8260 -0.9233 -0.5050
 7514SOL     OW23135   2.144   4.134   6.713  0.1761  0.1094 -0.0905
 7514SOL    HW123136   2.074   4.081   6.750 -0.1245  0.3096 -0.3643
 7514SOL    HW223137   2.214   4.131   6.777 -0.9793  1.8753  1.3173
 7515SOL     OW23138   2.179   6.097   2.942 -0.2045  0.0184 -0.1674
 7515SOL    HW123139   2.235   6.096   3.019 -1.1895 -1.4893  0.5428
 7515SOL    HW223140   2.234   6.134   2.873  0.4016  2.2044  1.4551
 7516SOL     OW23141   2.463   0.632   4.599  0.1334  0.2786 -0.2112
 7516SOL    HW123142   2.518   0.594   4.668 -1.7301 -1.3331  0.4565
 7516SOL    HW223143   2.501   0.718   4.582  2.8510 -0.7906  0.1936
 7517SOL     OW23144   2.682   5.300   5.014 -0.1563  0.0104 -0.1848
 7517SOL    HW123145   2.754   5.259   5.062 -0.5032 -0.8240 -0.3670
 7517SOL    HW223146   2.725   5.359   4.952  0.4117 -1.2683 -1.0146
 7518SOL     OW23147   1.940   5.339   3.261 -0.0483  0.0244  0.2364
 7518SOL    HW123148   1.994   5.351   3.339 -0.8480  1.1388  0.6351
 7518SOL    HW223149   1.850   5.345   3.292 -0.3816 -0.0154 -0.6943
 7519SOL     OW23150   6.393   0.846   5.519  0.3623 -0.1825 -0.6926
 7519SOL    HW123151   6.430   0.898   5.590  1.0022 -1.8253  0.2189
 7519SOL    HW223152   6.336   0.906   5.472  1.5420  1.4862 -0.0365
 7520SOL     OW23153   6.717   2.101   2.100  0.5856  0.1151 -0.0031
 7520SOL    HW123154   6.756   2.105   2.013  1.4535 -1.6480  0.2823
 7520SOL    HW223155   6.777   2.046   2.150  0.4853  1.7117  1.9278
 7521SOL     OW23156   6.864   1.968   3.961  0.1128 -0.7075  0.3505
 7521SOL    HW123157   6.912   1.918   3.895 -0.2476  0.2503 -0.6338
 7521SOL    HW223158   6.810   2.029   3.911 -1.7476 -1.4123  1.4481
 7522SOL     OW23159   3.330   4.812   5.449 -0.0318 -0.6554  0.0012
 7522SOL    HW123160   3.296   4.902   5.451  0.1979 -0.5827  0.9075
 7522SOL    HW223161   3.406   4.816   5.391  0.4365 -0.0885  0.6353
 7523SOL     OW23162   4.141   0.920   3.630  0.4664 -0.6299 -0.0095
 7523SOL    HW123163   4.218   0.977   3.627 -0.1508  0.1951 -0.4573
 7523SOL    HW223164   4.074   0.968   3.581 -0.1177 -1.6644 -0.2317
 7524SOL     OW23165   5.262   4.097   3.790 -0.6059  0.2418  0.0775
 7524SOL    HW123166   5.214   4.178   3.772  3.4844  2.3894 -1.7360
 7524SOL    HW223167   5.244   4.041   3.715 -2.6280 -0.2223  0.8585
 7525SOL     OW23168   3.657   0.144   6.723  0.4144  0.0939 -0.0060
 7525SOL    HW123169   3.673   0.143   6.817 -0.8380  0.8588  0.2394
 7525SOL    HW223170   3.634   0.235   6.704 -2.0519 -0.5908 -0.5444
 7526SOL     OW23171   2.884   3.236   7.029 -0.0526 -0.5331 -0.0558
 7526SOL    HW123172   2.838   3.217   6.947  1.2807  0.7076 -1.1045
 7526SOL    HW223173   2.823   3.292   7.078 -1.8740 -3.2355  0.8862
 7527SOL     OW23174   2.696   3.404   7.103  0.5753  0.0514 -0.0101
 7527SOL    HW123175   2.672   3.477   7.161 -0.7565 -0.2320 -0.2033
 7527SOL    HW223176   2.614   3.358   7.087  0.9566  0.0550 -2.0336
 7528SOL     OW23177   6.455   6.350   1.902  0.2521  0.2033 -0.0292
 7528SOL    HW123178   6.466   6.436   1.862 -1.8269  0.1532 -0.7881
 7528SOL    HW223179   6.541   6.308   1.894  1.3775  2.3120  0.6518
 7529SOL     OW23180   1.741   1.584   1.392  0.0255 -0.2412 -0.0778
 7529SOL    HW123181   1.715   1.500   1.430  0.7291 -0.2250  0.4498
 7529SOL    HW223182   1.658   1.630   1.377 -0.3141 -0.6322  0.5517
 7530SOL     OW23183   4.827   2.788   2.055  0.0485  0.1733  0.0415
 7530SOL    HW123184   4.830   2.791   2.150 -0.1860  0.4679  0.0402
 7530SOL    HW223185   4.882   2.861   2.026  1.2633 -0.7696 -0.0638
 7531SOL     OW23186   1.733   2.848   0.745  0.4756 -0.3883  0.2944
 7531SOL    HW123187   1.643   2.820   0.757  0.6755 -2.1025 -1.8203
 7531SOL    HW223188   1.778   2.823   0.825 -0.7399 -0.2750  1.0168
 7532SOL     OW23189   1.351   2.873   1.877 -0.2695 -0.5439  0.1373
 7532SOL    HW123190   1.265   2.881   1.919 -0.2843  1.5595 -0.2475
 7532SOL    HW223191   1.411   2.916   1.938  0.0166  0.7448 -1.0402
 7533SOL     OW23192   5.827   2.258   4.027  0.5091 -0.6181 -0.4922
 7533SOL    HW123193   5.844   2.266   4.121  0.2818 -0.7447 -0.4421
 7533SOL    HW223194   5.742   2.299   4.014 -0.1843 -1.9793 -0.3998
 7534SOL     OW23195   0.050   5.101   7.135 -0.0611  0.0409 -0.4639
 7534SOL    HW123196   0.101   5.036   7.184  0.8401  0.7146 -0.4864
 7534SOL    HW223197  -0.041   5.073   7.145  0.1888 -0.3300  0.8448
 7535SOL     OW23198   2.907   1.928   0.566 -0.4255 -0.0165 -0.2980
 7535SOL    HW123199   2.923   1.879   0.647  0.4997  0.3517 -0.2589
 7535SOL    HW223200   2.993   1.951   0.534 -0.8033  0.0336 -1.2857
 7536SOL     OW23201   4.153   2.972   3.785  0.7277 -0.2122 -0.1522
 7536SOL    HW123202   4.204   2.894   3.763  1.6483  0.3735 -0.1532
 7536SOL    HW223203   4.132   3.012   3.701  1.4607  0.2874 -0.1015
 7537SOL     OW23204   3.416   1.079   0.207 -0.6872 -0.4601 -0.5988
 7537SOL    HW123205   3.336   1.085   0.259 -0.4955  1.1074 -0.4685
 7537SOL    HW223206   3.422   1.163   0.163  0.6125 -0.7770 -1.0411
 7538SOL     OW23207   6.725   1.073   3.923  0.0570 -0.4616 -0.3157
 7538SOL    HW123208   6.760   1.048   3.837 -1.5949 -0.8335 -0.9020
 7538SOL    HW223209   6.633   1.093   3.906  0.3959  2.2542  0.8733
 7539SOL     OW23210   1.168   0.552   6.773  0.1335  0.1203 -0.0368
 7539SOL    HW123211   1.117   0.523   6.849 -0.0432 -1.8645 -0.8602
 7539SOL    HW223212   1.259   0.544   6.800  0.0486  0.8780  0.4717
 7540SOL     OW23213   1.043   5.929   6.882 -0.0412 -0.5310 -0.0707
 7540SOL    HW123214   1.044   6.001   6.819  0.7417 -0.4783 -0.0018
 7540SOL    HW223215   1.015   5.969   6.964 -1.1204 -0.6117 -0.3917
 7541SOL     OW23216   4.755   0.286   3.099 -0.0239 -0.5872  0.1189
 7541SOL    HW123217   4.785   0.278   3.189 -1.7994  1.2385  0.9050
 7541SOL    HW223218   4.669   0.244   3.098 -0.4262  0.2233 -0.4905
 7542SOL     OW23219   6.852   5.599   1.810  0.0233  0.3688 -0.1716
 7542SOL    HW123220   6.860   5.688   1.845  1.0082  0.3427 -0.3268
 7542SOL    HW223221   6.935   5.558   1.832  0.3274  0.0839 -1.8216
 7543SOL     OW23222   0.318   1.984   4.686 -0.3671  0.2521  0.0558
 7543SOL    HW123223   0.235   2.015   4.648  0.2792  1.8981 -0.0295
 7543SOL    HW223224   0.314   2.011   4.777  1.2746  2.8406 -0.5992
 7544SOL     OW23225   0.008   3.172   1.089  0.3059 -0.2980  0.0152
 7544SOL    HW123226   0.036   3.166   0.998 -1.4466  2.3692 -0.7666
 7544SOL    HW223227   0.071   3.233   1.129 -1.4259  1.9632 -0.5659
 7545SOL     OW23228   6.680   5.329   1.101 -0.3121  0.4227 -0.2723
 7545SOL    HW123229   6.660   5.418   1.072  0.8559  0.5315 -0.7534
 7545SOL    HW223230   6.773   5.318   1.082 -0.5143 -0.9974 -0.4776
 7546SOL     OW23231   2.656   4.880   2.151 -0.2407  0.2814  0.0457
 7546SOL    HW123232   2.648   4.813   2.218  2.2738  1.9685  2.1222
 7546SOL    HW223233   2.675   4.960   2.199  1.1002  1.6660 -2.6421
 7547SOL     OW23234   6.369   3.754   7.036 -0.4358  0.0573  0.5023
 7547SOL    HW123235   6.454   3.743   6.992 -0.3495 -0.7848  0.8767
 7547SOL    HW223236   6.376   3.701   7.115 -0.5556  1.6528  1.6142
 7548SOL     OW23237   5.139   2.783   5.964 -0.1297 -0.3702  0.2960
 7548SOL    HW123238   5.121   2.820   5.878 -1.1134  0.8838  1.0356
 7548SOL    HW223239   5.219   2.730   5.951  0.6729  1.1300 -0.9997
 7549SOL     OW23240   2.610   2.225   1.841  0.1456 -0.5288  0.5268
 7549SOL    HW123241   2.684   2.228   1.781 -1.1674 -3.1184 -1.3383
 7549SOL    HW223242   2.545   2.283   1.802 -0.2883 -1.3537  0.0017
 7550SOL     OW23243   7.052   5.547   6.863  0.4819 -0.1186 -0.2638
 7550SOL    HW123244   7.049   5.535   6.958  0.1598  1.5566 -0.0505
 7550SOL    HW223245   6.963   5.569   6.838  1.1379  2.4439 -0.5113
 7551SOL     OW23246   4.471   3.413   1.251  0.2948  0.1125  0.2626
 7551SOL    HW123247   4.487   3.444   1.341 -0.6185 -0.9665  0.8047
 7551SOL    HW223248   4.496   3.487   1.196 -2.5217  2.0842  1.5503
 7552SOL     OW23249   2.302   5.075   5.219 -0.2940  0.0238 -0.0684
 7552SOL    HW123250   2.383   5.051   5.264 -0.4813 -2.5752 -1.0047
 7552SOL    HW223251   2.329   5.091   5.129 -0.5067  1.3118  0.0944
 7553SOL     OW23252   5.796   5.600   0.915 -0.0913  0.1378 -0.1782
 7553SOL    HW123253   5.816   5.509   0.939  0.1520  0.1362 -0.3733
 7553SOL    HW223254   5.707   5.615   0.945 -1.0212 -0.9340 -2.2845
 7554SOL     OW23255   2.338   5.894   6.560  0.1719 -0.0551 -0.7905
 7554SOL    HW123256   2.411   5.916   6.617 -0.3966  1.0439 -0.4678
 7554SOL    HW223257   2.260   5.906   6.614 -0.2336 -1.7161 -0.9800
 7555SOL     OW23258   5.075   1.958   5.356 -0.2527 -0.2229  0.0273
 7555SOL    HW123259   5.085   1.869   5.323  0.1728 -0.2075  0.1042
 7555SOL    HW223260   5.037   1.947   5.444  1.2064 -0.4194  0.6578
 7556SOL     OW23261   2.901   1.887   0.034  0.4846 -0.2461  0.1021
 7556SOL    HW123262   2.853   1.811   0.002 -1.5670  0.9773  0.1752
 7556SOL    HW223263   2.986   1.852   0.062 -1.0512 -2.7808  1.7672
 7557SOL     OW23264   4.216   0.598   3.019  0.3312  0.2783  0.1958
 7557SOL    HW123265   4.162   0.677   3.016 -1.0580 -0.6764 -1.1019
 7557SOL    HW223266   4.204   0.557   2.933  1.4989 -1.0282  0.6284
 7558SOL     OW23267   4.649   2.102   3.204 -0.2073  0.8836  0.1820
 7558SOL    HW123268   4.584   2.123   3.272 -0.1451  1.3556  0.0985
 7558SOL    HW223269   4.613   2.141   3.125 -2.0994 -2.7371 -0.8753
 7559SOL     OW23270   3.684   2.787   2.257 -0.4344  0.7461 -0.5514
 7559SOL    HW123271   3.617   2.855   2.260 -2.0906 -0.8737  0.4902
 7559SOL    HW223272   3.637   2.709   2.228  0.5628 -0.8718  1.9827
 7560SOL     OW23273   2.969   4.209   6.813 -0.0001 -0.1942  0.0369
 7560SOL    HW123274   2.982   4.154   6.891 -0.1745 -1.3268 -0.7283
 7560SOL    HW223275   2.952   4.147   6.742  3.3569  0.6100 -1.5732
 7561SOL     OW23276   5.130   1.281   3.884 -0.3122 -0.1943 -0.0614
 7561SOL    HW123277   5.188   1.355   3.904  0.3774 -1.3312  2.3641
 7561SOL    HW223278   5.186   1.204   3.893 -1.7341 -1.1962  0.3839
 7562SOL     OW23279   3.675   5.693   0.336  0.0071  0.1837 -0.1488
 7562SOL    HW123280   3.687   5.712   0.429  1.2103 -0.5412 -0.1392
 7562SOL    HW223281   3.737   5.752   0.292 -2.1332  2.1101 -0.6441
 7563SOL     OW23282   5.645   5.825   0.208  0.0890  0.2174  0.6475
 7563SOL    HW123283   5.662   5.919   0.209 -0.8223  0.3754  3.1226
 7563SOL    HW223284   5.622   5.803   0.298 -0.4765 -2.2459 -0.0538
 7564SOL     OW23285   1.630   0.653   5.280  0.3524 -0.8244 -0.3179
 7564SOL    HW123286   1.575   0.608   5.216  0.3404  0.1225 -0.9872
 7564SOL    HW223287   1.719   0.626   5.257  0.3190 -0.7715 -0.5148
 7565SOL     OW23288   4.954   3.633   7.050 -0.1322  0.5828 -0.0887
 7565SOL    HW123289   4.892   3.673   7.111 -0.6933  1.7025 -1.3540
 7565SOL    HW223290   4.900   3.594   6.982  0.5057  0.4192 -0.5098
 7566SOL     OW23291   3.828   6.288   6.090  0.1041 -0.0111  0.0701
 7566SOL    HW123292   3.877   6.326   6.162  0.7615  0.8771 -0.8259
 7566SOL    HW223293   3.879   6.312   6.012 -0.4573 -1.1547 -0.6617
 7567SOL     OW23294   5.032   2.922   6.591 -0.6750  0.3576 -0.3053
 7567SOL    HW123295   5.035   2.832   6.558  0.5361 -0.3971  1.8155
 7567SOL    HW223296   4.939   2.945   6.589 -1.4258 -2.2192  2.4868
 7568SOL     OW23297   3.779   3.106   1.425 -0.3507 -0.0607 -0.2014
 7568SOL    HW123298   3.738   3.069   1.503 -1.9767 -0.6590 -1.3305
 7568SOL    HW223299   3.707   3.121   1.365  1.2037 -2.3049 -2.7167
 7569SOL     OW23300   5.526   4.479   1.788  0.3116  0.2441 -0.2950
 7569SOL    HW123301   5.445   4.428   1.795  0.9012 -0.4227  2.5833
 7569SOL    HW223302   5.590   4.417   1.754 -0.0289  0.3176 -1.0595
 7570SOL     OW23303   0.612   5.604   3.829  0.2759 -0.0412 -0.3901
 7570SOL    HW123304   0.533   5.657   3.842 -0.6577 -1.1910 -1.2066
 7570SOL    HW223305   0.624   5.558   3.912 -0.4283 -0.5262 -0.5514
 7571SOL     OW23306   2.136   1.541   7.226  0.3915 -0.0197 -0.1471
 7571SOL    HW123307   2.101   1.549   7.315 -0.3982  0.2722 -0.4826
 7571SOL    HW223308   2.059   1.545   7.170  1.0331  1.6967 -0.9488
 7572SOL     OW23309   6.963   2.499   6.564 -0.0040 -0.2119 -0.0330
 7572SOL    HW123310   6.972   2.423   6.506  0.8149  1.4164 -2.1242
 7572SOL    HW223311   6.905   2.558   6.516  0.8241  1.2423  0.7429
 7573SOL     OW23312   6.850   7.159   1.198 -0.2717 -0.4538  0.3049
 7573SOL    HW123313   6.925   7.123   1.149 -0.8254 -1.3912  0.1351
 7573SOL    HW223314   6.874   7.250   1.214  0.9816 -0.7904  0.3941
 7574SOL     OW23315   1.851   2.882   3.227  0.2226 -0.0511 -0.5898
 7574SOL    HW123316   1.921   2.943   3.251 -0.9317 -0.0669  3.0282
 7574SOL    HW223317   1.783   2.938   3.190  0.9811  0.2810 -1.5203
 7575SOL     OW23318   0.086   3.183   1.626 -0.0877  0.1988  0.1717
 7575SOL    HW123319   0.164   3.239   1.623 -2.0884  3.1361  1.2725
 7575SOL    HW223320   0.061   3.182   1.718 -1.3080 -0.8240 -0.1578
 7576SOL     OW23321   3.306   5.865   4.868 -0.7356  0.2829 -0.3677
 7576SOL    HW123322   3.246   5.864   4.793  0.8289 -0.7830 -1.6308
 7576SOL    HW223323   3.368   5.794   4.850  0.2185  0.6237  1.4814
 7577SOL     OW23324   7.248   2.709   6.174 -0.1247  0.9400  0.3760
 7577SOL    HW123325   7.297   2.787   6.201  1.7441 -0.0925  0.0368
 7577SOL    HW223326   7.223   2.668   6.257  1.6905  0.1823  0.5545
 7578SOL     OW23327   6.648   3.649   0.204 -0.6146  0.3715  0.0255
 7578SOL    HW123328   6.647   3.622   0.296 -1.8459 -2.5234 -0.7902
 7578SOL    HW223329   6.702   3.728   0.203 -1.3192  0.9863  3.3722
 7579SOL     OW23330   2.081   0.558   1.031 -0.2988 -0.8005  0.6987
 7579SOL    HW123331   2.141   0.594   1.097 -1.4061 -1.9121  2.3449
 7579SOL    HW223332   2.122   0.476   1.004  0.7003  0.1794 -0.8230
 7580SOL     OW23333   5.077   2.483   5.437  0.0846 -0.3172 -0.2097
 7580SOL    HW123334   5.075   2.387   5.434 -1.2106 -0.2893 -0.4270
 7580SOL    HW223335   5.040   2.511   5.353 -0.1137  0.3789  0.1046
 7581SOL     OW23336   5.066   3.800   6.157  0.5523 -0.2415  0.2686
 7581SOL    HW123337   5.136   3.858   6.185  0.0645  0.9702 -0.9481
 7581SOL    HW223338   5.104   3.712   6.163  1.7219  0.2922  0.9093
 7582SOL     OW23339   5.202   1.801   5.936 -0.2420 -0.2578  0.7846
 7582SOL    HW123340   5.194   1.706   5.940  1.1807 -0.3529  1.6629
 7582SOL    HW223341   5.164   1.832   6.018  1.4342 -0.2412  1.5789
 7583SOL     OW23342   5.682   5.019   4.580  0.4852 -0.6531  0.3078
 7583SOL    HW123343   5.688   5.053   4.490  0.5202 -0.1287  0.5074
 7583SOL    HW223344   5.657   4.927   4.569  3.6206 -1.4780 -0.3657
 7584SOL     OW23345   3.290   2.099   4.665 -0.1802 -0.5726 -0.2150
 7584SOL    HW123346   3.270   2.117   4.573  1.4044  0.2467 -0.4009
 7584SOL    HW223347   3.332   2.178   4.697 -0.0282 -1.1391  1.0211
 7585SOL     OW23348   3.537   1.671   6.967 -0.6421 -0.0372  0.0972
 7585SOL    HW123349   3.483   1.691   6.890 -0.4157  1.1270  0.2332
 7585SOL    HW223350   3.623   1.706   6.946 -0.6411  0.5011  0.9754
 7586SOL     OW23351   7.159   0.494   0.174 -0.7486 -0.4970 -0.0628
 7586SOL    HW123352   7.205   0.418   0.210 -2.4976 -1.4236  0.2748
 7586SOL    HW223353   7.094   0.516   0.240 -1.1541  0.4658 -0.7651
 7587SOL     OW23354   2.953   2.353   4.280  0.0783 -0.6477  0.8226
 7587SOL    HW123355   2.914   2.439   4.262  3.2393  0.2081 -2.4621
 7587SOL    HW223356   2.919   2.296   4.211  1.6784 -0.8058  0.1397
 7588SOL     OW23357   6.450   5.170   6.554 -0.3300  0.1549 -0.1123
 7588SOL    HW123358   6.399   5.091   6.574  0.4075  0.0846  1.4888
 7588SOL    HW223359   6.518   5.173   6.621  0.0537  1.7987 -0.5591
 7589SOL     OW23360   2.873   7.048   3.647  0.2927  0.0523 -0.3153
 7589SOL    HW123361   2.804   6.988   3.619  1.5095 -2.9204  2.6714
 7589SOL    HW223362   2.834   7.098   3.719  0.9925 -1.2459  1.0077
 7590SOL     OW23363   2.730   1.737   2.687  0.3348 -0.0095  0.2406
 7590SOL    HW123364   2.768   1.668   2.634  1.8711  0.9487  0.0900
 7590SOL    HW223365   2.798   1.760   2.751 -0.2661  1.1373  0.4961
 7591SOL     OW23366   6.266   6.241   5.880  0.1506  0.2911  0.8325
 7591SOL    HW123367   6.189   6.240   5.824 -0.2089  1.0904  1.2971
 7591SOL    HW223368   6.318   6.166   5.852 -1.2958 -0.8678  1.2238
 7592SOL     OW23369   1.219   0.017   2.639  0.3428  0.4482  0.5081
 7592SOL    HW123370   1.291   0.080   2.644  0.0994  0.7092  0.7197
 7592SOL    HW223371   1.214  -0.021   2.727 -0.2709  0.9788  0.7040
 7593SOL     OW23372   6.142   7.093   6.935 -0.4916 -0.1139 -0.1430
 7593SOL    HW123373   6.123   7.049   6.852  0.4846 -0.2669 -0.2915
 7593SOL    HW223374   6.108   7.034   7.002  0.9497 -1.1848 -0.3339
 7594SOL     OW23375   3.698   5.614   3.969 -0.5967  0.0185 -0.5500
 7594SOL    HW123376   3.777   5.648   3.925  0.9187  0.2255  2.1908
 7594SOL    HW223377   3.628   5.628   3.906  1.2363  1.6662 -2.3205
 7595SOL     OW23378   2.137   1.616   6.389  0.1730 -0.0043 -0.1848
 7595SOL    HW123379   2.186   1.617   6.306  0.6891 -3.1386 -0.0062
 7595SOL    HW223380   2.191   1.563   6.448 -0.2876  2.0275  2.1149
 7596SOL     OW23381   3.542   4.863   2.085 -0.0422 -0.0430 -0.5035
 7596SOL    HW123382   3.478   4.929   2.112  1.1150 -0.2300  2.9048
 7596SOL    HW223383   3.626   4.908   2.091  0.7136 -1.6332  1.3463
 7597SOL     OW23384   1.957   1.976   4.547  0.0469  0.4420 -0.1289
 7597SOL    HW123385   1.998   2.062   4.540  0.8296 -0.0361 -1.5723
 7597SOL    HW223386   1.863   1.994   4.544  0.2139  1.2232 -0.7982
 7598SOL     OW23387   5.744   3.437   3.389 -0.0601  0.6946  0.3151
 7598SOL    HW123388   5.725   3.496   3.462  0.5742  1.5588 -0.2062
 7598SOL    HW223389   5.786   3.361   3.430 -1.0765  0.4975  1.0175
 7599SOL     OW23390   1.647   2.026   7.122 -0.0293  0.4141 -0.1761
 7599SOL    HW123391   1.696   1.994   7.046 -0.9234  1.1332 -1.0673
 7599SOL    HW223392   1.597   1.950   7.152 -0.8251  0.5207 -1.2301
 7600SOL     OW23393   2.470   1.238   4.500 -0.6392 -0.0738 -0.3411
 7600SOL    HW123394   2.509   1.252   4.414  0.3955  1.9345  0.4285
 7600SOL    HW223395   2.441   1.325   4.529  1.4289 -0.2292  2.4561
 7601SOL     OW23396   6.204   3.023   2.370 -0.1732 -0.0071  0.5382
 7601SOL    HW123397   6.155   2.947   2.339  0.8175 -1.3547  2.1601
 7601SOL    HW223398   6.141   3.073   2.423 -0.7632  0.1904 -0.3492
 7602SOL     OW23399   1.790   0.388   1.071  0.7493 -0.0969 -0.0422
 7602SOL    HW123400   1.814   0.334   1.146  0.8957  0.1585  0.0967
 7602SOL    HW223401   1.872   0.429   1.045  0.3928  1.0787  0.6642
 7603SOL     OW23402   1.302   6.531   0.799  0.3060  0.0931  0.0685
 7603SOL    HW123403   1.364   6.532   0.726 -1.2519 -1.1666 -1.3068
 7603SOL    HW223404   1.299   6.440   0.827 -1.9106 -0.1353 -0.7798
 7604SOL     OW23405   2.785   0.435   2.559  0.4128 -0.6219 -0.1876
 7604SOL    HW123406   2.819   0.443   2.648 -0.4051 -0.5759  0.1280
 7604SOL    HW223407   2.690   0.438   2.570  0.3419  1.0062 -1.2147
 7605SOL     OW23408   0.956   4.018   6.144  0.0591  0.2076 -0.6993
 7605SOL    HW123409   0.989   3.983   6.061  1.0745 -0.0512 -0.1897
 7605SOL    HW223410   0.992   3.960   6.211  0.1231  1.0525  0.0044
 7606SOL     OW23411   2.557   0.435   3.330  0.7365 -0.1462 -0.2221
 7606SOL    HW123412   2.517   0.481   3.256  0.3346 -0.9915 -0.5418
 7606SOL    HW223413   2.648   0.420   3.303  0.1914 -1.8536 -1.2375
 7607SOL     OW23414   1.122   0.866   6.405 -0.2689 -0.1365 -0.1122
 7607SOL    HW123415   1.030   0.889   6.418 -0.3411 -1.0285  1.0108
 7607SOL    HW223416   1.137   0.881   6.311 -1.4155  0.4907 -0.2095
 7608SOL     OW23417   1.891   6.358   0.181  0.1496 -0.9881 -0.0493
 7608SOL    HW123418   1.909   6.451   0.197  1.9244 -1.3460  0.2053
 7608SOL    HW223419   1.798   6.348   0.198  0.2364  0.4508  1.4491
 7609SOL     OW23420   4.013   7.110   2.356 -0.3446 -0.2267 -0.8313
 7609SOL    HW123421   4.055   7.131   2.272  0.5845 -2.2502 -0.9194
 7609SOL    HW223422   4.055   7.028   2.383 -1.3236 -0.1010  1.1500
 7610SOL     OW23423   5.509   4.172   0.479 -0.0778 -0.0897 -0.5995
 7610SOL    HW123424   5.598   4.199   0.457  0.5872 -1.8802 -0.2028
 7610SOL    HW223425   5.485   4.228   0.554  1.3214 -0.6730  0.3077
 7611SOL     OW23426   6.434   4.399   0.661  0.1279 -0.2409 -0.7111
 7611SOL    HW123427   6.376   4.474   0.670 -0.4625 -0.4377 -2.6595
 7611SOL    HW223428   6.471   4.407   0.573  1.8794 -0.9545 -0.0760
 7612SOL     OW23429   2.993   5.610   4.034  0.6256  0.4891  0.5903
 7612SOL    HW123430   2.966   5.584   3.947 -0.4902  0.5180  0.9256
 7612SOL    HW223431   3.034   5.696   4.023 -3.5329  2.5772  0.7065
 7613SOL     OW23432   6.910   7.162   6.625 -0.5176  0.0195  0.0928
 7613SOL    HW123433   6.930   7.227   6.558 -0.6592  2.4219  2.3314
 7613SOL    HW223434   6.989   7.108   6.631  0.0653  0.7603 -0.9052
 7614SOL     OW23435   3.682   6.353   1.904  0.1733 -0.0506  0.4151
 7614SOL    HW123436   3.722   6.275   1.866 -0.1093 -0.3935  0.8236
 7614SOL    HW223437   3.674   6.334   1.997 -1.3326 -0.1517  0.2742
 7615SOL     OW23438   1.846   3.374   3.186 -0.6229 -0.3780  0.0409
 7615SOL    HW123439   1.887   3.460   3.174 -0.9186 -0.3772 -1.0732
 7615SOL    HW223440   1.801   3.380   3.270 -1.2371  0.8101 -0.3612
 7616SOL     OW23441   4.223   1.468   5.362 -0.0712 -0.3706  0.1674
 7616SOL    HW123442   4.267   1.387   5.386 -0.7269 -0.0906  2.4519
 7616SOL    HW223443   4.290   1.536   5.372 -0.1658 -0.3406  0.6339
 7617SOL     OW23444   4.330   2.572   3.228  0.0502 -0.0614 -0.0765
 7617SOL    HW123445   4.312   2.488   3.269  0.5290 -0.7842 -1.3363
 7617SOL    HW223446   4.425   2.583   3.234  0.1693 -0.3573 -1.3394
 7618SOL     OW23447   4.668   1.758   0.719  0.4189  0.2237 -0.1370
 7618SOL    HW123448   4.598   1.774   0.782  1.5247 -0.2864  1.2423
 7618SOL    HW223449   4.725   1.834   0.725  0.7614 -0.0245 -0.2208
 7619SOL     OW23450   4.176   3.311   2.993  0.0726 -0.1116 -0.0337
 7619SOL    HW123451   4.183   3.353   2.908 -1.8848 -0.5705 -0.4358
 7619SOL    HW223452   4.083   3.292   3.004  0.2281  0.3478  2.4048
 7620SOL     OW23453   1.160   0.133   0.743  0.5782 -0.2446 -0.5442
 7620SOL    HW123454   1.144   0.214   0.791 -0.1860  0.4456 -1.9381
 7620SOL    HW223455   1.179   0.069   0.811  0.8682  1.0204  0.5973
 7621SOL     OW23456   3.766   1.918   6.714 -0.3602 -0.3404  0.2542
 7621SOL    HW123457   3.673   1.931   6.698 -0.2140 -0.1956 -0.4880
 7621SOL    HW223458   3.770   1.884   6.804 -1.3071 -2.4834 -0.4714
 7622SOL     OW23459   4.411   1.016   4.596  0.1117  0.2308  0.0072
 7622SOL    HW123460   4.381   1.104   4.619 -1.3538  0.3997 -2.3465
 7622SOL    HW223461   4.487   1.001   4.652 -1.9380  1.4240  3.2405
 7623SOL     OW23462   7.123   6.205   5.523 -0.0388 -0.1217  0.2150
 7623SOL    HW123463   7.148   6.126   5.570 -0.7056 -0.9574 -0.8201
 7623SOL    HW223464   7.057   6.176   5.460 -0.1973  1.2298 -0.2615
 7624SOL     OW23465   6.284   5.351   5.953 -0.3358  0.5425  0.4174
 7624SOL    HW123466   6.326   5.273   5.987  0.5531  0.6833 -0.3583
 7624SOL    HW223467   6.263   5.403   6.031  0.2981  0.1591  0.8415
 7625SOL     OW23468   6.739   6.566   6.928 -0.1100 -0.1878  0.0357
 7625SOL    HW123469   6.750   6.497   6.993 -2.4001 -1.3075 -0.6890
 7625SOL    HW223470   6.659   6.542   6.881  0.0497  1.9982 -1.4511
 7626SOL     OW23471   4.461   1.164   2.294  0.1042  0.3547  0.7736
 7626SOL    HW123472   4.398   1.162   2.222  0.4996  0.8339  0.4132
 7626SOL    HW223473   4.544   1.136   2.255  0.0552 -0.5547  1.3110
 7627SOL     OW23474   2.490   0.089   1.401 -0.0245 -0.5376 -0.3070
 7627SOL    HW123475   2.540   0.145   1.461  1.8802 -1.8544 -0.6355
 7627SOL    HW223476   2.429   0.149   1.358  0.6553  0.9468  0.7601
 7628SOL     OW23477   3.367   0.621   3.113  0.0285 -0.2640  0.2254
 7628SOL    HW123478   3.346   0.570   3.035 -0.5151  0.1193  0.1208
 7628SOL    HW223479   3.453   0.589   3.140 -0.8697 -2.1856  0.9352
 7629SOL     OW23480   2.358   1.335   1.031 -0.1708  0.2018  0.0113
 7629SOL    HW123481   2.288   1.347   0.966 -0.3559  1.2013  0.3790
 7629SOL    HW223482   2.437   1.319   0.979  0.0404  2.8224 -0.5604
 7630SOL     OW23483   1.500   1.930   1.197  0.2654 -0.1366  0.2630
 7630SOL    HW123484   1.412   1.914   1.161  0.4310 -0.3019 -0.0751
 7630SOL    HW223485   1.509   2.026   1.196 -0.5569 -0.0185  1.8748
 7631SOL     OW23486   3.946   2.560   7.055  0.1264 -0.8950  0.1606
 7631SOL    HW123487   3.862   2.585   7.094  0.1023 -0.2173 -0.3141
 7631SOL    HW223488   3.968   2.477   7.097 -1.2993 -1.6040 -0.4610
 7632SOL     OW23489   3.447   6.108   3.077  0.0871 -0.1953  0.3076
 7632SOL    HW123490   3.538   6.137   3.067 -0.0384  0.2868  0.5485
 7632SOL    HW223491   3.409   6.117   2.989  0.6618 -1.7638 -0.1195
 7633SOL     OW23492   2.421   4.111   2.286  0.3489 -0.2740 -0.1419
 7633SOL    HW123493   2.357   4.046   2.256  1.6328 -1.1742 -0.9942
 7633SOL    HW223494   2.497   4.059   2.314 -0.0845  0.6631  2.9311
 7634SOL     OW23495   3.284   2.894   0.991 -0.2135 -0.0818  0.2243
 7634SOL    HW123496   3.192   2.917   0.996  0.2859  1.5382  2.9534
 7634SOL    HW223497   3.318   2.947   0.919 -1.4770 -1.0475 -1.1054
 7635SOL     OW23498   2.181   6.486   3.717  0.1803  0.6580  0.2359
 7635SOL    HW123499   2.196   6.408   3.663  2.9347  1.2557  0.0449
 7635SOL    HW223500   2.174   6.453   3.806  0.4660  0.1009  0.0551
 7636SOL     OW23501   2.566   5.249   5.717 -0.7028  0.0863 -0.2537
 7636SOL    HW123502   2.572   5.153   5.721  1.5648  0.1915 -0.4937
 7636SOL    HW223503   2.488   5.266   5.665 -0.7820 -1.6449 -0.7365
 7637SOL     OW23504   4.656   6.021   5.444  0.5066  0.0895 -0.5312
 7637SOL    HW123505   4.608   6.100   5.419  0.9749  0.2047 -1.0692
 7637SOL    HW223506   4.618   5.951   5.390 -0.3136 -0.1687  0.3707
 7638SOL     OW23507   6.803   4.232   3.849 -0.3569  0.5226 -0.3593
 7638SOL    HW123508   6.846   4.316   3.834  0.3377  0.4126  0.9675
 7638SOL    HW223509   6.711   4.248   3.826 -0.2223  1.6463 -0.1455
 7639SOL     OW23510   4.133   3.792   3.840 -0.1318 -0.1910 -0.1002
 7639SOL    HW123511   4.200   3.777   3.773 -0.8144  1.0070 -1.0786
 7639SOL    HW223512   4.173   3.761   3.921  1.1846 -0.5087 -0.8507
 7640SOL     OW23513   6.854   3.988   0.433 -0.7020  0.5665  0.0740
 7640SOL    HW123514   6.770   3.961   0.398  0.5813  0.2390 -2.9036
 7640SOL    HW223515   6.885   3.911   0.482 -1.4043  0.1111 -0.1902
 7641SOL     OW23516   4.436   1.149   0.087 -0.0685 -0.6531 -0.6030
 7641SOL    HW123517   4.418   1.110   0.173  0.6295  0.6346  0.1389
 7641SOL    HW223518   4.525   1.122   0.066  0.6302  0.9744  0.1767
 7642SOL     OW23519   2.771   3.057   1.022 -0.6521  0.2228 -0.1831
 7642SOL    HW123520   2.751   2.965   1.007 -1.6529  0.6950 -1.8593
 7642SOL    HW223521   2.753   3.100   0.938  0.6264  1.8111  0.3215
 7643SOL     OW23522   1.574   0.721   3.822 -0.3127 -0.6244 -0.1002
 7643SOL    HW123523   1.606   0.778   3.891  1.0243 -1.4563 -0.0118
 7643SOL    HW223524   1.597   0.767   3.741  0.2120 -0.7481 -0.0226
 7644SOL     OW23525   5.355   5.225   3.167  0.9242 -0.1732 -0.5436
 7644SOL    HW123526   5.344   5.239   3.073 -0.7358  0.6543 -0.2344
 7644SOL    HW223527   5.304   5.146   3.185  0.4528  0.2232 -0.1580
 7645SOL     OW23528   0.662   7.038   0.974 -0.1547 -0.4128  0.5137
 7645SOL    HW123529   0.689   7.109   1.033  0.5600  0.6846 -1.1065
 7645SOL    HW223530   0.715   6.963   1.001  0.3339  0.1386  1.1037
 7646SOL     OW23531   1.360   7.076   3.330 -0.4035 -0.3192  0.6535
 7646SOL    HW123532   1.428   7.102   3.392 -1.4372 -1.1685  2.1657
 7646SOL    HW223533   1.324   7.159   3.299  0.1412  0.1143  1.1674
 7647SOL     OW23534   0.939   4.044   1.728 -0.2378  0.5391 -0.6160
 7647SOL    HW123535   1.004   4.106   1.693  1.3911 -1.0250 -0.4212
 7647SOL    HW223536   0.989   3.965   1.746 -1.4174  0.6311  3.4049
 7648SOL     OW23537   0.137   0.617   2.041 -0.1173  0.0334 -0.7863
 7648SOL    HW123538   0.165   0.619   2.132 -0.5079 -0.1492 -0.6597
 7648SOL    HW223539   0.062   0.558   2.041 -0.7381  0.8110 -1.0438
 7649SOL     OW23540   3.123   6.158   2.698 -0.3154 -0.6114  0.6878
 7649SOL    HW123541   3.110   6.232   2.638  0.8775  0.4295  1.6852
 7649SOL    HW223542   3.063   6.176   2.770  1.0570  0.1684  1.6402
 7650SOL     OW23543   2.351   2.710   3.448 -0.6122  0.7057  0.2080
 7650SOL    HW123544   2.300   2.656   3.387 -0.2897  0.2831  0.3109
 7650SOL    HW223545   2.332   2.800   3.421 -1.0705  0.5417 -0.0343
 7651SOL     OW23546   6.983   4.424   0.352 -0.2644 -0.0978  0.3100
 7651SOL    HW123547   6.913   4.467   0.400 -1.1498  0.3579 -1.3509
 7651SOL    HW223548   7.057   4.485   0.356  0.1977 -0.7550  2.4034
 7652SOL     OW23549   0.533   5.240   3.579  0.2698 -0.1666 -0.0774
 7652SOL    HW123550   0.594   5.268   3.511 -1.5041 -0.3630 -1.7954
 7652SOL    HW223551   0.501   5.321   3.617  0.1820 -0.0108 -0.4751
 7653SOL     OW23552   2.648   2.488   4.392 -0.4735 -0.7728  0.5621
 7653SOL    HW123553   2.705   2.557   4.427 -2.3940  0.8225  0.6108
 7653SOL    HW223554   2.656   2.417   4.456  1.0718 -0.3861  0.8245
 7654SOL     OW23555   3.836   5.999   4.605  0.5356  0.1554  0.1047
 7654SOL    HW123556   3.796   5.924   4.561 -1.1093  0.8059  0.4615
 7654SOL    HW223557   3.853   5.968   4.694 -1.9092  0.7783  0.8149
 7655SOL     OW23558   5.442   0.435   0.865  0.0943  0.6809  0.1295
 7655SOL    HW123559   5.514   0.381   0.833 -0.4070 -0.4948  0.9724
 7655SOL    HW223560   5.443   0.423   0.960  0.0767  2.2917  0.3485
 7656SOL     OW23561   2.063   2.703   5.004 -0.2425  0.0111  0.1035
 7656SOL    HW123562   2.046   2.788   5.044  0.7267 -0.0782  0.7389
 7656SOL    HW223563   2.141   2.718   4.950  0.7142 -0.7695  1.2355
 7657SOL     OW23564   7.061   2.958   2.803 -0.2198  0.1064  0.3984
 7657SOL    HW123565   7.020   3.044   2.807 -0.7886 -0.1735  0.6693
 7657SOL    HW223566   7.119   2.954   2.879 -0.0063  0.3444  0.2469
 7658SOL     OW23567   6.313   1.658   4.494  0.0280  0.1883  0.0640
 7658SOL    HW123568   6.319   1.602   4.417  0.7299  0.1155  0.1604
 7658SOL    HW223569   6.240   1.717   4.476  0.9069  0.9227 -1.1540
 7659SOL     OW23570   5.089   4.697   3.212  0.2013 -0.1131  0.5300
 7659SOL    HW123571   5.080   4.789   3.236 -1.1257  0.1593 -0.9489
 7659SOL    HW223572   5.000   4.662   3.216  0.4909 -0.9686 -0.3319
 7660SOL     OW23573   0.884   2.328   2.177 -0.1373  0.1702  0.1448
 7660SOL    HW123574   0.959   2.354   2.122 -0.1476 -0.6849 -0.2878
 7660SOL    HW223575   0.807   2.352   2.125 -0.1597  0.5372  0.3463
 7661SOL     OW23576   2.936   4.877   1.252 -0.3655  0.2749  0.1533
 7661SOL    HW123577   2.853   4.839   1.222 -1.5453  0.6807  2.7700
 7661SOL    HW223578   2.935   4.966   1.217 -0.1637 -0.2891 -1.3393
 7662SOL     OW23579   7.075   0.508   5.904  0.6564  0.5479 -0.2511
 7662SOL    HW123580   7.144   0.442   5.909 -0.5941 -0.7605  0.1318
 7662SOL    HW223581   7.012   0.472   5.842 -0.0528  1.3752 -0.0124
 7663SOL     OW23582   6.705   4.237   0.954 -0.5524  0.4061 -0.1308
 7663SOL    HW123583   6.620   4.235   0.999 -0.9521 -0.5122 -0.9016
 7663SOL    HW223584   6.686   4.201   0.867  1.2674 -3.0477  0.8062
 7664SOL     OW23585   1.894   3.890   1.276  0.2125 -0.2827 -0.4789
 7664SOL    HW123586   1.850   3.835   1.211 -0.1899 -1.8483  1.0802
 7664SOL    HW223587   1.980   3.849   1.287  0.1610 -0.2051  0.2070
 7665SOL     OW23588   1.885   6.701   2.664  0.8047 -0.3178 -0.7293
 7665SOL    HW123589   1.911   6.790   2.687  0.5274 -0.7848  1.5439
 7665SOL    HW223590   1.883   6.700   2.568  2.2045  1.6990 -0.8035
 7666SOL     OW23591   1.521   5.904   4.729  0.1955  0.4113  0.6963
 7666SOL    HW123592   1.453   5.878   4.790  0.2454  2.4752  1.6852
 7666SOL    HW223593   1.592   5.938   4.784  1.5849 -0.6607 -0.3684
 7667SOL     OW23594   2.075   1.048   1.176 -0.1483  0.0040 -0.5281
 7667SOL    HW123595   2.009   1.113   1.153  1.1281  1.6925  0.4412
 7667SOL    HW223596   2.038   1.000   1.250  0.9185  3.0405  2.1032
 7668SOL     OW23597   7.255   3.454   0.290  0.2733  0.0988 -0.3205
 7668SOL    HW123598   7.259   3.435   0.383 -0.0666  0.3909 -0.2450
 7668SOL    HW223599   7.162   3.453   0.269  0.4796 -3.9811 -1.5138
 7669SOL     OW23600   2.075   5.747   6.676  1.1549  0.4374 -0.2747
 7669SOL    HW123601   1.987   5.711   6.689  1.2725 -0.4289 -1.6747
 7669SOL    HW223602   2.064   5.841   6.684 -0.0207  0.3712 -0.9673
 7670SOL     OW23603   5.637   6.180   3.402 -0.0608 -0.1475  0.2303
 7670SOL    HW123604   5.558   6.227   3.428  0.1468 -0.0468  0.6922
 7670SOL    HW223605   5.626   6.164   3.309  1.0276  3.0965 -0.5061
 7671SOL     OW23606   3.433   3.851   5.068 -0.6404  0.3761  0.2181
 7671SOL    HW123607   3.375   3.916   5.028 -0.1482  0.1377 -0.8892
 7671SOL    HW223608   3.374   3.790   5.113 -1.1733  0.8513  0.1662
 7672SOL     OW23609   4.281   6.481   6.104 -0.1552  0.2042 -0.0583
 7672SOL    HW123610   4.320   6.533   6.034  1.4246 -0.8271  0.0445
 7672SOL    HW223611   4.224   6.419   6.058  1.7657 -1.2447 -0.5455
 7673SOL     OW23612   5.823   4.983   0.577 -0.8295  0.0649 -0.0339
 7673SOL    HW123613   5.731   5.012   0.576  0.0042  2.7674  0.0391
 7673SOL    HW223614   5.853   4.999   0.666 -0.1842 -0.5820 -0.1263
 7674SOL     OW23615   2.312   0.075   3.172 -0.1688 -0.0856  0.2348
 7674SOL    HW123616   2.219   0.077   3.150  0.3439 -1.2296 -2.2482
 7674SOL    HW223617   2.323  -0.003   3.227 -0.7205  0.2877  0.8828
 7675SOL     OW23618   4.795   5.671   0.762 -0.0451  0.8613  0.1551
 7675SOL    HW123619   4.801   5.647   0.855 -1.4516  0.6282  0.2090
 7675SOL    HW223620   4.701   5.689   0.749  0.3153  2.0310 -0.9392
 7676SOL     OW23621   6.489   5.925   2.592 -0.3163  0.2792  0.7173
 7676SOL    HW123622   6.468   5.850   2.648  1.6392 -0.8934 -0.0869
 7676SOL    HW223623   6.585   5.928   2.590 -0.3657  1.1165 -1.5076
 7677SOL     OW23624   5.898   5.806   2.072 -0.0443  0.4087  0.1976
 7677SOL    HW123625   5.950   5.815   1.992 -0.3531 -0.9505 -0.1745
 7677SOL    HW223626   5.853   5.722   2.062 -1.7259  1.1975  0.8579
 7678SOL     OW23627   5.255   0.763   3.373 -0.0769 -0.2532 -0.1711
 7678SOL    HW123628   5.279   0.701   3.443  0.7381 -0.1016 -0.3050
 7678SOL    HW223629   5.254   0.710   3.294 -0.9042 -0.4048 -0.0612
 7679SOL     OW23630   3.296   1.886   4.180 -0.2944 -0.0985  0.0384
 7679SOL    HW123631   3.366   1.889   4.115 -0.0095 -0.6487  0.3101
 7679SOL    HW223632   3.341   1.892   4.264 -0.7968  2.4056  0.1658
 7680SOL     OW23633   4.910   4.049   6.990 -0.5663  0.1169 -0.2459
 7680SOL    HW123634   4.854   3.974   7.011 -0.6040  0.0175 -0.7143
 7680SOL    HW223635   4.993   4.029   7.033 -0.2098 -0.7292 -1.3120
 7681SOL     OW23636   5.612   2.296   1.917 -0.0208  0.3648 -0.1317
 7681SOL    HW123637   5.610   2.316   2.011 -1.1536 -1.9949  0.3962
 7681SOL    HW223638   5.520   2.293   1.891  0.0775 -2.7007 -0.4019
 7682SOL     OW23639   5.602   3.578   4.961 -0.3761 -0.3747 -1.0850
 7682SOL    HW123640   5.681   3.529   4.940  0.7779  1.1696 -0.4314
 7682SOL    HW223641   5.547   3.570   4.882  0.9520 -0.4270 -2.0125
 7683SOL     OW23642   0.621   5.064   1.078 -0.0448 -0.2936  0.4875
 7683SOL    HW123643   0.677   5.058   1.001 -0.1452  1.8647  0.2047
 7683SOL    HW223644   0.558   4.993   1.067  0.8243 -0.9020 -0.6863
 7684SOL     OW23645   1.409   6.838   3.222 -0.2978 -0.3979 -0.2493
 7684SOL    HW123646   1.408   6.927   3.257 -0.2889 -0.7878  0.7601
 7684SOL    HW223647   1.493   6.832   3.176 -0.0640 -0.0448  0.1216
 7685SOL     OW23648   4.323   2.263   1.511 -0.1817 -0.0156  0.1874
 7685SOL    HW123649   4.309   2.176   1.548 -0.0740  0.0880  0.4775
 7685SOL    HW223650   4.318   2.322   1.586 -1.6326  0.3721 -0.2101
 7686SOL     OW23651   2.724   0.953   4.174 -0.4184  0.0955  0.5577
 7686SOL    HW123652   2.710   0.964   4.080 -0.7414  0.5777  0.6644
 7686SOL    HW223653   2.789   0.883   4.180 -0.7492 -0.2633 -0.0103
 7687SOL     OW23654   0.617   0.782   3.307 -0.0230  0.5788  0.2961
 7687SOL    HW123655   0.639   0.854   3.367 -0.2185 -1.0134  2.3389
 7687SOL    HW223656   0.588   0.711   3.365  1.3428 -1.5673 -1.5884
 7688SOL     OW23657   3.862   1.703   4.755 -0.6426  0.0214 -0.3291
 7688SOL    HW123658   3.871   1.795   4.730 -0.4150  0.1592  0.2429
 7688SOL    HW223659   3.784   1.673   4.709 -1.1249  0.6921  0.0377
 7689SOL     OW23660   3.539   2.396   7.036  0.0546  0.2864  0.2219
 7689SOL    HW123661   3.578   2.428   6.955  1.1881  0.3437  0.7787
 7689SOL    HW223662   3.586   2.315   7.055 -0.6408 -0.0594  0.4896
 7690SOL     OW23663   5.448   1.987   2.077  0.2280 -0.5653 -0.0202
 7690SOL    HW123664   5.360   2.024   2.075  0.7638  1.1084  3.6046
 7690SOL    HW223665   5.439   1.906   2.127  0.6572 -0.6060 -0.0006
 7691SOL     OW23666   4.740   6.063   4.790 -0.1447  0.2418  0.2164
 7691SOL    HW123667   4.660   6.087   4.837  0.8283  0.3156  1.9029
 7691SOL    HW223668   4.810   6.096   4.846  1.0947 -1.1868 -0.4669
 7692SOL     OW23669   4.902   5.445   6.391  0.2006  0.0623 -0.2734
 7692SOL    HW123670   4.957   5.456   6.313  1.3968 -0.5300  0.4747
 7692SOL    HW223671   4.933   5.363   6.430 -0.5813  0.2122  0.6692
 7693SOL     OW23672   6.643   7.148   5.498  0.1297  0.2391  0.2117
 7693SOL    HW123673   6.675   7.140   5.588 -2.9132 -0.4387  1.2804
 7693SOL    HW223674   6.572   7.084   5.492 -1.2754  1.9270 -1.9382
 7694SOL     OW23675   5.101   0.561   5.969  0.0105  0.6776 -0.0261
 7694SOL    HW123676   5.110   0.581   5.876 -0.5287  0.7672 -0.0580
 7694SOL    HW223677   5.008   0.542   5.981  0.2794 -0.5658  0.2419
 7695SOL     OW23678   5.416   2.765   2.448  0.2841 -0.1407 -0.4554
 7695SOL    HW123679   5.326   2.792   2.463  0.4620 -0.7435  1.8133
 7695SOL    HW223680   5.412   2.669   2.444  0.6183 -0.1073 -1.8530
 7696SOL     OW23681   1.345   2.563   3.766 -0.4739  0.9018  0.1424
 7696SOL    HW123682   1.331   2.646   3.810 -1.7883  0.4377  0.6249
 7696SOL    HW223683   1.258   2.524   3.760 -0.1677  0.5207 -2.0066
 7697SOL     OW23684   1.477   3.044   4.348  0.4634  0.0997 -0.5365
 7697SOL    HW123685   1.499   3.001   4.430 -0.2907 -0.2457 -0.5110
 7697SOL    HW223686   1.455   3.134   4.373  0.2229 -0.0079 -0.3599
 7698SOL     OW23687   3.138   4.825   5.867 -0.4653 -0.0996 -0.1534
 7698SOL    HW123688   3.222   4.865   5.886  0.2329 -0.5442 -2.1819
 7698SOL    HW223689   3.153   4.731   5.881 -0.8800 -0.0901  0.3656
 7699SOL     OW23690   3.101   1.710   3.527  0.4906  0.2481  0.2268
 7699SOL    HW123691   3.057   1.628   3.549  0.5517  0.5968  1.6733
 7699SOL    HW223692   3.032   1.764   3.488  0.3374 -0.2958 -0.2756
 7700SOL     OW23693   1.644   3.319   2.438  0.4955  0.1117  0.6574
 7700SOL    HW123694   1.616   3.340   2.349  1.0702 -0.6873  0.2908
 7700SOL    HW223695   1.740   3.322   2.435  0.5849 -2.1314  0.7113
 7701SOL     OW23696   5.547   4.683   2.331  0.4051 -0.0882 -0.1884
 7701SOL    HW123697   5.617   4.637   2.284  0.0551  0.2168 -1.0073
 7701SOL    HW223698   5.593   4.732   2.400  0.7798 -1.7367  0.7835
 7702SOL     OW23699   3.255   2.632   1.857 -0.4758 -0.3205 -0.1985
 7702SOL    HW123700   3.235   2.573   1.783 -0.2069 -0.3367 -0.2593
 7702SOL    HW223701   3.235   2.719   1.824 -0.2479 -0.3176 -0.3280
 7703SOL     OW23702   0.638   5.568   2.860 -0.0247 -0.3752 -0.5706
 7703SOL    HW123703   0.620   5.488   2.909  0.5723  0.0904  0.4500
 7703SOL    HW223704   0.726   5.594   2.889 -1.0571  1.8073  0.7610
 7704SOL     OW23705   5.307   0.650   0.736  0.2195  0.1227 -0.7653
 7704SOL    HW123706   5.258   0.594   0.676  0.2279 -0.6120 -0.0995
 7704SOL    HW223707   5.348   0.589   0.798  0.8376  0.8179 -0.4753
 7705SOL     OW23708   3.775   3.142   1.005  0.1635 -0.2698  0.2136
 7705SOL    HW123709   3.700   3.113   1.057 -0.3321  0.9657  0.2075
 7705SOL    HW223710   3.736   3.172   0.923  0.8254 -1.1153 -0.4143
 7706SOL     OW23711   0.120   6.215   3.526 -0.1327 -0.0682 -0.0027
 7706SOL    HW123712   0.137   6.264   3.607  0.0287  0.5200 -0.3891
 7706SOL    HW223713   0.024   6.212   3.521 -0.1559 -1.3801  0.9684
 7707SOL     OW23714   5.763   3.680   0.656  0.1335 -0.3008 -0.2707
 7707SOL    HW123715   5.846   3.696   0.701  1.2353  0.6194 -2.5797
 7707SOL    HW223716   5.774   3.595   0.614  0.4672  0.4454 -1.7419
 7708SOL     OW23717   6.361   3.004   0.449  0.0149  0.3274  0.0247
 7708SOL    HW123718   6.368   3.015   0.354 -2.1077 -0.7797 -0.2855
 7708SOL    HW223719   6.388   2.914   0.465 -1.3057 -0.0383  0.2488
 7709SOL     OW23720   3.460   0.784   2.067  0.6994 -0.1901  0.3803
 7709SOL    HW123721   3.428   0.754   2.153  1.0760  0.1808  0.6523
 7709SOL    HW223722   3.423   0.871   2.058  1.3928  0.1226  0.5622
 7710SOL     OW23723   4.973   7.151   2.720 -0.1403  0.2468 -0.6854
 7710SOL    HW123724   4.978   7.239   2.683 -0.9987  0.1761 -0.9669
 7710SOL    HW223725   5.065   7.126   2.735  0.2552  0.0584 -3.2420
 7711SOL     OW23726   6.302   1.810   5.335 -0.5275 -0.1986 -0.2049
 7711SOL    HW123727   6.305   1.726   5.289  1.6816 -0.7017  0.7988
 7711SOL    HW223728   6.209   1.833   5.337 -0.9731 -1.7406 -2.0452
 7712SOL     OW23729   2.072   4.115   2.623  0.4119  0.1065  0.1939
 7712SOL    HW123730   2.083   4.204   2.590 -2.3167  0.4565  0.1468
 7712SOL    HW223731   2.007   4.076   2.565  1.0676 -1.7153  0.6473
 7713SOL     OW23732   5.759   6.237   6.466  0.1434  1.0486  1.0225
 7713SOL    HW123733   5.695   6.292   6.422 -1.3173 -0.0932  1.6707
 7713SOL    HW223734   5.805   6.193   6.395 -1.4703  0.0211  0.5756
 7714SOL     OW23735   5.746   6.515   1.754  0.1386  0.3537  0.2612
 7714SOL    HW123736   5.818   6.576   1.772 -0.9997  1.6243  0.6332
 7714SOL    HW223737   5.731   6.471   1.838  0.2804  0.2948  0.2569
 7715SOL     OW23738   7.007   4.870   4.990 -0.0105 -0.1698  0.4310
 7715SOL    HW123739   7.072   4.910   4.932  0.3889  0.3340  1.2110
 7715SOL    HW223740   6.943   4.939   5.006  0.4382  0.0261  1.4223
 7716SOL     OW23741   3.717   2.590   1.892 -0.5460 -0.0580 -0.4386
 7716SOL    HW123742   3.657   2.544   1.950 -0.6461  0.8832  0.2146
 7716SOL    HW223743   3.667   2.666   1.861  0.4643  1.0177  0.5160
 7717SOL     OW23744   4.034   5.714   1.934 -0.2900 -0.3903  0.4504
 7717SOL    HW123745   4.115   5.737   1.890 -0.2938  3.1839  2.0653
 7717SOL    HW223746   3.965   5.744   1.876 -0.3776  0.0655  0.7870
 7718SOL     OW23747   0.479   3.789   4.636 -0.1030  0.1291 -0.5196
 7718SOL    HW123748   0.458   3.878   4.663  2.9745 -0.0733  3.0871
 7718SOL    HW223749   0.575   3.786   4.636 -0.0413 -2.0933 -4.6324
 7719SOL     OW23750   5.145   7.056   2.109  0.3512 -0.1184  0.1775
 7719SOL    HW123751   5.154   7.042   2.015  0.3658  0.7832  0.0365
 7719SOL    HW223752   5.095   7.138   2.116 -0.9954 -0.9841  0.9510
 7720SOL     OW23753   2.558   5.533   4.517  0.1590  0.9554  0.4232
 7720SOL    HW123754   2.482   5.489   4.554 -0.9936  1.4224 -1.3045
 7720SOL    HW223755   2.541   5.626   4.532  1.0737  0.9856  1.2811
 7721SOL     OW23756   4.130   1.813   2.402 -0.1257 -0.0517  0.3199
 7721SOL    HW123757   4.074   1.786   2.331  0.0263  0.2336  0.0897
 7721SOL    HW223758   4.156   1.903   2.380  0.7398 -0.3215  0.2189
 7722SOL     OW23759   1.891   7.192   1.967  0.1605 -0.0575  0.5549
 7722SOL    HW123760   1.842   7.257   2.017  0.1588 -0.4721  1.0969
 7722SOL    HW223761   1.825   7.147   1.913  0.3110  1.0975 -0.6108
 7723SOL     OW23762   5.298   5.557   5.039  0.7059  0.4703  0.2604
 7723SOL    HW123763   5.234   5.546   5.110 -2.3960  0.4572 -2.4206
 7723SOL    HW223764   5.313   5.652   5.035  0.3331  0.5365  0.4452
 7724SOL     OW23765   0.873   6.681   4.438  0.7241 -0.1645  0.2645
 7724SOL    HW123766   0.899   6.590   4.449  0.9224 -0.2535 -0.8543
 7724SOL    HW223767   0.787   6.687   4.481  0.7324 -0.8620  0.3833
 7725SOL     OW23768   1.825   4.730   6.617 -0.0677 -0.3168  0.5833
 7725SOL    HW123769   1.794   4.815   6.650 -0.3304 -0.7678  1.5253
 7725SOL    HW223770   1.900   4.709   6.672  0.3674 -0.4204 -0.0418
 7726SOL     OW23771   0.165   4.340   5.586 -0.2776  0.0437 -0.1673
 7726SOL    HW123772   0.232   4.350   5.518 -0.6264 -0.4225 -0.5872
 7726SOL    HW223773   0.157   4.245   5.597 -0.6759  0.1040  0.0691
 7727SOL     OW23774   4.314   0.993   4.327 -0.1935 -0.1271 -0.0184
 7727SOL    HW123775   4.346   0.994   4.417  0.7824  0.3663 -0.3723
 7727SOL    HW223776   4.261   0.913   4.322 -2.8400  1.4202  1.8704
 7728SOL     OW23777   5.261   1.895   3.849 -0.4563  0.2437 -1.2791
 7728SOL    HW123778   5.322   1.839   3.897 -2.0057  0.5539  1.1821
 7728SOL    HW223779   5.302   1.981   3.850 -2.1114  1.1097  2.8906
 7729SOL     OW23780   2.596   0.371   0.980 -0.6393 -0.4544  0.1786
 7729SOL    HW123781   2.594   0.363   0.885  0.1709 -0.5953  0.1681
 7729SOL    HW223782   2.604   0.281   1.012  3.4168 -0.1683  0.2205
 7730SOL     OW23783   4.229   3.587   1.196  0.2207  0.4604 -0.4596
 7730SOL    HW123784   4.179   3.655   1.241  1.1003  0.4212  0.6213
 7730SOL    HW223785   4.250   3.524   1.266  0.3726 -0.3430 -1.2256
 7731SOL     OW23786   2.145   6.732   3.966  0.2336  0.1458  0.6373
 7731SOL    HW123787   2.112   6.707   4.052  0.2658  0.2307  0.6739
 7731SOL    HW223788   2.067   6.760   3.918  0.0918 -0.7181  0.3593
 7732SOL     OW23789   4.293   0.548   4.822  0.0132 -0.0926  0.1436
 7732SOL    HW123790   4.324   0.467   4.862  0.3560  1.0189  2.1999
 7732SOL    HW223791   4.198   0.541   4.826  0.0303  0.3242  1.9038
 7733SOL     OW23792   5.404   6.197   6.241 -0.2260 -0.4692  0.1094
 7733SOL    HW123793   5.445   6.112   6.226 -1.8808 -1.0339 -1.3496
 7733SOL    HW223794   5.453   6.258   6.186 -0.1681 -0.8011 -0.2061
 7734SOL     OW23795   2.772   5.860   5.177 -0.3799 -0.4160 -0.1381
 7734SOL    HW123796   2.794   5.767   5.187  0.5290 -0.1003  0.8530
 7734SOL    HW223797   2.855   5.902   5.155 -1.1045 -0.0691 -2.2713
 7735SOL     OW23798   0.445   4.872   1.033 -0.0168  0.3797 -0.4230
 7735SOL    HW123799   0.453   4.837   0.944  0.6657 -0.6353  0.0303
 7735SOL    HW223800   0.355   4.906   1.037 -0.5535 -0.9131 -1.0305
 7736SOL     OW23801   6.176   6.043   4.286  0.3842  0.1136  0.0719
 7736SOL    HW123802   6.226   6.014   4.210  0.7026  1.8777 -0.3994
 7736SOL    HW223803   6.147   6.131   4.265 -0.0353  0.4087  1.7513
 7737SOL     OW23804   5.241   0.441   1.804  0.8700  0.2467  0.3337
 7737SOL    HW123805   5.221   0.525   1.761  0.4744 -0.2260 -0.4224
 7737SOL    HW223806   5.270   0.465   1.892  1.5529  1.2290 -0.1556
 7738SOL     OW23807   2.572   3.871   4.486 -0.2392 -0.4076  0.2140
 7738SOL    HW123808   2.519   3.937   4.442 -0.9018 -1.0283  0.0819
 7738SOL    HW223809   2.645   3.920   4.524  0.6367  0.0851 -2.0027
 7739SOL     OW23810   6.558   4.191   5.311  0.0212 -0.0246 -0.2632
 7739SOL    HW123811   6.599   4.110   5.281 -2.1711 -0.6862 -1.5753
 7739SOL    HW223812   6.465   4.182   5.288 -0.8135  1.6140  2.2565
 7740SOL     OW23813   3.554   5.159   1.181 -0.3169  0.6934 -0.0092
 7740SOL    HW123814   3.632   5.110   1.156 -0.7629 -0.5999  1.0758
 7740SOL    HW223815   3.487   5.129   1.119 -0.9082 -1.0254  1.4235
 7741SOL     OW23816   0.868   0.097   6.476 -0.5130 -0.7104  0.0501
 7741SOL    HW123817   0.870   0.155   6.552  0.6741 -1.0626  0.3117
 7741SOL    HW223818   0.945   0.041   6.488 -1.4060 -2.0609 -0.4077
 7742SOL     OW23819   2.482   5.760   2.442 -0.6739 -0.1874  0.1266
 7742SOL    HW123820   2.397   5.729   2.410 -0.3042 -1.2124  0.1050
 7742SOL    HW223821   2.510   5.825   2.378 -0.5285 -1.3122 -0.9773
 7743SOL     OW23822   6.700   4.455   0.755 -0.9558 -0.4018 -0.1013
 7743SOL    HW123823   6.705   4.394   0.829 -0.3647 -0.2953 -0.0438
 7743SOL    HW223824   6.607   4.464   0.737 -1.2010  0.6032  1.5092
 7744SOL     OW23825   3.720   0.072   0.706  0.0319 -0.4160 -0.2544
 7744SOL    HW123826   3.698   0.043   0.794  1.3222  0.9284  0.5359
 7744SOL    HW223827   3.681   0.159   0.699  1.2672  0.1363 -0.4293
 7745SOL     OW23828   5.678   0.207   2.445 -0.6114 -0.3435 -0.0227
 7745SOL    HW123829   5.645   0.117   2.441 -1.1354 -0.0741 -2.0044
 7745SOL    HW223830   5.669   0.231   2.538 -0.8456 -2.1866  0.4533
 7746SOL     OW23831   6.056   5.684   3.455  0.3041 -0.5074  0.0779
 7746SOL    HW123832   6.135   5.634   3.433  0.3650  0.2056 -1.3614
 7746SOL    HW223833   6.031   5.652   3.542  1.6171 -1.4364  0.1272
 7747SOL     OW23834   4.130   6.889   2.441  0.2167 -0.8731  0.5247
 7747SOL    HW123835   4.203   6.863   2.496 -0.0898 -1.3700  0.7096
 7747SOL    HW223836   4.055   6.893   2.501  0.2201  0.2861  0.4648
 7748SOL     OW23837   6.125   1.264   6.219  0.0106  0.5126 -0.2437
 7748SOL    HW123838   6.181   1.299   6.149 -0.8786  3.1785  0.3251
 7748SOL    HW223839   6.108   1.174   6.193  0.8352  1.0414 -2.7697
 7749SOL     OW23840   5.452   4.994   1.880  0.6920 -0.0629  0.5425
 7749SOL    HW123841   5.484   4.904   1.879 -1.0830 -0.7018 -1.3756
 7749SOL    HW223842   5.507   5.039   1.816  0.1481 -0.3033 -0.0966
 7750SOL     OW23843   2.033   1.049   1.785  0.0727 -0.3703  0.5920
 7750SOL    HW123844   2.111   1.023   1.737 -0.1176 -1.2215  0.7359
 7750SOL    HW223845   2.002   0.968   1.826  0.5325  0.4151  2.5653
 7751SOL     OW23846   4.978   6.980   0.879  0.0199  0.3484  0.2667
 7751SOL    HW123847   5.033   7.000   0.803 -1.0708  0.1593 -0.5929
 7751SOL    HW223848   4.919   7.054   0.886  1.6677  1.4968  2.4114
 7752SOL     OW23849   0.955   2.739   6.255  0.1887 -0.0337  0.2951
 7752SOL    HW123850   0.910   2.678   6.314  0.0316 -0.4869 -0.2869
 7752SOL    HW223851   0.884   2.781   6.206  0.3688 -0.4354 -0.3197
 7753SOL     OW23852   3.288   5.715   5.407  0.5459  0.2154  0.3611
 7753SOL    HW123853   3.240   5.743   5.329 -0.8816 -0.7428  0.8590
 7753SOL    HW223854   3.252   5.768   5.478 -0.1688 -0.8758  0.8286
 7754SOL     OW23855   5.028   2.032   2.620 -0.2853  0.0474 -0.0342
 7754SOL    HW123856   5.085   1.959   2.595 -1.1890 -0.2413 -1.3092
 7754SOL    HW223857   5.002   2.013   2.710  0.5687 -0.4956  0.1042
 7755SOL     OW23858   2.894   3.666   7.091 -0.3024 -0.1534 -0.2426
 7755SOL    HW123859   2.881   3.756   7.121  1.7169  0.0094  0.2442
 7755SOL    HW223860   2.872   3.611   7.166  0.3905  0.0382  0.1044
 7756SOL     OW23861   1.075   5.676   1.529 -0.5870  1.0320 -0.0790
 7756SOL    HW123862   1.016   5.604   1.551 -1.0481  1.4554  0.0772
 7756SOL    HW223863   1.029   5.755   1.556  0.6546  1.2814  1.3587
 7757SOL     OW23864   4.989   0.494   3.119  0.0701  0.2312 -0.0320
 7757SOL    HW123865   4.900   0.528   3.133 -0.0910  0.0010 -0.4948
 7757SOL    HW223866   4.975   0.410   3.076  0.4759 -0.2497  0.7519
 7758SOL     OW23867   1.113   1.707   2.173 -0.1057 -0.0041 -0.4357
 7758SOL    HW123868   1.067   1.730   2.092  0.3270 -0.2043 -0.7408
 7758SOL    HW223869   1.047   1.662   2.226 -0.1662 -0.6039 -1.0151
 7759SOL     OW23870   5.692   4.013   2.144  0.3972  0.2362  0.6590
 7759SOL    HW123871   5.724   4.104   2.143 -0.4334  0.5633  2.3292
 7759SOL    HW223872   5.761   3.963   2.187  0.8441  0.0815 -0.2375
 7760SOL     OW23873   6.375   2.909   2.782 -0.0077  0.8996 -0.1773
 7760SOL    HW123874   6.414   2.881   2.699  1.6874  0.6015  0.7081
 7760SOL    HW223875   6.419   2.992   2.802 -1.0707  1.4342 -0.0164
 7761SOL     OW23876   4.988   2.096   2.206 -0.2228  0.0915  0.3274
 7761SOL    HW123877   5.007   2.134   2.292 -0.6894  1.4126 -0.1419
 7761SOL    HW223878   4.993   2.170   2.146  0.6783 -0.9383 -0.8778
 7762SOL     OW23879   2.415   0.890   2.724  0.1487  0.2997  0.1310
 7762SOL    HW123880   2.440   0.953   2.657 -1.2870 -0.8350 -1.5041
 7762SOL    HW223881   2.488   0.829   2.730 -0.0588 -0.0612 -0.9913
 7763SOL     OW23882   1.864   2.749   5.313  0.2785 -0.6827 -0.0219
 7763SOL    HW123883   1.897   2.792   5.393  0.0947  0.8318 -0.7368
 7763SOL    HW223884   1.776   2.784   5.302  0.2022 -1.1044 -0.7313
 7764SOL     OW23885   6.905   0.944   5.408  0.1555 -0.3856 -0.1001
 7764SOL    HW123886   6.885   0.982   5.323 -0.1495  2.7735  1.2708
 7764SOL    HW223887   6.953   0.864   5.389 -1.6899 -0.8180 -3.2385
 7765SOL     OW23888   2.361   2.618   5.114 -0.0677  0.4720  0.6532
 7765SOL    HW123889   2.352   2.602   5.207 -1.2379  0.7705  0.6063
 7765SOL    HW223890   2.281   2.583   5.075 -0.1785  1.4940 -0.0789
 7766SOL     OW23891   3.783   3.173   3.468 -0.2819 -0.4039  0.4117
 7766SOL    HW123892   3.863   3.184   3.417  1.2115  1.3718  3.0380
 7766SOL    HW223893   3.794   3.088   3.511 -0.1426 -0.5093  0.1668
 7767SOL     OW23894   0.906   0.136   5.299  0.3884  0.0956 -0.1850
 7767SOL    HW123895   0.918   0.132   5.394  1.2486  0.3194 -0.2751
 7767SOL    HW223896   0.811   0.133   5.286  0.3031 -1.4326  0.6180
 7768SOL     OW23897   5.689   1.869   2.064  0.4141 -0.1340  0.0912
 7768SOL    HW123898   5.611   1.915   2.091 -0.0618  0.0064 -1.4512
 7768SOL    HW223899   5.734   1.930   2.005 -0.0800 -1.4992 -1.7385
 7769SOL     OW23900   6.478   6.943   1.500 -0.1939  0.3198 -0.6057
 7769SOL    HW123901   6.537   6.971   1.431  0.3563 -0.5796 -0.5157
 7769SOL    HW223902   6.522   6.969   1.581 -0.3773  0.5039 -0.5644
 7770SOL     OW23903   5.793   4.826   6.627 -0.2217 -0.4166  0.4096
 7770SOL    HW123904   5.841   4.882   6.567 -0.1811  0.3979  1.1968
 7770SOL    HW223905   5.860   4.776   6.672 -0.3163 -2.0190 -1.1708
 7771SOL     OW23906   0.137   0.818   5.993  0.0572 -0.1482 -0.1787
 7771SOL    HW123907   0.122   0.745   6.054  2.3832 -1.1695 -0.7500
 7771SOL    HW223908   0.133   0.777   5.907 -0.0006  0.6749 -0.5655
 7772SOL     OW23909   4.027   4.678   3.883 -0.2069 -0.3404 -0.1211
 7772SOL    HW123910   3.999   4.749   3.826  0.5991 -0.5325 -0.7679
 7772SOL    HW223911   4.111   4.706   3.917 -0.2761 -0.6186  0.2836
 7773SOL     OW23912   3.154   2.122   2.702  0.2684  0.2063 -0.0355
 7773SOL    HW123913   3.064   2.139   2.730  0.0053 -0.5981 -0.3667
 7773SOL    HW223914   3.196   2.084   2.779  0.2572  0.3552  0.0445
 7774SOL     OW23915   5.288   4.400   4.759 -0.0487  0.4006  0.0346
 7774SOL    HW123916   5.244   4.345   4.694  1.4247  0.6983 -1.2487
 7774SOL    HW223917   5.361   4.346   4.790 -0.5452  0.3936  1.1936
 7775SOL     OW23918   1.452   6.498   6.835  0.5520  0.0111 -0.2144
 7775SOL    HW123919   1.424   6.575   6.785  0.2490  0.6245  0.9037
 7775SOL    HW223920   1.547   6.500   6.832  0.6002  1.6819  1.7019
 7776SOL     OW23921   3.004   0.435   3.461  0.1049  0.3866  0.4608
 7776SOL    HW123922   3.000   0.494   3.536  0.5788  0.1787  0.6519
 7776SOL    HW223923   3.083   0.460   3.414  0.4554 -0.2597  0.6881
 7777SOL     OW23924   4.827   0.009   3.771 -0.2980 -0.1297 -0.0411
 7777SOL    HW123925   4.770   0.062   3.716 -1.5090  0.7654  2.0099
 7777SOL    HW223926   4.871   0.071   3.829  1.5292 -0.9773 -0.4765
 7778SOL     OW23927   3.686   5.248   0.726 -0.0941  0.2430 -0.0776
 7778SOL    HW123928   3.668   5.163   0.686  0.9991  0.1462 -0.3780
 7778SOL    HW223929   3.650   5.241   0.814  0.6994 -0.8015  0.1607
 7779SOL     OW23930   3.623   4.205   0.661 -0.3124 -0.4185 -0.0307
 7779SOL    HW123931   3.609   4.116   0.696 -1.7473 -1.1895 -2.4813
 7779SOL    HW223932   3.543   4.252   0.682 -0.6118 -0.4777 -1.0164
 7780SOL     OW23933   0.545   0.304   4.128 -0.6276 -0.2227 -0.2326
 7780SOL    HW123934   0.474   0.303   4.192 -0.2767 -0.1312  0.1598
 7780SOL    HW223935   0.534   0.223   4.078  0.8690 -1.7686  1.8889
 7781SOL     OW23936   2.320   3.205   2.307  0.1286 -0.0860  0.2912
 7781SOL    HW123937   2.293   3.256   2.383 -1.0954 -0.5314  0.1611
 7781SOL    HW223938   2.321   3.114   2.339 -1.9638 -0.4503 -0.6593
 7782SOL     OW23939   2.158   3.465   2.780  0.1234  0.3588  0.1567
 7782SOL    HW123940   2.100   3.533   2.814 -1.8981 -0.9615 -0.5536
 7782SOL    HW223941   2.115   3.383   2.804  1.6375 -0.6378 -0.5005
 7783SOL     OW23942   2.277   3.801   4.257 -0.3420  0.0198 -0.0502
 7783SOL    HW123943   2.334   3.759   4.321 -0.5483  1.1485  0.9037
 7783SOL    HW223944   2.257   3.733   4.193 -0.5502 -1.2755  1.3727
 7784SOL     OW23945   2.099   2.616   5.442 -0.0775 -0.2521 -0.5010
 7784SOL    HW123946   2.054   2.570   5.512  0.0364  0.0076 -0.2543
 7784SOL    HW223947   2.032   2.671   5.401 -0.1512 -0.4296 -0.6166
 7785SOL     OW23948   1.901   6.138   3.764  0.2173  0.1672 -0.5452
 7785SOL    HW123949   1.903   6.051   3.803  1.0637  0.7522  0.7930
 7785SOL    HW223950   1.901   6.123   3.670  0.4995 -1.2761 -0.3260
 7786SOL     OW23951   3.422   3.175   3.136 -0.1482  0.6607 -0.4150
 7786SOL    HW123952   3.369   3.252   3.115  0.1011  0.3736 -2.2359
 7786SOL    HW223953   3.507   3.211   3.162  0.0668  1.0285 -1.5578
 7787SOL     OW23954   2.360   4.146   6.857 -0.4304 -0.2557 -0.2522
 7787SOL    HW123955   2.451   4.120   6.871  0.5292  2.1304 -1.8477
 7787SOL    HW223956   2.316   4.122   6.938  1.8502 -0.4211  0.9860
 7788SOL     OW23957   1.589   6.349   1.037 -0.6298 -0.0937  0.3019
 7788SOL    HW123958   1.538   6.291   0.980 -2.2330  1.6993 -0.1241
 7788SOL    HW223959   1.560   6.327   1.126 -2.4806  1.2040  0.0377
 7789SOL     OW23960   3.289   1.792   0.482 -0.1802  0.5541 -0.1819
 7789SOL    HW123961   3.296   1.814   0.575  0.7891  0.8598 -0.3200
 7789SOL    HW223962   3.226   1.856   0.447  0.4067  1.2369  0.0119
 7790SOL     OW23963   2.930   1.568   3.674 -0.7787  0.5115  0.1360
 7790SOL    HW123964   2.969   1.548   3.760  1.8268  2.9077 -0.4243
 7790SOL    HW223965   2.838   1.585   3.694 -0.6903 -1.0446  2.1363
 7791SOL     OW23966   6.120   5.545   1.545 -0.2088 -0.0717 -0.4298
 7791SOL    HW123967   6.212   5.551   1.519  0.5801  1.9619  2.5853
 7791SOL    HW223968   6.114   5.461   1.590 -0.1365 -0.7303 -1.6124
 7792SOL     OW23969   3.705   0.445   1.802 -0.0256  0.4538 -0.3235
 7792SOL    HW123970   3.749   0.529   1.787  0.2114  0.7619  2.0255
 7792SOL    HW223971   3.775   0.384   1.823 -0.5649  0.6948  2.3448
 7793SOL     OW23972   4.366   6.646   4.328 -0.1731  0.0507  0.3908
 7793SOL    HW123973   4.348   6.567   4.276  3.7002 -0.5673 -0.1616
 7793SOL    HW223974   4.371   6.615   4.418  2.7372 -0.6684  0.0318
 7794SOL     OW23975   0.508   1.032   1.884  0.3560 -0.9463 -0.2648
 7794SOL    HW123976   0.502   1.122   1.851 -1.8388 -1.0702 -0.2268
 7794SOL    HW223977   0.483   1.039   1.976  0.8967 -1.5038 -0.0746
 7795SOL     OW23978   3.418   0.895   5.724  0.1953 -0.0942 -0.1893
 7795SOL    HW123979   3.326   0.899   5.698  0.1826 -1.2683 -0.3549
 7795SOL    HW223980   3.465   0.934   5.650 -0.1801  0.7591  0.0123
 7796SOL     OW23981   4.245   6.551   0.660 -0.5130  0.4030 -0.0424
 7796SOL    HW123982   4.188   6.523   0.732  0.7217  0.7469  1.0853
 7796SOL    HW223983   4.306   6.613   0.699  1.2758 -0.6768 -0.9839
 7797SOL     OW23984   6.203   6.522   0.266 -0.4955  0.3034  0.2928
 7797SOL    HW123985   6.286   6.475   0.257  0.4630  1.8411  0.9424
 7797SOL    HW223986   6.173   6.500   0.355 -0.0670  0.8663  0.5817
 7798SOL     OW23987   4.126   5.600   0.301  0.1988 -0.5274  0.1598
 7798SOL    HW123988   4.110   5.616   0.208 -1.5744 -0.7615  0.4232
 7798SOL    HW223989   4.145   5.687   0.337 -0.5474 -0.2423 -0.1385
 7799SOL     OW23990   6.240   7.009   1.322  0.1789  0.1292 -0.2238
 7799SOL    HW123991   6.278   7.088   1.284  1.1392 -0.3252 -0.2412
 7799SOL    HW223992   6.269   7.010   1.413 -3.2499  1.9177  0.9097
 7800SOL     OW23993   0.601   3.095   2.286  0.6128 -0.0803  0.1290
 7800SOL    HW123994   0.534   3.129   2.344 -0.4442 -0.8858 -0.5911
 7800SOL    HW223995   0.674   3.072   2.344  0.5948  1.5661  0.8204
 7801SOL     OW23996   4.969   2.281   1.679 -0.2367 -0.2934 -0.1949
 7801SOL    HW123997   4.920   2.327   1.611 -0.3398 -0.5062 -0.2629
 7801SOL    HW223998   4.924   2.197   1.690  1.3807 -1.4007 -1.7824
 7802SOL     OW23999   2.229   0.282   1.297 -0.1169 -0.3085 -0.8373
 7802SOL    HW124000   2.227   0.297   1.202  0.2124 -0.3312 -0.8487
 7802SOL    HW224001   2.192   0.362   1.335  0.4086 -0.0040 -0.9553
 7803SOL     OW24002   5.847   0.804   2.898 -0.3952 -0.3464 -0.1316
 7803SOL    HW124003   5.799   0.752   2.833 -2.0404 -0.2695  0.9742
 7803SOL    HW224004   5.780   0.862   2.934  0.7381  0.3181  0.8926
 7804SOL     OW24005   6.217   5.329   5.700  0.1897 -0.8562 -0.0867
 7804SOL    HW124006   6.232   5.336   5.794 -0.6049  2.6115 -0.1703
 7804SOL    HW224007   6.122   5.328   5.690  0.2243  1.1195 -0.9381
 7805SOL     OW24008   3.128   5.946   0.841 -0.0447  0.3882 -0.0288
 7805SOL    HW124009   3.184   5.981   0.910  1.6936 -1.2445 -0.5844
 7805SOL    HW224010   3.130   5.852   0.854 -0.6693  0.1459 -1.5763
 7806SOL     OW24011   5.185   7.165   0.478  0.3262  0.1123 -0.2257
 7806SOL    HW124012   5.134   7.168   0.559  0.3613  0.8672 -0.2262
 7806SOL    HW224013   5.182   7.073   0.451  1.6707 -0.4298  1.4679
 7807SOL     OW24014   5.296   1.260   5.677 -0.5264  0.2606 -0.1270
 7807SOL    HW124015   5.209   1.275   5.713 -0.0527 -1.7590  1.9579
 7807SOL    HW224016   5.285   1.186   5.617 -0.4340  0.6741 -0.6594
 7808SOL     OW24017   3.558   6.162   3.811 -0.8281  0.2883  0.1844
 7808SOL    HW124018   3.628   6.178   3.748 -0.0756 -2.5725  0.2047
 7808SOL    HW224019   3.592   6.196   3.894  0.7722 -1.4654  0.2885
 7809SOL     OW24020   2.798   4.566   2.601  0.0667  0.1010 -0.3892
 7809SOL    HW124021   2.789   4.526   2.514 -1.1170  1.8552 -1.0935
 7809SOL    HW224022   2.708   4.579   2.631  0.4588  1.1719  0.3414
 7810SOL     OW24023   6.392   0.925   5.181  0.4820  0.4003  0.1862
 7810SOL    HW124024   6.454   0.902   5.250  2.2488  0.0045 -1.5062
 7810SOL    HW224025   6.306   0.917   5.223  1.4208 -1.8815  1.7657
 7811SOL     OW24026   4.986   0.183   3.954 -0.1294 -0.2370 -0.5770
 7811SOL    HW124027   5.070   0.136   3.953  0.9889  1.7268 -1.6437
 7811SOL    HW224028   4.978   0.220   3.866 -0.9160  1.6635  0.2606
 7812SOL     OW24029   6.568   1.451   4.858  0.0302  0.3213 -0.0332
 7812SOL    HW124030   6.588   1.520   4.921  0.8573  0.8358 -0.8478
 7812SOL    HW224031   6.653   1.420   4.828 -0.3395 -1.0853  0.3468
 7813SOL     OW24032   2.598   4.804   4.510  0.3009  0.1077  0.8193
 7813SOL    HW124033   2.526   4.867   4.510  0.4164  0.2384  1.1604
 7813SOL    HW224034   2.574   4.740   4.443  1.5542  2.0884 -1.6144
 7814SOL     OW24035   3.871   4.903   3.217 -0.3607 -0.1374 -0.2233
 7814SOL    HW124036   3.916   4.930   3.137  0.5917 -0.4353  0.2056
 7814SOL    HW224037   3.785   4.944   3.211 -0.0104  0.4926 -1.0213
 7815SOL     OW24038   4.354   1.629   7.250 -0.2788 -0.1122  0.3032
 7815SOL    HW124039   4.338   1.544   7.208 -2.2693 -0.7284  2.1852
 7815SOL    HW224040   4.422   1.669   7.197  0.7721 -2.9197 -0.5830
 7816SOL     OW24041   2.312   0.456   4.803  0.4966  0.1848 -0.2137
 7816SOL    HW124042   2.407   0.448   4.800  0.4022 -0.3758 -2.1204
 7816SOL    HW224043   2.287   0.485   4.715 -1.0717  0.7125  0.3743
 7817SOL     OW24044   0.917   0.301   4.009 -0.1554 -0.2669  0.4796
 7817SOL    HW124045   0.824   0.316   3.994 -0.2915 -1.2175  0.3887
 7817SOL    HW224046   0.934   0.341   4.094 -1.1302 -2.0814  1.5361
 7818SOL     OW24047   5.485   5.511   5.228  0.1576 -0.0322  0.3433
 7818SOL    HW124048   5.563   5.496   5.174  0.4680  1.2923  0.4231
 7818SOL    HW224049   5.413   5.516   5.165  0.3879  0.5568  0.1279
 7819SOL     OW24050   3.557   7.257   4.791  0.0467  0.0928  0.1123
 7819SOL    HW124051   3.550   7.349   4.764 -0.4883  0.1423  0.4047
 7819SOL    HW224052   3.488   7.212   4.742  0.6859 -0.2538 -0.4651
 7820SOL     OW24053   6.152   7.027   1.617 -0.0716 -0.2468 -0.3005
 7820SOL    HW124054   6.100   7.048   1.694  0.4306  0.1398 -0.0620
 7820SOL    HW224055   6.088   7.000   1.551 -0.4573 -1.2418  0.4585
 7821SOL     OW24056   2.287   2.123   6.212  0.0753 -0.6175  0.0024
 7821SOL    HW124057   2.375   2.131   6.248  0.1691  0.3300 -0.4261
 7821SOL    HW224058   2.236   2.190   6.258  0.0149  0.0801 -1.0699
 7822SOL     OW24059   3.325   5.304   5.120 -0.2697 -0.0464  0.0522
 7822SOL    HW124060   3.393   5.282   5.057 -1.3315  0.3515 -1.2615
 7822SOL    HW224061   3.349   5.389   5.155  0.3346 -0.2802  0.2029
 7823SOL     OW24062   0.666   3.151   0.638 -0.1315 -0.7694 -0.7223
 7823SOL    HW124063   0.724   3.137   0.563 -0.1511 -1.1014 -0.6790
 7823SOL    HW224064   0.583   3.179   0.599  0.4505  1.0280 -0.7073
 7824SOL     OW24065   5.338   4.187   0.083  0.0017 -0.1049 -0.0782
 7824SOL    HW124066   5.373   4.274   0.106  0.5192 -0.1846 -0.5383
 7824SOL    HW224067   5.395   4.126   0.128 -0.8419 -0.1962  0.8821
 7825SOL     OW24068   7.143   0.789   0.465  0.0257  0.6630  0.3449
 7825SOL    HW124069   7.131   0.881   0.489  1.7932  1.3350 -1.2153
 7825SOL    HW224070   7.223   0.763   0.511  0.5947  0.4830 -0.7345
 7826SOL     OW24071   3.760   6.259   2.475 -0.5691 -0.1080  0.5510
 7826SOL    HW124072   3.832   6.235   2.417  0.3666 -2.0010  2.4237
 7826SOL    HW224073   3.796   6.327   2.532 -0.3094 -0.8951  1.3400
 7827SOL     OW24074   6.757   3.766   4.219 -0.1949  0.0754  0.1556
 7827SOL    HW124075   6.848   3.773   4.188 -0.3528 -1.2082 -0.6481
 7827SOL    HW224076   6.704   3.775   4.140 -0.9752  4.3381  1.0488
 7828SOL     OW24077   6.393   2.817   5.342  0.1890  0.2577  0.3081
 7828SOL    HW124078   6.386   2.894   5.286 -0.3074  0.1725  0.2575
 7828SOL    HW224079   6.385   2.850   5.431  0.1783  0.2874  0.2960
 7829SOL     OW24080   1.228   5.439   3.200  0.2195 -0.1169  0.1046
 7829SOL    HW124081   1.241   5.470   3.290 -1.2348 -1.4155  0.8046
 7829SOL    HW224082   1.176   5.359   3.211  2.5188 -1.8928 -1.7134
 7830SOL     OW24083   2.607   2.383   3.815  0.2401 -0.6050 -0.1964
 7830SOL    HW124084   2.605   2.288   3.827 -0.2503 -0.3667  1.6535
 7830SOL    HW224085   2.538   2.399   3.750  0.2747 -1.4968 -0.4669
 7831SOL     OW24086   5.189   4.328   0.733  0.1992  0.2436 -0.6767
 7831SOL    HW124087   5.279   4.359   0.737  0.0534  0.5385  0.5779
 7831SOL    HW224088   5.176   4.280   0.815 -1.2221  1.4490 -0.1648
 7832SOL     OW24089   3.299   0.424   2.928  0.9212  0.2992  0.5137
 7832SOL    HW124090   3.386   0.390   2.906 -0.0877 -1.6278 -0.6018
 7832SOL    HW224091   3.263   0.453   2.845 -0.3554 -0.9504  0.6127
 7833SOL     OW24092   3.598   6.941   4.817  0.2530  0.0667  0.0095
 7833SOL    HW124093   3.609   6.858   4.863 -2.4513 -0.3591  0.0042
 7833SOL    HW224094   3.591   6.917   4.724  1.1977  0.4648 -0.1620
 7834SOL     OW24095   6.407   3.545   2.891  0.3562 -0.2459 -0.2769
 7834SOL    HW124096   6.313   3.535   2.903  0.7971 -1.3616  2.4701
 7834SOL    HW224097   6.426   3.498   2.809 -1.4220 -0.2660 -0.6812
 7835SOL     OW24098   3.657   3.635   1.844 -0.5905  0.2853 -0.2503
 7835SOL    HW124099   3.641   3.690   1.921 -0.6105 -2.2881  1.6629
 7835SOL    HW224100   3.691   3.553   1.880  0.0477 -0.7506 -3.0575
 7836SOL     OW24101   2.271   6.786   0.611 -0.7570 -0.2313  0.2825
 7836SOL    HW124102   2.289   6.837   0.532 -1.9905  1.3350  0.9737
 7836SOL    HW224103   2.248   6.852   0.677 -1.7267 -1.6358  1.3806
 7837SOL     OW24104   7.206   4.602   3.340 -0.5919 -0.0307  0.5509
 7837SOL    HW124105   7.157   4.571   3.263 -0.5736 -0.5022  0.7248
 7837SOL    HW224106   7.226   4.522   3.389 -0.2623  0.2318  0.8454
 7838SOL     OW24107   1.307   2.464   6.726 -0.6920  0.1674  0.3709
 7838SOL    HW124108   1.348   2.454   6.641  1.6482 -1.0046  1.6106
 7838SOL    HW224109   1.311   2.558   6.744  0.2835  0.2129 -0.0858
 7839SOL     OW24110   6.059   7.186   1.851 -0.4408  0.0933  0.3980
 7839SOL    HW124111   6.058   7.236   1.933  1.7709  1.1925 -0.2135
 7839SOL    HW224112   6.051   7.252   1.782 -0.5065 -0.6655 -0.3310
 7840SOL     OW24113   6.356   6.909   1.783 -0.4708 -0.2567 -0.1013
 7840SOL    HW124114   6.321   6.975   1.722 -2.3866  0.2913  1.5428
 7840SOL    HW224115   6.451   6.923   1.780 -0.7775  2.1418 -0.3325
 7841SOL     OW24116   2.153   4.990   0.762  0.3049  0.2256 -0.4382
 7841SOL    HW124117   2.197   4.906   0.747  0.7524  0.1552  1.1851
 7841SOL    HW224118   2.124   5.017   0.675  1.9161 -0.6431 -1.2861
 7842SOL     OW24119   6.990   2.529   7.163  0.3048  0.1716  0.2074
 7842SOL    HW124120   6.941   2.566   7.237  2.1611 -0.1427  1.6400
 7842SOL    HW224121   6.963   2.581   7.087 -1.8023  0.3546  1.0718
 7843SOL     OW24122   2.442   5.234   0.929  0.8580 -0.7113 -0.5778
 7843SOL    HW124123   2.411   5.183   0.854 -0.5707 -2.2325  1.0207
 7843SOL    HW224124   2.524   5.192   0.954  0.5675 -1.1241 -0.3333
 7844SOL     OW24125   6.130   2.053   0.354  0.3417  0.0764 -0.2016
 7844SOL    HW124126   6.119   2.037   0.261 -1.5600 -1.3134  0.2157
 7844SOL    HW224127   6.049   2.097   0.381  0.6098 -0.0758  0.8971
 7845SOL     OW24128   1.293   1.277   0.298  0.1876  0.3035 -0.4454
 7845SOL    HW124129   1.279   1.346   0.362  1.1914  0.4576 -0.3765
 7845SOL    HW224130   1.252   1.309   0.218  1.8870  1.6234 -0.8117
 7846SOL     OW24131   5.107   1.632   0.357 -0.2801 -0.1251  0.1845
 7846SOL    HW124132   5.068   1.707   0.401  0.7651 -0.3512  1.5329
 7846SOL    HW224133   5.118   1.567   0.426  2.7103  0.0355 -0.0747
 7847SOL     OW24134   3.828   6.048   6.963 -0.5290  0.0382 -0.2715
 7847SOL    HW124135   3.737   6.053   6.934 -1.1438 -0.6999  1.4386
 7847SOL    HW224136   3.879   6.054   6.883 -2.1397 -0.9817 -1.4129
 7848SOL     OW24137   4.192   3.594   1.914  0.5111 -0.3498 -0.4567
 7848SOL    HW124138   4.111   3.547   1.931  0.3046  0.3277  0.4696
 7848SOL    HW224139   4.206   3.647   1.992  1.8878 -0.5196 -0.5617
 7849SOL     OW24140   5.613   5.377   3.048 -0.3077  0.4433 -0.5345
 7849SOL    HW124141   5.544   5.329   3.094  0.0995 -0.3994 -0.8019
 7849SOL    HW224142   5.642   5.444   3.110  1.5118 -1.8469  1.1636
 7850SOL     OW24143   4.204   5.261   4.752 -0.0679  0.0815  0.1300
 7850SOL    HW124144   4.255   5.342   4.759  1.1237 -0.6492  0.1207
 7850SOL    HW224145   4.169   5.247   4.840  1.3240 -0.3990  0.6282
 7851SOL     OW24146   0.976   3.790   5.495 -0.0718 -0.3285  0.0042
 7851SOL    HW124147   1.018   3.722   5.548  0.2216  0.7655  1.1766
 7851SOL    HW224148   0.887   3.796   5.529 -0.3527 -0.6791 -0.6437
 7852SOL     OW24149   0.918   1.847   2.929 -0.1466  0.4368 -0.3423
 7852SOL    HW124150   0.882   1.808   3.009  0.7945  0.8450  0.2835
 7852SOL    HW224151   0.857   1.918   2.908  1.0006  2.0251  1.4982
 7853SOL     OW24152   6.852   2.561   2.992 -0.0840 -0.1071 -0.1138
 7853SOL    HW124153   6.778   2.608   3.029  0.5540 -0.3073  1.4354
 7853SOL    HW224154   6.890   2.622   2.929 -0.7802  0.4748  0.0241
 7854SOL     OW24155   3.809   4.966   2.134 -0.1614 -0.1065 -0.1924
 7854SOL    HW124156   3.843   4.895   2.189 -0.9060 -0.2737  0.0595
 7854SOL    HW224157   3.885   4.999   2.088  0.4461 -0.0760  0.8154
 7855SOL     OW24158   2.093   4.080   0.827 -0.3524 -0.2864 -0.2493
 7855SOL    HW124159   2.170   4.081   0.884 -1.3769  1.9400  1.1305
 7855SOL    HW224160   2.027   4.032   0.877 -1.2661  1.7044  0.4924
 7856SOL     OW24161   0.815   0.850   3.801  0.1089  0.1911  0.3652
 7856SOL    HW124162   0.885   0.841   3.865  0.4801 -0.9933 -0.1900
 7856SOL    HW224163   0.855   0.825   3.717 -1.1162 -1.1347  0.1420
 7857SOL     OW24164   3.026   3.898   2.711 -0.0611 -0.1688 -0.1660
 7857SOL    HW124165   3.045   3.865   2.623 -0.6101  0.5349 -0.5505
 7857SOL    HW224166   3.054   3.828   2.770  1.0856 -0.3089 -0.8667
 7858SOL     OW24167   2.150   2.059   1.879  0.4882  0.5627  0.3494
 7858SOL    HW124168   2.091   2.119   1.834 -0.2653  0.5125  1.2492
 7858SOL    HW224169   2.115   1.972   1.859  1.4198  0.4283 -0.7316
 7859SOL     OW24170   4.470   0.344   4.352  0.6286 -0.5753  0.4009
 7859SOL    HW124171   4.559   0.379   4.360  0.1801  0.8251 -0.5408
 7859SOL    HW224172   4.416   0.420   4.330 -0.7742 -1.4521  0.7163
 7860SOL     OW24173   4.900   6.499   3.263  0.2503  0.4165  0.3661
 7860SOL    HW124174   4.995   6.502   3.274  0.5598 -1.4999 -1.4899
 7860SOL    HW224175   4.875   6.412   3.296 -0.6930  0.4161 -0.3527
 7861SOL     OW24176   5.417   5.288   4.579 -0.2583 -0.2436 -0.5940
 7861SOL    HW124177   5.434   5.262   4.488 -0.1182  0.2403 -0.7071
 7861SOL    HW224178   5.333   5.334   4.575 -0.6073 -0.8645 -0.3605
 7862SOL     OW24179   5.589   3.363   3.717 -0.3037 -0.1672  0.1025
 7862SOL    HW124180   5.670   3.360   3.768  0.2618  1.7936 -0.6470
 7862SOL    HW224181   5.525   3.401   3.776  0.0745  1.0628 -0.2668
 7863SOL     OW24182   0.688   6.412   4.319  0.0986  0.3617 -0.2823
 7863SOL    HW124183   0.642   6.457   4.248  1.4153  2.3880  0.0834
 7863SOL    HW224184   0.781   6.417   4.294  0.3888 -0.8052  0.5362
 7864SOL     OW24185   0.844   1.489   5.176 -0.4923  0.2141 -0.3858
 7864SOL    HW124186   0.897   1.484   5.096  0.6386 -1.1929  0.4310
 7864SOL    HW224187   0.754   1.490   5.144 -0.1129 -2.0645 -1.6632
 7865SOL     OW24188   4.194   6.227   4.788  0.2197  0.2909 -0.4924
 7865SOL    HW124189   4.176   6.249   4.879  0.8682 -1.2102 -0.0053
 7865SOL    HW224190   4.239   6.143   4.791 -0.0729  0.0560 -2.2194
 7866SOL     OW24191   6.063   4.523   4.164  0.2486  0.0878  0.4575
 7866SOL    HW124192   6.049   4.601   4.110  0.0285 -0.1163  0.2172
 7866SOL    HW224193   6.045   4.450   4.105 -1.4169 -0.1279  1.1937
 7867SOL     OW24194   3.217   0.506   6.510  0.1008 -0.1035 -0.0065
 7867SOL    HW124195   3.185   0.594   6.487 -0.8667 -0.4042  0.1688
 7867SOL    HW224196   3.200   0.498   6.604 -0.6303 -0.8252 -0.2005
 7868SOL     OW24197   0.130   3.627   4.904  0.7982 -0.1410 -0.0948
 7868SOL    HW124198   0.120   3.535   4.881 -1.3750  0.3746 -1.3126
 7868SOL    HW224199   0.127   3.628   5.000  0.5149 -1.3085 -0.0874
 7869SOL     OW24200   3.693   1.650   6.225  0.6467 -0.4722 -0.2783
 7869SOL    HW124201   3.718   1.586   6.159  0.2077 -1.7257  0.7513
 7869SOL    HW224202   3.775   1.688   6.256  0.8836 -0.3027 -1.1292
 7870SOL     OW24203   6.514   2.079   6.805 -0.3204  0.9729  0.2776
 7870SOL    HW124204   6.557   2.096   6.721  0.1180  0.1329  0.3299
 7870SOL    HW224205   6.584   2.083   6.869 -0.1632 -1.2072  0.2690
 7871SOL     OW24206   7.126   4.848   2.085 -0.0966 -0.1890 -0.0113
 7871SOL    HW124207   7.170   4.932   2.098 -0.8206  0.3681 -1.0810
 7871SOL    HW224208   7.180   4.802   2.021  0.1489 -0.4214  0.3643
 7872SOL     OW24209   1.880   6.278   4.608  0.0390  0.6965  0.1819
 7872SOL    HW124210   1.959   6.239   4.570  0.3832  0.1098  1.4536
 7872SOL    HW224211   1.888   6.371   4.589  0.6683  0.5401 -0.3485
 7873SOL     OW24212   3.700   1.942   2.420 -0.3118 -0.0374  0.4663
 7873SOL    HW124213   3.731   2.028   2.392  1.7622 -1.1367 -0.7436
 7873SOL    HW224214   3.731   1.935   2.511 -0.4010  0.4290  0.5389
 7874SOL     OW24215   3.734   2.538   2.513 -0.1646  0.3911  0.3427
 7874SOL    HW124216   3.731   2.507   2.422 -1.5059 -2.5778  1.3082
 7874SOL    HW224217   3.823   2.518   2.542  0.1865  1.1049 -0.2290
 7875SOL     OW24218   7.184   3.031   7.041 -0.3895  0.3470 -0.0410
 7875SOL    HW124219   7.154   2.941   7.057  1.4904 -0.0581  1.2630
 7875SOL    HW224220   7.148   3.081   7.114 -1.2258  0.6385 -0.6347
 7876SOL     OW24221   2.503   4.946   1.063 -0.3691  0.1796 -0.4568
 7876SOL    HW124222   2.487   4.961   1.156  0.5044 -1.3645 -0.0500
 7876SOL    HW224223   2.417   4.949   1.023 -0.8657 -0.2731  0.5638
 7877SOL     OW24224   4.253   0.960   0.800 -0.5024  0.4478  0.5515
 7877SOL    HW124225   4.237   1.041   0.849  0.5087  0.9773  0.0275
 7877SOL    HW224226   4.183   0.957   0.735  0.3453  1.7062 -0.4329
 7878SOL     OW24227   4.205   3.410   2.729  0.4067 -0.4327 -0.0576
 7878SOL    HW124228   4.234   3.350   2.660  1.5177  0.1019 -0.0711
 7878SOL    HW224229   4.276   3.473   2.737  0.7072 -1.0513  2.2673
 7879SOL     OW24230   0.811   0.354   4.642 -0.0059 -0.0255 -0.9443
 7879SOL    HW124231   0.747   0.322   4.578  0.5559 -1.8632 -0.6119
 7879SOL    HW224232   0.879   0.396   4.590 -0.8390  0.7801 -1.3842
 7880SOL     OW24233   0.302   0.279   6.998  0.1445 -0.3662  0.5029
 7880SOL    HW124234   0.278   0.187   6.997 -0.2350 -0.2863 -1.6826
 7880SOL    HW224235   0.221   0.326   7.016  0.1376 -0.4159  0.5987
 7881SOL     OW24236   5.066   5.026   2.684  0.3428 -0.2019  0.0070
 7881SOL    HW124237   5.030   4.943   2.654  1.3029 -0.5482 -0.2062
 7881SOL    HW224238   4.990   5.084   2.690 -0.1697 -0.7514 -1.0101
 7882SOL     OW24239   4.012   5.548   3.721 -0.1243  0.0917  0.0792
 7882SOL    HW124240   3.972   5.626   3.761  0.7237  0.4313  0.2650
 7882SOL    HW224241   3.945   5.517   3.659 -0.2719  1.2780 -0.3873
 7883SOL     OW24242   6.765   4.398   2.321 -0.2736  0.4509  0.3449
 7883SOL    HW124243   6.834   4.399   2.255  0.1830 -0.4670  0.7844
 7883SOL    HW224244   6.767   4.485   2.360 -0.7310  1.0821 -1.0322
 7884SOL     OW24245   5.951   6.931   7.117 -0.0693 -0.2891  0.1877
 7884SOL    HW124246   5.907   7.016   7.104 -0.6062 -0.5890  0.0067
 7884SOL    HW224247   5.897   6.887   7.183  0.3910 -0.3659  0.5125
 7885SOL     OW24248   4.870   1.383   7.249  0.3168 -0.0817 -0.0585
 7885SOL    HW124249   4.821   1.465   7.260  2.3852  1.2335 -0.3913
 7885SOL    HW224250   4.907   1.389   7.161  1.8739 -0.6048  0.5404
 7886SOL     OW24251   3.960   1.408   5.253 -0.0377  0.1951 -0.3038
 7886SOL    HW124252   4.053   1.413   5.275 -0.2110  0.6042  0.3558
 7886SOL    HW224253   3.953   1.331   5.196  0.7205  0.2386 -0.4600
 7887SOL     OW24254   0.999   4.746   5.331 -0.7047  0.4899 -0.2558
 7887SOL    HW124255   0.923   4.736   5.388  0.0714 -1.9324  0.4011
 7887SOL    HW224256   1.068   4.777   5.390 -0.3508 -0.3888 -0.2046
 7888SOL     OW24257   0.429   7.234   7.243  1.0800  0.3352  0.0576
 7888SOL    HW124258   0.394   7.223   7.331  1.6025 -0.3370  0.1890
 7888SOL    HW224259   0.354   7.258   7.190  0.1438 -2.3595  0.0910
 7889SOL     OW24260   5.318   0.261   3.195 -0.1767 -0.4739  0.8216
 7889SOL    HW124261   5.266   0.181   3.183 -0.6380 -0.2833  1.5075
 7889SOL    HW224262   5.382   0.238   3.261 -2.5209  0.7279  3.6062
 7890SOL     OW24263   3.476   4.129   7.245 -0.2225  0.7829  0.1293
 7890SOL    HW124264   3.463   4.224   7.240 -1.1511  0.5743 -2.0609
 7890SOL    HW224265   3.535   4.110   7.171  1.4110 -0.1220  1.6312
 7891SOL     OW24266   4.714   1.115   5.207  0.3643 -0.4447 -0.0525
 7891SOL    HW124267   4.659   1.106   5.285  0.4935 -0.8006 -0.0021
 7891SOL    HW224268   4.673   1.058   5.142  1.1448 -1.3414  0.2475
 7892SOL     OW24269   0.562   0.217   4.458 -0.5847  0.3604  0.0532
 7892SOL    HW124270   0.524   0.220   4.546  1.2890  2.8863  0.8495
 7892SOL    HW224271   0.489   0.238   4.400 -1.1996  1.7778  1.2843
 7893SOL     OW24272   7.215   7.017   1.957 -0.1797  0.3558  0.1930
 7893SOL    HW124273   7.194   7.067   2.036  0.9904 -0.7845  1.2530
 7893SOL    HW224274   7.219   6.926   1.987  3.1139  0.1933 -0.5806
 7894SOL     OW24275   5.093   2.234   2.420 -0.1974 -0.6084  0.1611
 7894SOL    HW124276   5.105   2.318   2.465  1.6386 -0.6758 -0.1700
 7894SOL    HW224277   5.066   2.174   2.489  1.7380 -0.5054  1.0357
 7895SOL     OW24278   5.966   1.154   2.195 -0.5134 -0.0811  0.0802
 7895SOL    HW124279   6.042   1.095   2.188 -0.4687  0.0520 -0.5833
 7895SOL    HW224280   5.997   1.226   2.250 -0.1714 -0.0511 -0.1499
 7896SOL     OW24281   5.102   6.785   5.278 -0.0915 -0.0518  0.3618
 7896SOL    HW124282   5.155   6.724   5.329 -0.1726  0.1215  0.6495
 7896SOL    HW224283   5.072   6.850   5.341 -1.5821 -0.7843  0.4077
 7897SOL     OW24284   7.225   6.239   5.204 -0.0841 -0.1691 -0.0551
 7897SOL    HW124285   7.240   6.195   5.120  0.6386  0.7513 -0.4079
 7897SOL    HW224286   7.147   6.195   5.240  0.2325 -1.2857 -0.7095
 7898SOL     OW24287   0.621   4.596   0.530 -0.7343 -0.8625  0.0020
 7898SOL    HW124288   0.671   4.678   0.535  0.3617 -1.4455 -1.0214
 7898SOL    HW224289   0.585   4.596   0.442 -2.2385 -0.6410  0.6052
 7899SOL     OW24290   1.070   5.550   0.656  0.4068 -0.1633 -0.1069
 7899SOL    HW124291   1.029   5.612   0.716 -0.5890 -1.1473  0.2404
 7899SOL    HW224292   1.045   5.464   0.690  1.2115 -0.7495 -0.9751
 7900SOL     OW24293   1.800   6.225   1.482  0.2318 -0.1851 -0.2049
 7900SOL    HW124294   1.739   6.299   1.492  0.4603 -0.2191  1.4870
 7900SOL    HW224295   1.754   6.151   1.522  0.3769 -0.7654 -1.1035
 7901SOL     OW24296   0.794   2.798   5.712  0.0010  0.2330 -0.0378
 7901SOL    HW124297   0.781   2.704   5.722  4.2981 -0.3750  0.7382
 7901SOL    HW224298   0.774   2.815   5.620 -2.2805 -1.1188  0.1635
 7902SOL     OW24299   2.286   1.970   6.663  0.6129 -0.5333 -0.5373
 7902SOL    HW124300   2.268   1.881   6.692  0.8011 -0.6892 -0.9171
 7902SOL    HW224301   2.241   2.025   6.728  0.8249 -0.8942 -0.0852
 7903SOL     OW24302   1.274   3.467   3.909  0.2500 -0.3930 -0.1513
 7903SOL    HW124303   1.189   3.427   3.930  0.2902 -0.2637  0.2527
 7903SOL    HW224304   1.335   3.427   3.970  0.5490 -0.7475 -0.6801
 7904SOL     OW24305   1.997   6.226   1.298 -0.4115  0.3935 -0.1712
 7904SOL    HW124306   1.922   6.242   1.355  1.1124 -0.6763  2.2081
 7904SOL    HW224307   2.058   6.297   1.319  0.4630 -0.4266  0.0909
 7905SOL     OW24308   5.930   0.671   0.578  0.8040 -0.0087  0.5520
 7905SOL    HW124309   5.896   0.710   0.658 -0.3099  1.2138 -0.4820
 7905SOL    HW224310   5.882   0.588   0.569 -1.2737  1.2478 -0.3796
 7906SOL     OW24311   6.584   0.923   4.982 -0.7892 -0.1008 -0.3044
 7906SOL    HW124312   6.537   0.993   4.937  2.3398  1.9743 -0.5131
 7906SOL    HW224313   6.542   0.917   5.068 -0.5712  2.6562  0.0450
 7907SOL     OW24314   3.750   4.569   1.798  0.0662 -0.4396  0.0625
 7907SOL    HW124315   3.771   4.620   1.719  0.3545  0.1605  0.5244
 7907SOL    HW224316   3.827   4.581   1.854  0.1032 -1.3231  0.2062
 7908SOL     OW24317   1.352   5.987   6.697  0.1476  0.1206  0.8822
 7908SOL    HW124318   1.425   5.948   6.745  1.2039  1.7158  0.6183
 7908SOL    HW224319   1.315   6.051   6.758 -0.4036  0.0193  0.6539
 7909SOL     OW24320   5.611   1.582   3.785  0.2742 -0.1319 -0.2738
 7909SOL    HW124321   5.665   1.646   3.739 -0.7851  1.2027  0.3330
 7909SOL    HW224322   5.671   1.541   3.848  0.9602  0.2122 -0.6945
 7910SOL     OW24323   1.423   2.515   2.597  0.3918 -0.0607  0.0167
 7910SOL    HW124324   1.482   2.544   2.527 -0.0110 -0.8997 -0.6818
 7910SOL    HW224325   1.384   2.435   2.564 -0.4180 -0.0369  0.8805
 7911SOL     OW24326   3.561   6.137   6.607  0.4147  0.6288 -0.3756
 7911SOL    HW124327   3.483   6.085   6.621  1.5356 -1.0024 -0.0919
 7911SOL    HW224328   3.589   6.115   6.518  0.9022  0.7285 -0.2477
 7912SOL     OW24329   4.620   1.291   2.042 -0.1774 -0.3745  0.5421
 7912SOL    HW124330   4.653   1.207   2.073  0.8872 -0.4592 -0.7551
 7912SOL    HW224331   4.678   1.314   1.969  0.4401  2.1780  1.7945
 7913SOL     OW24332   7.015   4.414   4.729  0.7249 -0.0450 -0.0295
 7913SOL    HW124333   6.966   4.421   4.647  2.0242  2.5917 -0.6212
 7913SOL    HW224334   6.993   4.494   4.777  2.2508 -0.1843  0.9284
 7914SOL     OW24335   6.335   3.456   3.329  0.3023  0.4925 -0.1521
 7914SOL    HW124336   6.247   3.422   3.341  0.1424  0.8285 -0.3510
 7914SOL    HW224337   6.322   3.538   3.281  0.7464  0.3631 -0.4978
 7915SOL     OW24338   0.024   1.408   1.224  0.2656 -0.8419 -0.4152
 7915SOL    HW124339  -0.067   1.379   1.223  0.1919 -0.5987 -0.8567
 7915SOL    HW224340   0.021   1.498   1.256  0.6016 -1.6520  1.9978
 7916SOL     OW24341   1.528   6.733   3.434 -0.5818 -0.0026 -0.0848
 7916SOL    HW124342   1.501   6.755   3.346 -0.5419 -1.7748 -0.5638
 7916SOL    HW224343   1.450   6.744   3.488 -0.9851 -0.3861 -0.5998
 7917SOL     OW24344   5.065   0.860   0.386 -0.2277 -0.2872 -0.0331
 7917SOL    HW124345   4.983   0.814   0.366 -0.0776 -0.4118 -0.3668
 7917SOL    HW224346   5.042   0.953   0.379 -0.3489 -0.3211 -0.0962
 7918SOL     OW24347   6.914   5.966   1.979  0.1120  0.0689  0.3955
 7918SOL    HW124348   6.911   5.957   1.884 -1.7098  0.5165  0.4032
 7918SOL    HW224349   6.838   6.019   2.001 -0.3694 -1.3306  2.2489
 7919SOL     OW24350   3.524   4.596   0.670 -0.3952 -0.3768  0.2615
 7919SOL    HW124351   3.492   4.507   0.687  1.1854 -1.1186 -0.4967
 7919SOL    HW224352   3.563   4.624   0.752  0.8914 -1.1849 -0.0580
 7920SOL     OW24353   0.101   3.526   1.225  0.3668 -0.5900 -0.0380
 7920SOL    HW124354   0.158   3.535   1.302 -0.6659  1.7411  0.4840
 7920SOL    HW224355   0.017   3.498   1.260  0.5214 -1.7997 -0.5868
 7921SOL     OW24356   3.241   3.319   2.416  0.2011 -0.1593 -0.2107
 7921SOL    HW124357   3.158   3.275   2.436  0.2258  0.1920  0.6608
 7921SOL    HW224358   3.225   3.359   2.330  0.5167 -2.6885 -1.5180
 7922SOL     OW24359   5.530   0.111   3.023 -0.0964  0.0555 -0.1856
 7922SOL    HW124360   5.607   0.066   3.056 -0.9033 -0.2078  1.4039
 7922SOL    HW224361   5.545   0.204   3.044 -1.1092 -0.2392  2.0652
 7923SOL     OW24362   3.806   0.533   1.052  0.6079  0.2717 -0.2077
 7923SOL    HW124363   3.727   0.574   1.088  0.6581  1.9166 -1.8644
 7923SOL    HW224364   3.807   0.445   1.090 -1.0820  0.8103  1.1863
 7924SOL     OW24365   6.493   1.204   3.360  0.0282  0.3409  0.4007
 7924SOL    HW124366   6.579   1.172   3.386  0.5941  0.8666 -0.7750
 7924SOL    HW224367   6.471   1.153   3.282  0.1146  1.4844 -0.3894
 7925SOL     OW24368   6.203   2.064   5.216  0.2459  0.4638 -0.5617
 7925SOL    HW124369   6.197   2.016   5.298 -0.9944 -0.3142 -1.0842
 7925SOL    HW224370   6.285   2.113   5.222  1.4828 -1.6409  0.0402
 7926SOL     OW24371   6.057   2.835   0.402  0.0795  0.3203  0.0156
 7926SOL    HW124372   6.000   2.763   0.430 -0.2479 -0.1919 -1.9012
 7926SOL    HW224373   6.128   2.836   0.466 -2.3966  1.3809  2.8532
 7927SOL     OW24374   3.619   2.588   4.230  0.0956  0.0606 -0.1189
 7927SOL    HW124375   3.643   2.537   4.307  1.3376 -0.2717 -0.7052
 7927SOL    HW224376   3.561   2.531   4.180  0.5380 -0.3369 -0.1893
 7928SOL     OW24377   5.838   0.412   3.796 -0.5313 -0.5085  0.4522
 7928SOL    HW124378   5.841   0.316   3.790 -0.1834 -0.4135 -1.0286
 7928SOL    HW224379   5.884   0.432   3.878  1.6985 -1.4688 -0.5348
 7929SOL     OW24380   7.129   7.156   0.819 -0.0618 -0.4469  0.2893
 7929SOL    HW124381   7.214   7.112   0.824 -0.5100 -1.1939  1.5032
 7929SOL    HW224382   7.150   7.250   0.823  0.5322 -0.6618  3.7993
 7930SOL     OW24383   6.741   5.268   0.309  0.4436 -0.2817 -0.4676
 7930SOL    HW124384   6.785   5.282   0.225  0.9112 -1.4835 -0.4390
 7930SOL    HW224385   6.731   5.356   0.347  0.4904  0.2362 -1.6404
 7931SOL     OW24386   0.281   3.848   4.306 -0.2505  0.3648  0.0458
 7931SOL    HW124387   0.236   3.842   4.390  1.5383  0.1786  0.9942
 7931SOL    HW224388   0.319   3.761   4.292  0.4064  0.7196 -0.4272
 7932SOL     OW24389   0.420   1.225   4.137 -0.4190 -0.7556 -0.0084
 7932SOL    HW124390   0.341   1.277   4.148 -1.2037 -1.9559  0.0465
 7932SOL    HW224391   0.409   1.151   4.195  2.2019  0.6959  2.4627
 7933SOL     OW24392   1.887   4.242   4.937  0.4994  0.4814 -0.4134
 7933SOL    HW124393   1.956   4.177   4.950 -0.2124 -0.1908  0.0867
 7933SOL    HW224394   1.827   4.201   4.874  0.7700  1.2293 -1.1685
 7934SOL     OW24395   0.180   0.574   1.129  0.3196  0.0125 -0.1267
 7934SOL    HW124396   0.100   0.534   1.095  1.2382 -1.0761 -1.0476
 7934SOL    HW224397   0.150   0.631   1.199 -1.3433  0.2090 -0.9691
 7935SOL     OW24398   4.714   2.318   4.127 -0.2268  0.7794 -0.2361
 7935SOL    HW124399   4.675   2.232   4.146  0.1798  0.5046 -0.6364
 7935SOL    HW224400   4.708   2.365   4.210 -1.2725  0.6900 -0.2489
 7936SOL     OW24401   7.249   2.747   3.031  0.3590 -0.0466  0.1039
 7936SOL    HW124402   7.331   2.725   3.075  0.5615 -0.6682 -0.5739
 7936SOL    HW224403   7.190   2.675   3.052  0.6650 -0.6955 -1.1756
 7937SOL     OW24404   2.095   5.048   3.506 -0.5783  0.2606 -0.0266
 7937SOL    HW124405   2.093   5.024   3.598 -2.0123 -0.2789 -0.1936
 7937SOL    HW224406   2.017   5.007   3.468 -0.1927  0.7652 -1.4035
 7938SOL     OW24407   1.974   2.689   0.224  0.5033 -0.2447 -0.5809
 7938SOL    HW124408   1.898   2.746   0.222 -0.7161 -1.8657 -1.9162
 7938SOL    HW224409   1.992   2.677   0.318  0.2313  1.5853 -0.2900
 7939SOL     OW24410   6.537   5.113   4.694  0.3868 -0.6555 -0.3380
 7939SOL    HW124411   6.556   5.102   4.787 -0.3931 -0.6482 -0.1762
 7939SOL    HW224412   6.623   5.112   4.652  0.8205  0.3616  0.4884
 7940SOL     OW24413   1.981   3.954   1.830 -0.6504 -0.1264 -0.4352
 7940SOL    HW124414   1.993   3.940   1.736  0.1273 -0.4399 -0.2983
 7940SOL    HW224415   1.910   4.017   1.836 -1.5083 -0.9915 -1.2028
 7941SOL     OW24416   6.589   4.197   0.298  0.2598 -0.1176  0.0984
 7941SOL    HW124417   6.660   4.176   0.237 -0.7978  0.2787 -1.2935
 7941SOL    HW224418   6.568   4.114   0.340  0.2722 -0.6342 -0.8911
 7942SOL     OW24419   1.409   4.537   0.869  0.7306  0.4968  0.2774
 7942SOL    HW124420   1.373   4.474   0.930 -0.4997  0.7246 -0.1999
 7942SOL    HW224421   1.337   4.597   0.851  1.2890  0.8532 -0.8348
 7943SOL     OW24422   0.729   3.761   1.257  0.0459  0.2478  0.3402
 7943SOL    HW124423   0.771   3.777   1.173 -1.1416  0.8538 -0.1498
 7943SOL    HW224424   0.718   3.848   1.296  1.1459 -0.0747  1.4086
 7944SOL     OW24425   1.249   2.145   2.477 -0.2971  0.2420 -0.0815
 7944SOL    HW124426   1.196   2.095   2.415 -0.9367 -0.3735  0.9378
 7944SOL    HW224427   1.270   2.082   2.546 -0.7172  1.2533  0.9852
 7945SOL     OW24428   4.165   5.995   6.032 -0.1473 -0.5185  0.1839
 7945SOL    HW124429   4.168   6.037   6.117  0.2818 -1.9144  0.8656
 7945SOL    HW224430   4.192   5.905   6.048 -1.1866 -1.1028 -1.2307
 7946SOL     OW24431   0.202   0.790   3.947 -0.3626 -0.2857  0.3331
 7946SOL    HW124432   0.155   0.727   3.893  1.0630  0.6713 -2.1188
 7946SOL    HW224433   0.133   0.845   3.986 -1.3798 -0.6267 -0.9672
 7947SOL     OW24434   0.891   2.632   1.723 -0.0150 -0.8502  0.0074
 7947SOL    HW124435   0.863   2.561   1.665 -1.4922 -0.7572  0.5864
 7947SOL    HW224436   0.905   2.590   1.807 -2.1719 -0.2781  0.6955
 7948SOL     OW24437   2.451   5.327   6.771  0.8980  0.0107  0.0423
 7948SOL    HW124438   2.442   5.274   6.692  0.7016  0.8090 -0.4723
 7948SOL    HW224439   2.398   5.405   6.754 -0.0989 -0.3394  1.4245
 7949SOL     OW24440   6.713   2.272   1.235  0.2445  0.3896  0.7536
 7949SOL    HW124441   6.746   2.248   1.321  1.6744 -0.8511 -0.1265
 7949SOL    HW224442   6.739   2.363   1.224 -1.4174  1.0932  2.3119
 7950SOL     OW24443   5.558   0.879   7.022 -0.0292  0.7134  0.3777
 7950SOL    HW124444   5.641   0.833   7.013 -1.1500 -1.2666 -0.1674
 7950SOL    HW224445   5.538   0.912   6.935 -0.2393  0.4160  0.3110
 7951SOL     OW24446   2.906   3.777   1.148  0.5529 -0.3535  0.1663
 7951SOL    HW124447   2.851   3.701   1.132  0.1929 -0.3181  1.1996
 7951SOL    HW224448   2.916   3.780   1.243  0.0255  1.2612  0.1919
 7952SOL     OW24449   5.023   5.886   3.187 -0.6342  0.3178  0.4529
 7952SOL    HW124450   4.982   5.973   3.187 -1.7062 -0.1755  0.2568
 7952SOL    HW224451   5.111   5.901   3.221  0.1216  1.9217 -2.0641
 7953SOL     OW24452   2.170   0.798   0.617  0.1898  0.6033 -0.4232
 7953SOL    HW124453   2.139   0.753   0.696  1.0942 -1.7300 -1.3564
 7953SOL    HW224454   2.261   0.821   0.636  0.6194 -0.5688 -1.0226
 7954SOL     OW24455   3.522   6.609   2.228 -0.4222  0.0301 -0.0547
 7954SOL    HW124456   3.597   6.564   2.268 -0.6088  0.2910  0.5903
 7954SOL    HW224457   3.545   6.616   2.136 -0.3842 -1.4009 -0.1664
 7955SOL     OW24458   3.563   5.646   3.749 -0.1876 -0.2012  0.2786
 7955SOL    HW124459   3.492   5.598   3.706 -0.0224 -1.6520  1.5636
 7955SOL    HW224460   3.528   5.734   3.764 -0.4218  0.1843 -2.3159
 7956SOL     OW24461   2.982   3.732   0.144 -0.2088 -0.1509  0.1334
 7956SOL    HW124462   3.026   3.806   0.102  0.9093 -0.7996  0.1403
 7956SOL    HW224463   3.027   3.655   0.108 -0.8917 -0.7956  0.6649
 7957SOL     OW24464   2.855   4.853   7.137 -0.6407  0.2959 -0.0914
 7957SOL    HW124465   2.937   4.803   7.134 -1.1129 -0.5694  1.1251
 7957SOL    HW224466   2.799   4.809   7.073 -0.3781  0.4928 -0.4599
 7958SOL     OW24467   5.616   2.388   1.637  0.1000  0.4172  0.0183
 7958SOL    HW124468   5.648   2.346   1.717 -0.8510  2.0322  1.2749
 7958SOL    HW224469   5.609   2.317   1.574  0.2933 -0.9961  1.5484
 7959SOL     OW24470   2.209   2.022   4.355 -0.0558 -0.0113 -0.3742
 7959SOL    HW124471   2.220   1.954   4.421  0.6200  1.4151  1.0149
 7959SOL    HW224472   2.146   1.986   4.293  0.4916 -1.9997  0.1861
 7960SOL     OW24473   1.435   6.901   6.445  0.0434  0.6322 -0.1967
 7960SOL    HW124474   1.357   6.864   6.403  0.5778  0.0109 -0.6387
 7960SOL    HW224475   1.422   6.996   6.438 -0.9830  0.5305  0.3070
 7961SOL     OW24476   3.369   6.869   6.039 -0.0147 -0.1714  0.6133
 7961SOL    HW124477   3.387   6.788   5.992  0.2965  0.8223 -1.0428
 7961SOL    HW224478   3.437   6.929   6.010 -1.4433  1.3031  0.2026
 7962SOL     OW24479   3.731   1.111   3.606 -0.1566 -0.0511 -0.1205
 7962SOL    HW124480   3.675   1.080   3.677 -0.8915  0.1555 -0.6150
 7962SOL    HW224481   3.706   1.203   3.593 -0.3449 -0.2183 -0.9666
 7963SOL     OW24482   1.057   1.010   1.454  0.3531 -0.4258 -0.2086
 7963SOL    HW124483   1.133   0.965   1.416 -0.9104 -2.1430 -0.7833
 7963SOL    HW224484   1.072   1.006   1.548  1.4618  0.1255 -0.3515
 7964SOL     OW24485   1.733   5.551   0.748 -0.6463  0.0621  0.0734
 7964SOL    HW124486   1.777   5.507   0.675 -0.2007 -0.8582  0.8894
 7964SOL    HW224487   1.727   5.642   0.720 -0.8702 -0.3591 -1.3021
 7965SOL     OW24488   2.662   0.374   1.972 -0.0592  0.3661 -0.1344
 7965SOL    HW124489   2.566   0.379   1.976 -0.0944 -0.6185  0.7779
 7965SOL    HW224490   2.684   0.302   2.031  1.4017  2.1768  1.6099
 7966SOL     OW24491   6.281   3.055   3.827  0.4007 -0.5037 -0.2625
 7966SOL    HW124492   6.311   2.978   3.875  0.9747 -0.4205 -0.4879
 7966SOL    HW224493   6.210   3.023   3.771  0.2169 -0.7419  0.1064
 7967SOL     OW24494   3.006   6.116   4.599  0.2844 -0.3017 -0.7838
 7967SOL    HW124495   2.958   6.102   4.518  0.2501  0.9742 -1.0028
 7967SOL    HW224496   3.094   6.142   4.571 -0.5664  3.1995 -0.5208
 7968SOL     OW24497   4.954   0.703   2.393 -0.2750 -0.2552 -0.1070
 7968SOL    HW124498   5.003   0.636   2.347  0.2953 -0.6358  1.0462
 7968SOL    HW224499   4.868   0.664   2.409 -0.4368 -0.1618 -0.7529
 7969SOL     OW24500   4.747   0.590   3.097 -0.2403 -0.8804 -0.0419
 7969SOL    HW124501   4.778   0.671   3.139  2.1621 -0.8968 -1.6426
 7969SOL    HW224502   4.653   0.603   3.085 -0.0857  1.1990  0.7487
 7970SOL     OW24503   0.886   6.044   2.083  0.7904  0.1425  0.0256
 7970SOL    HW124504   0.886   5.991   2.163  2.2684  0.0779 -0.0097
 7970SOL    HW224505   0.927   6.126   2.108 -0.5804  0.9041 -0.1784
 7971SOL     OW24506   2.145   1.911   7.039  0.6934 -0.0407 -0.1732
 7971SOL    HW124507   2.121   1.820   7.023  0.9566 -0.3099  0.9820
 7971SOL    HW224508   2.062   1.959   7.030  0.1685 -0.6554  1.2759
 7972SOL     OW24509   1.856   6.603   0.707 -0.6410 -0.3030  0.5622
 7972SOL    HW124510   1.840   6.603   0.613 -1.1392  0.7786  0.6517
 7972SOL    HW224511   1.858   6.510   0.730 -2.8595 -0.5445 -0.1130
 7973SOL     OW24512   1.112   4.577   0.025 -0.2651 -0.1927 -0.0628
 7973SOL    HW124513   1.067   4.650  -0.017 -1.7649 -0.7104  0.5911
 7973SOL    HW224514   1.169   4.541  -0.043 -2.7556 -1.1132 -1.7425
 7974SOL     OW24515   6.896   5.792   0.732 -0.4953  0.2927  0.2139
 7974SOL    HW124516   6.861   5.802   0.643  2.9471  3.7583 -0.8933
 7974SOL    HW224517   6.843   5.851   0.785  0.7180  2.1635 -0.5981
 7975SOL     OW24518   1.381   4.895   4.226 -0.3478  0.0211  0.0604
 7975SOL    HW124519   1.418   4.845   4.298  0.3237  0.6188  0.1324
 7975SOL    HW224520   1.365   4.982   4.262  1.2382  0.7061 -0.8756
 7976SOL     OW24521   6.444   4.042   1.530 -0.2326 -0.3668 -0.3327
 7976SOL    HW124522   6.479   4.005   1.450 -0.1937 -0.2361 -0.3769
 7976SOL    HW224523   6.452   4.137   1.518 -1.9540 -0.2806 -0.9469
 7977SOL     OW24524   1.770   2.005   2.135 -0.1391 -0.4995 -0.0121
 7977SOL    HW124525   1.735   1.998   2.045  0.3376  1.4474 -0.3655
 7977SOL    HW224526   1.830   1.931   2.143 -0.2112 -0.7128 -1.2970
 7978SOL     OW24527   2.948   2.856   0.716 -0.3692 -0.2816  0.8209
 7978SOL    HW124528   2.948   2.936   0.663 -1.2013 -2.0158 -1.9108
 7978SOL    HW224529   2.856   2.832   0.723 -0.0219 -1.7893  0.3272
 7979SOL     OW24530   6.981   4.330   6.918 -0.0220 -0.0818  0.4353
 7979SOL    HW124531   6.985   4.346   7.013 -0.3358 -2.1834  0.8308
 7979SOL    HW224532   7.070   4.304   6.895  0.6449  2.7324 -0.3196
 7980SOL     OW24533   2.405   0.287   5.026  0.5019  0.4728 -0.0674
 7980SOL    HW124534   2.330   0.264   5.080  0.8617  1.5865  0.9356
 7980SOL    HW224535   2.371   0.345   4.959  0.5739  1.5517  0.8155
 7981SOL     OW24536   5.089   2.139   5.907  0.8781  0.1192 -0.0849
 7981SOL    HW124537   5.096   2.229   5.939 -0.8021  0.6064 -1.0258
 7981SOL    HW224538   5.171   2.098   5.933  1.7120  1.9554  0.2638
 7982SOL     OW24539   3.725   4.889   6.230  0.3502  0.0590 -0.1631
 7982SOL    HW124540   3.814   4.898   6.195  1.1811 -1.2068  1.5682
 7982SOL    HW224541   3.713   4.967   6.284  1.7371 -1.3720  2.3418
 7983SOL     OW24542   2.215   6.971   3.123 -0.9807 -0.2198 -0.1194
 7983SOL    HW124543   2.254   6.890   3.092 -0.7242 -0.1616  0.0481
 7983SOL    HW224544   2.230   6.969   3.218  0.4848  0.8027 -0.3151
 7984SOL     OW24545   3.876   0.870   2.728  0.0247 -0.3259 -0.0003
 7984SOL    HW124546   3.901   0.850   2.638 -0.8730 -0.2613 -0.2727
 7984SOL    HW224547   3.852   0.962   2.726 -1.1701 -0.6260  0.0281
 7985SOL     OW24548   0.454   2.095   2.605  0.1731  0.0070 -0.1336
 7985SOL    HW124549   0.549   2.096   2.608  0.1268 -0.4370  2.1318
 7985SOL    HW224550   0.431   2.004   2.589  0.0882 -0.4677  2.5154
 7986SOL     OW24551   4.222   0.656   3.913  0.1082 -0.1081  0.1737
 7986SOL    HW124552   4.131   0.658   3.940  0.2046  0.8072  0.4461
 7986SOL    HW224553   4.220   0.631   3.821 -0.4949  1.1353 -0.1544
 7987SOL     OW24554   3.927   5.911   0.433  0.0178  0.0403  0.4377
 7987SOL    HW124555   3.872   5.849   0.480 -0.3631  1.1474  1.4710
 7987SOL    HW224556   3.894   5.909   0.343  0.8308 -2.1663  0.1437
 7988SOL     OW24557   3.324   3.437   3.025 -0.3406  0.5180 -0.0655
 7988SOL    HW124558   3.237   3.446   3.062 -0.1332  1.0872  0.3009
 7988SOL    HW224559   3.368   3.520   3.048 -0.0491  0.6678 -1.1395
 7989SOL     OW24560   0.417   5.272   5.308  0.1042  0.1157  0.4677
 7989SOL    HW124561   0.394   5.339   5.244  0.5657 -1.7496 -1.6841
 7989SOL    HW224562   0.352   5.284   5.378 -0.1067  2.4836 -0.0937
 7990SOL     OW24563   0.775   0.223   0.691 -0.3262  0.4414  0.0428
 7990SOL    HW124564   0.712   0.226   0.762 -0.3378 -0.9830  0.0987
 7990SOL    HW224565   0.779   0.131   0.665 -1.0593  1.0486 -2.4496
 7991SOL     OW24566   7.216   4.808   5.389 -0.2613 -0.3718  0.0786
 7991SOL    HW124567   7.273   4.844   5.322 -0.6684  1.1260  0.5020
 7991SOL    HW224568   7.140   4.774   5.341 -0.4061  0.4083 -0.2441
 7992SOL     OW24569   3.860   7.112   0.219 -0.0861  0.2944  0.5848
 7992SOL    HW124570   3.908   7.188   0.188  2.3391 -0.5536  2.0552
 7992SOL    HW224571   3.880   7.108   0.313 -0.8055 -1.6841  0.6827
 7993SOL     OW24572   1.098   3.142   4.294  0.6308 -0.1106  0.1075
 7993SOL    HW124573   1.077   3.086   4.369 -1.1250  0.7068  0.2648
 7993SOL    HW224574   1.185   3.176   4.312  0.6031 -0.6638  1.3160
 7994SOL     OW24575   3.983   4.918   6.118  0.1861 -0.6672 -0.1826
 7994SOL    HW124576   4.032   4.915   6.036  0.0032 -0.0129 -0.3207
 7994SOL    HW224577   4.013   4.999   6.160 -0.7607 -0.2725 -0.2626
 7995SOL     OW24578   4.626   4.469   6.740  0.2295 -0.1808  0.2725
 7995SOL    HW124579   4.688   4.530   6.701  3.2076 -2.8191  0.6677
 7995SOL    HW224580   4.648   4.468   6.833 -1.0371 -0.4666  0.5865
 7996SOL     OW24581   5.885   0.331   6.464 -0.4380 -0.2195 -0.0205
 7996SOL    HW124582   5.896   0.287   6.549 -0.0994 -0.2958 -0.1031
 7996SOL    HW224583   5.895   0.262   6.399  0.3335  0.0212 -0.1594
 7997SOL     OW24584   2.489   0.470   3.790  0.1517  0.1361  0.0860
 7997SOL    HW124585   2.491   0.398   3.727 -0.8189  1.6300 -1.7153
 7997SOL    HW224586   2.493   0.428   3.875 -0.7346 -2.0666 -0.9299
 7998SOL     OW24587   6.161   4.763   5.153  0.5348  0.4285  0.4229
 7998SOL    HW124588   6.084   4.718   5.188  1.0554 -1.2110 -0.4394
 7998SOL    HW224589   6.197   4.811   5.227 -1.0075  0.7589  0.9661
 7999SOL     OW24590   0.812   1.056   4.477  0.1771 -0.8092 -0.1330
 7999SOL    HW124591   0.736   1.031   4.529 -0.3851  0.0744 -0.5129
 7999SOL    HW224592   0.852   0.973   4.452 -0.0012 -1.2600  1.0317
 8000SOL     OW24593   5.448   4.014   3.043 -0.0633 -0.4678 -0.3013
 8000SOL    HW124594   5.510   4.085   3.024 -0.5857  0.2020  0.4770
 8000SOL    HW224595   5.490   3.963   3.112  0.0698 -0.5912 -0.4750
 8001SOL     OW24596   0.198   1.140   2.225 -0.0230  0.4271  0.6056
 8001SOL    HW124597   0.208   1.107   2.314  1.6197  2.0325  1.0524
 8001SOL    HW224598   0.109   1.116   2.200  0.3904 -2.3849  1.6701
 8002SOL     OW24599   3.007   2.113   0.193  0.6069  0.6316 -0.2566
 8002SOL    HW124600   3.017   2.195   0.145  0.3894  0.0095 -1.3773
 8002SOL    HW224601   2.939   2.065   0.146  1.1230 -0.4358  0.0624
 8003SOL     OW24602   0.488   0.769   7.093  0.0553  0.0649  0.0530
 8003SOL    HW124603   0.574   0.764   7.051  1.3104 -0.2652  2.5750
 8003SOL    HW224604   0.450   0.850   7.059  0.4635 -0.8354 -2.6897
 8004SOL     OW24605   3.782   1.844   6.997  0.8286 -0.1408  0.4540
 8004SOL    HW124606   3.864   1.795   7.006  0.5121 -0.4221  2.0285
 8004SOL    HW224607   3.775   1.894   7.078 -0.0959  0.5907 -0.0672
 8005SOL     OW24608   6.742   5.725   3.898 -0.3786 -0.1618 -0.0319
 8005SOL    HW124609   6.783   5.804   3.933 -0.9967  0.7253 -1.2741
 8005SOL    HW224610   6.718   5.748   3.809 -1.1302 -1.5615 -0.2059
 8006SOL     OW24611   3.041   3.280   3.337 -0.1731  0.6718  0.1002
 8006SOL    HW124612   2.982   3.283   3.413 -0.0864 -0.2843  0.2201
 8006SOL    HW224613   3.128   3.299   3.373 -0.1086  0.0607  0.2700
 8007SOL     OW24614   4.690   0.218   1.359 -0.0886 -0.5534 -0.2482
 8007SOL    HW124615   4.680   0.129   1.325  1.5073 -1.5291  1.7132
 8007SOL    HW224616   4.784   0.228   1.373 -0.1675  1.7633 -1.2395
 8008SOL     OW24617   4.982   3.763   6.625 -0.0966  0.0877 -0.3610
 8008SOL    HW124618   4.991   3.688   6.568  0.1225  0.7288 -1.1817
 8008SOL    HW224619   4.920   3.735   6.692 -0.4405 -0.6377 -0.9743
 8009SOL     OW24620   6.032   2.784   3.446  0.1328 -0.0577 -0.1776
 8009SOL    HW124621   5.979   2.863   3.455  0.6356  0.1682  0.8934
 8009SOL    HW224622   6.010   2.732   3.524 -0.1198 -0.9364 -0.8193
 8010SOL     OW24623   4.860   3.481   2.268  0.1109 -0.0040  0.2392
 8010SOL    HW124624   4.779   3.430   2.264 -0.3707  0.7955 -0.6403
 8010SOL    HW224625   4.862   3.517   2.357 -0.1541 -0.5889  0.4804
 8011SOL     OW24626   7.001   7.006   2.459 -0.2349 -0.3074 -0.6134
 8011SOL    HW124627   7.087   6.986   2.497 -0.1866 -0.4689 -0.8121
 8011SOL    HW224628   7.013   7.093   2.420 -0.1687 -0.3208 -0.6239
 8012SOL     OW24629   2.031   3.962   2.259  0.9091 -0.2201 -0.6519
 8012SOL    HW124630   1.949   3.920   2.284  0.4673  0.9840 -0.0302
 8012SOL    HW224631   2.091   3.890   2.242  0.0342 -1.0950 -0.0492
 8013SOL     OW24632   1.609   4.205   2.030  0.0692  0.0428 -0.2782
 8013SOL    HW124633   1.660   4.273   1.986 -0.0211  0.8346  0.8172
 8013SOL    HW224634   1.557   4.252   2.095 -0.2760 -1.0360  0.2441
 8014SOL     OW24635   6.160   4.740   1.853 -0.1632 -0.0449  0.4461
 8014SOL    HW124636   6.170   4.831   1.827  0.5700 -0.1190  0.4761
 8014SOL    HW224637   6.125   4.697   1.775 -0.2714  0.2111  0.3541
 8015SOL     OW24638   5.517   6.104   0.767  0.4041 -0.0363 -0.1364
 8015SOL    HW124639   5.471   6.021   0.760  0.9206 -0.4806  1.5035
 8015SOL    HW224640   5.557   6.103   0.854  0.7786  1.7408 -0.2487
 8016SOL     OW24641   2.826   5.310   6.187 -0.2406  0.3853  0.2113
 8016SOL    HW124642   2.733   5.326   6.201 -0.3689 -0.2644  0.0913
 8016SOL    HW224643   2.842   5.339   6.097 -0.8884 -1.9531 -0.6915
 8017SOL     OW24644   5.913   3.501   4.677 -0.2863  0.2889  0.7350
 8017SOL    HW124645   5.973   3.489   4.750 -0.9564 -1.3519  1.0315
 8017SOL    HW224646   5.967   3.492   4.598 -0.2696 -2.0984  0.9819
 8018SOL     OW24647   0.897   1.866   3.904 -0.1933 -0.1068  0.2759
 8018SOL    HW124648   0.861   1.949   3.870  1.9025  0.6370 -0.2093
 8018SOL    HW224649   0.823   1.805   3.901 -0.9327  0.8231 -2.5932
 8019SOL     OW24650   5.022   4.968   2.990  0.7031  0.3081 -0.1498
 8019SOL    HW124651   4.975   5.013   2.920  1.7366  1.4235 -0.1216
 8019SOL    HW224652   5.016   4.875   2.966 -2.9520  0.2319  0.7101
 8020SOL     OW24653   6.335   6.761   0.753  0.2294 -0.1110 -0.1262
 8020SOL    HW124654   6.407   6.796   0.805 -0.4929  1.0266  0.1318
 8020SOL    HW224655   6.337   6.667   0.769  1.5056 -0.0500  0.0649
 8021SOL     OW24656   3.009   6.828   2.045  0.6002 -0.2384 -0.1551
 8021SOL    HW124657   3.072   6.763   2.077  1.9925  0.6861 -0.9715
 8021SOL    HW224658   2.967   6.786   1.971  1.7895 -0.0832 -0.9385
 8022SOL     OW24659   4.721   4.519   1.581  0.0352  0.2124  0.0919
 8022SOL    HW124660   4.758   4.503   1.668 -1.4013 -1.2148  0.4686
 8022SOL    HW224661   4.768   4.458   1.524  1.6978  1.8611 -0.3496
 8023SOL     OW24662   1.329   0.234   1.747  0.3060 -0.1463 -0.2303
 8023SOL    HW124663   1.348   0.312   1.800 -1.0798  0.3624 -0.4353
 8023SOL    HW224664   1.406   0.179   1.757  0.6335  0.5290  1.2436
 8024SOL     OW24665   2.489   0.311   3.543 -0.2581  0.0766 -0.3387
 8024SOL    HW124666   2.528   0.348   3.464 -0.4427 -2.1276 -1.4803
 8024SOL    HW224667   2.398   0.294   3.520 -0.5882  0.3517  0.6911
 8025SOL     OW24668   5.449   5.705   4.433 -0.3867  0.0067  0.3324
 8025SOL    HW124669   5.542   5.691   4.451 -0.5356 -0.6731  0.5999
 8025SOL    HW224670   5.404   5.659   4.504 -0.9281  0.4297  0.2699
 8026SOL     OW24671   3.831   4.059   3.342 -0.2663 -0.8950 -0.2665
 8026SOL    HW124672   3.913   4.093   3.308 -0.2674 -0.9962 -0.3713
 8026SOL    HW224673   3.847   4.048   3.436 -1.1194  1.9159  0.2609
 8027SOL     OW24674   0.118   6.070   6.677 -0.4348  0.4688  0.0991
 8027SOL    HW124675   0.136   6.034   6.590 -0.0339  0.5927  0.1270
 8027SOL    HW224676   0.166   6.153   6.678 -0.7312  0.6373  0.3092
 8028SOL     OW24677   1.090   5.200   3.210 -0.1792  0.8092  0.3199
 8028SOL    HW124678   1.165   5.141   3.203  0.0660  1.1754 -0.0704
 8028SOL    HW224679   1.015   5.146   3.184 -0.0086  0.5457  0.3727
 8029SOL     OW24680   3.220   0.544   5.998  0.3947 -0.3663  0.7556
 8029SOL    HW124681   3.254   0.634   6.002 -2.3643  0.7811  0.0602
 8029SOL    HW224682   3.223   0.522   5.905 -0.1841 -0.4525  0.7530
 8030SOL     OW24683   5.964   6.253   0.713 -0.0204  0.3216  0.0430
 8030SOL    HW124684   5.890   6.311   0.730 -1.0851 -1.0435  0.2032
 8030SOL    HW224685   6.003   6.239   0.800 -1.0142 -0.8157  0.3262
 8031SOL     OW24686   0.889   2.280   3.028  0.2716 -0.0484  0.1671
 8031SOL    HW124687   0.979   2.293   2.997  0.0773  2.2553  0.4595
 8031SOL    HW224688   0.882   2.337   3.105 -1.3332 -0.4844  0.3558
 8032SOL     OW24689   1.570   4.010   7.141 -0.1189 -0.0486  0.1959
 8032SOL    HW124690   1.613   3.925   7.144  2.2246  1.0919  0.6765
 8032SOL    HW224691   1.537   4.024   7.230 -1.7522 -1.0296 -0.2324
 8033SOL     OW24692   0.437   4.216   1.308 -0.2969  0.3507  0.2102
 8033SOL    HW124693   0.386   4.212   1.389 -1.2637  0.1303 -0.3958
 8033SOL    HW224694   0.470   4.306   1.304  0.7825  0.0290  1.4532
 8034SOL     OW24695   0.107   2.701   5.790  0.6331  0.4886 -0.4087
 8034SOL    HW124696   0.182   2.692   5.848 -0.1458  0.4976  0.6223
 8034SOL    HW224697   0.097   2.615   5.751 -0.8225 -0.4832  1.9835
 8035SOL     OW24698   2.685   0.151   3.890 -0.3136  0.0964  0.8077
 8035SOL    HW124699   2.729   0.184   3.968  1.1843 -3.3781  1.5627
 8035SOL    HW224700   2.629   0.080   3.922 -0.3648 -0.7961 -1.1556
 8036SOL     OW24701   0.798   2.332   1.281  0.3124 -0.1281  0.3855
 8036SOL    HW124702   0.796   2.239   1.258 -0.1466  0.5806 -2.6160
 8036SOL    HW224703   0.892   2.353   1.286  0.4288 -0.3595 -0.6719
 8037SOL     OW24704   2.885   6.485   4.399 -0.3259 -0.2507  0.0023
 8037SOL    HW124705   2.806   6.473   4.452 -0.1624 -0.4377  0.2021
 8037SOL    HW224706   2.900   6.580   4.400 -0.2774 -0.2632  0.3521
 8038SOL     OW24707   5.152   1.960   1.677  0.1064 -0.2030 -0.4460
 8038SOL    HW124708   5.067   1.970   1.633  0.2211  0.8222 -0.4412
 8038SOL    HW224709   5.202   2.037   1.650 -0.4495  1.4131  2.9539
 8039SOL     OW24710   6.020   4.613   1.639 -0.2368  0.0336  0.1270
 8039SOL    HW124711   5.954   4.619   1.709 -0.8030 -0.8968 -0.3249
 8039SOL    HW224712   5.999   4.687   1.582 -2.5306 -1.7103 -1.3942
 8040SOL     OW24713   3.116   6.267   3.312 -0.3447  0.3457 -0.4929
 8040SOL    HW124714   3.189   6.324   3.286 -0.9866  2.5036  2.2730
 8040SOL    HW224715   3.153   6.209   3.378 -0.4932 -0.3174 -0.9903
 8041SOL     OW24716   1.069   0.777   5.434 -0.0859 -0.4297  0.7103
 8041SOL    HW124717   0.978   0.793   5.458  0.8808  1.0355  3.6399
 8041SOL    HW224718   1.118   0.796   5.514  2.8785 -0.3188 -1.0819
 8042SOL     OW24719   5.401   3.434   3.893  0.4696  0.2219  0.2245
 8042SOL    HW124720   5.341   3.364   3.868  0.7609 -0.2978  0.9774
 8042SOL    HW224721   5.349   3.514   3.883 -0.5793 -0.2782  1.5439
 8043SOL     OW24722   1.225   5.921   2.611  0.0902  0.4950  1.0833
 8043SOL    HW124723   1.279   5.938   2.534 -0.4083  0.5713  0.7467
 8043SOL    HW224724   1.252   5.986   2.675 -1.0510  1.8938  0.1841
 8044SOL     OW24725   4.865   5.013   1.861 -0.2616  0.1642  0.2912
 8044SOL    HW124726   4.851   4.948   1.792  0.3655 -0.0872  0.4006
 8044SOL    HW224727   4.958   5.004   1.884  0.1113  1.8847 -0.4910
 8045SOL     OW24728   2.408   4.959   3.524  0.5798  0.4833 -0.2337
 8045SOL    HW124729   2.352   5.010   3.583  1.2778  1.9747 -0.8429
 8045SOL    HW224730   2.367   4.968   3.438  0.8901  0.2755 -0.4042
 8046SOL     OW24731   5.541   1.873   4.883  0.4023  0.4827  0.2630
 8046SOL    HW124732   5.595   1.938   4.929  1.4097  1.2810 -1.9794
 8046SOL    HW224733   5.451   1.906   4.894  0.6756  0.9973  1.0894
 8047SOL     OW24734   2.840   4.163   1.135  0.0578 -0.3988 -0.4509
 8047SOL    HW124735   2.816   4.096   1.200  1.7078  1.8019  2.5732
 8047SOL    HW224736   2.919   4.129   1.093  1.1840 -0.1888  1.4238
 8048SOL     OW24737   5.139   2.754   3.792 -0.2038 -0.3182  0.6106
 8048SOL    HW124738   5.094   2.698   3.854  0.6792 -0.7356  0.8833
 8048SOL    HW224739   5.196   2.809   3.845 -0.1262 -0.0437  0.2485
 8049SOL     OW24740   2.903   1.222   6.630  0.2411  0.3378  0.0637
 8049SOL    HW124741   2.807   1.227   6.639  0.2416  0.5387 -0.0558
 8049SOL    HW224742   2.921   1.257   6.543  0.3758 -0.2210 -0.1396
 8050SOL     OW24743   5.185   5.402   4.470 -0.4322  0.5324 -0.0315
 8050SOL    HW124744   5.149   5.467   4.410 -0.7447 -0.0008 -0.4248
 8050SOL    HW224745   5.124   5.328   4.464  0.6227 -0.3067 -0.5733
 8051SOL     OW24746   3.385   6.336   3.262  0.3191  0.1240 -0.2255
 8051SOL    HW124747   3.415   6.260   3.212 -1.9949  0.4628 -2.2143
 8051SOL    HW224748   3.391   6.409   3.200 -0.6432  0.9400  0.6162
 8052SOL     OW24749   0.429   6.062   4.633  0.1670 -0.1819 -0.1363
 8052SOL    HW124750   0.444   5.971   4.607  1.6618 -0.1477  0.5722
 8052SOL    HW224751   0.443   6.063   4.727 -3.2191  0.1036  0.4102
 8053SOL     OW24752   6.162   0.567   2.837 -0.6307  0.8222  0.0270
 8053SOL    HW124753   6.081   0.526   2.868 -0.8575  0.7775 -0.6078
 8053SOL    HW224754   6.182   0.521   2.756 -0.1841  1.1055 -0.0242
 8054SOL     OW24755   2.482   1.646   3.052  0.0377  0.4165  0.5203
 8054SOL    HW124756   2.470   1.563   3.099  0.4678  0.6017  0.9570
 8054SOL    HW224757   2.503   1.620   2.963 -1.0250  0.0615  0.3638
 8055SOL     OW24758   2.323   2.877   6.717 -0.3274 -0.0842 -0.1353
 8055SOL    HW124759   2.278   2.794   6.733 -0.0471 -0.6595 -2.1967
 8055SOL    HW224760   2.253   2.943   6.719 -1.0766 -0.7975 -1.8801
 8056SOL     OW24761   5.848   2.650   4.974 -0.1450 -0.4920 -0.1697
 8056SOL    HW124762   5.815   2.575   5.022 -0.3691  0.0329  0.5039
 8056SOL    HW224763   5.857   2.719   5.040  1.5055 -0.3689 -0.4953
 8057SOL     OW24764   5.738   0.029   1.692  0.0160 -0.2520  0.2312
 8057SOL    HW124765   5.755   0.123   1.700  0.9682 -0.4995  1.2477
 8057SOL    HW224766   5.825  -0.010   1.685 -0.3303 -1.1621  0.9858
 8058SOL     OW24767   7.127   5.368   2.685 -0.1260  0.3090 -0.4713
 8058SOL    HW124768   7.214   5.332   2.666 -0.4033 -1.4756  1.4323
 8058SOL    HW224769   7.066   5.300   2.655 -0.8493  1.1807 -1.0159
 8059SOL     OW24770   6.304   2.368   2.198 -0.1015 -0.2224  0.3839
 8059SOL    HW124771   6.346   2.408   2.123  0.4480 -0.0251  0.7927
 8059SOL    HW224772   6.374   2.319   2.242 -0.3497 -0.0897  0.9347
 8060SOL     OW24773   5.851   3.972   1.500 -0.1440  0.3522  0.2915
 8060SOL    HW124774   5.884   3.882   1.491  0.1654  0.3929  1.0110
 8060SOL    HW224775   5.928   4.024   1.522  0.0342  1.1381 -2.0545
 8061SOL     OW24776   5.499   5.955   6.638 -0.9131  0.2766  0.5759
 8061SOL    HW124777   5.496   5.902   6.717  0.7051  1.1997  1.2739
 8061SOL    HW224778   5.533   5.896   6.571  1.7879  0.6597  1.5674
 8062SOL     OW24779   3.267   2.908   4.596 -0.6078  0.2764  0.5498
 8062SOL    HW124780   3.213   2.871   4.666  0.6763 -1.1917  0.8001
 8062SOL    HW224781   3.338   2.953   4.641 -0.2855  0.1188  0.2060
 8063SOL     OW24782   4.693   3.519   5.204 -0.0043 -0.1612 -0.1126
 8063SOL    HW124783   4.777   3.475   5.211  0.0413 -0.1202 -0.4116
 8063SOL    HW224784   4.711   3.598   5.153 -0.1851 -0.0491 -0.0070
 8064SOL     OW24785   6.047   2.296   2.123  0.0541 -0.2993 -0.5347
 8064SOL    HW124786   6.134   2.306   2.162  0.1279  3.1813 -1.3915
 8064SOL    HW224787   6.036   2.374   2.068 -3.7629 -0.4580 -0.1690
 8065SOL     OW24788   5.818   3.988   5.676 -0.2992 -0.3501 -0.2958
 8065SOL    HW124789   5.911   3.998   5.656 -0.5193 -1.0872 -1.7526
 8065SOL    HW224790   5.809   4.019   5.766  0.9810  1.7179 -0.8600
 8066SOL     OW24791   5.948   3.561   6.636 -0.2024 -0.4355  0.2101
 8066SOL    HW124792   5.966   3.478   6.591  1.1107  0.3047 -0.6672
 8066SOL    HW224793   5.875   3.600   6.587 -0.1177 -0.5760 -0.0263
 8067SOL     OW24794   3.388   3.765   5.458 -0.2196 -0.2025  0.2057
 8067SOL    HW124795   3.456   3.740   5.520  1.2500  1.0558 -0.8481
 8067SOL    HW224796   3.393   3.860   5.454 -0.7342 -0.2229 -1.3324
 8068SOL     OW24797   5.220   2.750   1.200 -0.4996 -0.2156 -0.0687
 8068SOL    HW124798   5.218   2.666   1.246 -0.7687 -1.1727 -1.7893
 8068SOL    HW224799   5.138   2.792   1.224 -1.0925 -1.1405 -0.4421
 8069SOL     OW24800   2.773   4.839   1.556  0.4313 -0.6822  0.1228
 8069SOL    HW124801   2.843   4.875   1.502 -0.2572  0.0597 -0.2886
 8069SOL    HW224802   2.806   4.754   1.585  2.2907  0.4765  1.5336
 8070SOL     OW24803   0.357   6.593   6.872  0.2593 -0.3342  0.1342
 8070SOL    HW124804   0.288   6.566   6.811  0.0228 -0.4689  0.4614
 8070SOL    HW224805   0.438   6.562   6.832  0.1668  0.1700 -0.4479
 8071SOL     OW24806   2.512   1.747   1.970  0.3433 -0.0968 -0.1910
 8071SOL    HW124807   2.528   1.838   1.993 -0.3744  0.0235 -0.1763
 8071SOL    HW224808   2.418   1.742   1.952  0.3176 -0.9092  0.1474
 8072SOL     OW24809   0.429   5.379   2.050 -0.3166  0.0248  0.2439
 8072SOL    HW124810   0.524   5.390   2.060 -0.5528  2.3871  0.2839
 8072SOL    HW224811   0.412   5.399   1.958 -0.7521 -0.5780  0.1921
 8073SOL     OW24812   0.061   6.035   7.096 -0.1209 -0.4344 -0.1031
 8073SOL    HW124813  -0.021   5.990   7.116  0.2769 -1.2910 -0.3992
 8073SOL    HW224814   0.098   5.988   7.021  0.1770  0.5350 -0.5838
 8074SOL     OW24815   5.818   1.364   5.477  0.0754  0.5328  0.1070
 8074SOL    HW124816   5.733   1.385   5.439  0.3705  0.5760 -0.5256
 8074SOL    HW224817   5.800   1.354   5.571 -0.8351 -0.5555 -0.1665
 8075SOL     OW24818   3.722   5.442   4.871 -0.5342  0.5556  0.0141
 8075SOL    HW124819   3.697   5.506   4.804 -0.8212  1.0542  0.5974
 8075SOL    HW224820   3.818   5.447   4.875 -0.3676 -0.7623 -1.6355
 8076SOL     OW24821   7.059   1.407   3.937 -0.1208  0.4969 -0.4504
 8076SOL    HW124822   7.047   1.489   3.890 -1.0599  0.3837 -0.4105
 8076SOL    HW224823   6.970   1.378   3.958  0.2892  0.8337  1.8756
 8077SOL     OW24824   4.486   3.446   1.899 -0.5774  0.1020 -0.0144
 8077SOL    HW124825   4.522   3.535   1.901 -0.6244  0.2684 -3.3436
 8077SOL    HW224826   4.394   3.457   1.923 -0.0640  0.6063  1.8238
 8078SOL     OW24827   3.411   2.965   5.341 -0.4875 -0.1389 -0.1570
 8078SOL    HW124828   3.396   2.935   5.251 -0.0577  0.6426 -0.4900
 8078SOL    HW224829   3.324   2.994   5.370 -0.1878  1.8637 -1.1618
 8079SOL     OW24830   4.010   6.306   3.898 -0.0467  0.1428 -0.1178
 8079SOL    HW124831   4.095   6.307   3.855  0.1003 -1.1641  0.1068
 8079SOL    HW224832   3.947   6.300   3.826 -0.0373  2.7169 -0.3581
 8080SOL     OW24833   1.698   5.039   7.062 -0.4148  0.3100 -0.0330
 8080SOL    HW124834   1.791   5.064   7.065 -0.2460 -0.3952  0.7861
 8080SOL    HW224835   1.681   5.001   7.148 -1.3585  0.0495 -0.3344
 8081SOL     OW24836   1.456   0.860   1.022  0.9023  0.1430  0.3176
 8081SOL    HW124837   1.467   0.797   0.951  0.9379 -0.0232  0.4691
 8081SOL    HW224838   1.381   0.827   1.072  0.6987  0.4174  0.1902
 8082SOL     OW24839   5.887   4.654   0.167 -0.2084 -0.6608 -0.6694
 8082SOL    HW124840   5.812   4.648   0.108 -0.2802 -0.4309 -0.6031
 8082SOL    HW224841   5.849   4.672   0.253 -0.2297 -2.8245 -0.1852
 8083SOL     OW24842   4.241   5.596   2.866  0.0873 -0.7211 -0.1324
 8083SOL    HW124843   4.217   5.571   2.777  0.8744  0.5910 -0.7178
 8083SOL    HW224844   4.297   5.673   2.856  0.3421 -0.6707  1.4833
 8084SOL     OW24845   3.799   5.403   4.096 -0.3247 -0.4839  0.2552
 8084SOL    HW124846   3.740   5.469   4.060 -0.6675 -1.2636 -0.6133
 8084SOL    HW224847   3.874   5.403   4.036 -0.6688 -1.4181 -0.1902
 8085SOL     OW24848   3.517   2.864   1.467  0.0607 -0.2709  0.0428
 8085SOL    HW124849   3.466   2.934   1.427 -0.7374 -1.1603 -0.5256
 8085SOL    HW224850   3.576   2.908   1.528  1.1990  1.0993 -2.0059
 8086SOL     OW24851   0.284   1.879   5.111  0.0511  0.1355 -0.1821
 8086SOL    HW124852   0.197   1.918   5.101  0.1525  0.9342  1.7541
 8086SOL    HW224853   0.345   1.952   5.098  0.4009 -0.2204 -0.5661
 8087SOL     OW24854   4.909   1.959   4.919  0.0949  0.2643 -0.6368
 8087SOL    HW124855   4.894   2.035   4.975  0.3036  0.4455 -0.8274
 8087SOL    HW224856   4.956   1.897   4.974 -0.2521  0.1931 -0.4197
 8088SOL     OW24857   3.086   5.904   6.855 -0.1565  0.0830  0.0943
 8088SOL    HW124858   3.024   5.833   6.836  1.0490 -0.4311 -2.0847
 8088SOL    HW224859   3.165   5.858   6.885  0.0556  0.6036  0.3294
 8089SOL     OW24860   4.599   6.631   2.541 -0.0141  0.1985  0.0532
 8089SOL    HW124861   4.524   6.614   2.484  1.1268 -0.6085 -1.2208
 8089SOL    HW224862   4.632   6.543   2.563  0.5485  0.5511  0.6321
 8090SOL     OW24863   2.641   0.300   2.963  0.2997 -0.0072 -0.6261
 8090SOL    HW124864   2.551   0.327   2.947  0.6153  1.1610 -0.4324
 8090SOL    HW224865   2.651   0.219   2.913 -1.3526 -1.0356  0.6567
 8091SOL     OW24866   5.420   0.134   2.052  0.5291 -0.3059 -0.0583
 8091SOL    HW124867   5.403   0.047   2.087  0.8718  0.2342  1.4826
 8091SOL    HW224868   5.338   0.157   2.006 -0.5833 -0.3258  1.8702
 8092SOL     OW24869   0.393   3.888   1.230  0.2222  0.0288  0.1413
 8092SOL    HW124870   0.346   3.918   1.308  0.5383  1.5129 -0.2197
 8092SOL    HW224871   0.436   3.807   1.257  0.8404  0.8607  1.7163
 8093SOL     OW24872   1.062   7.075   6.820 -0.3026 -0.3042  0.2162
 8093SOL    HW124873   1.071   7.166   6.850  2.2258  0.0824 -1.5919
 8093SOL    HW224874   1.102   7.023   6.890  0.7612  0.1991 -0.0056
 8094SOL     OW24875   6.760   4.856   3.403  0.0130  0.4964  0.2516
 8094SOL    HW124876   6.776   4.817   3.317 -0.8965  1.5589 -0.4247
 8094SOL    HW224877   6.846   4.862   3.443  0.5757  0.8170 -0.9718
 8095SOL     OW24878   3.269   6.226   3.971  0.0073 -0.1290 -0.0530
 8095SOL    HW124879   3.239   6.310   3.938 -0.1343 -0.5280 -0.9310
 8095SOL    HW224880   3.196   6.194   4.024 -0.4424 -0.2896 -0.7625
 8096SOL     OW24881   1.558   0.842   6.416 -0.3386 -0.4548  0.3221
 8096SOL    HW124882   1.533   0.817   6.505 -1.5703  1.0886  0.4312
 8096SOL    HW224883   1.507   0.920   6.398  0.5183 -0.2799 -1.4539
 8097SOL     OW24884   7.022   5.118   0.477 -0.3663 -0.2813  0.9306
 8097SOL    HW124885   7.106   5.094   0.517 -0.4543 -3.3875 -0.5768
 8097SOL    HW224886   7.021   5.070   0.394 -2.6199  1.6096 -0.1695
 8098SOL     OW24887   2.758   4.892   4.707 -0.6246  0.2002  0.1088
 8098SOL    HW124888   2.703   4.886   4.629 -0.4188  0.7705 -0.0800
 8098SOL    HW224889   2.713   4.955   4.763 -0.1629  0.6727 -0.0500
 8099SOL     OW24890   4.220   4.254   7.236  0.2027 -0.5255  0.2808
 8099SOL    HW124891   4.128   4.253   7.264 -0.0271 -0.4840 -0.4635
 8099SOL    HW224892   4.270   4.263   7.318 -0.4535 -0.5367  0.6866
 8100SOL     OW24893   5.170   2.538   1.328 -0.3158 -0.4392  0.3574
 8100SOL    HW124894   5.098   2.477   1.316  0.7854 -1.9004  1.1088
 8100SOL    HW224895   5.190   2.535   1.422  1.5057 -0.9539 -0.0245
 8101SOL     OW24896   6.481   2.160   5.557 -0.1237 -0.4898 -0.1419
 8101SOL    HW124897   6.562   2.123   5.592  0.2124 -0.1656 -0.5715
 8101SOL    HW224898   6.507   2.245   5.520 -1.2120  1.0535  2.4787
 8102SOL     OW24899   0.725   3.440   2.268 -0.0747 -0.2297 -0.2545
 8102SOL    HW124900   0.766   3.381   2.205  0.5235 -0.7121  0.5682
 8102SOL    HW224901   0.796   3.463   2.329 -0.2400  1.5259 -0.6946
 8103SOL     OW24902   4.970   4.317   6.761 -0.5209  1.1101  0.4106
 8103SOL    HW124903   4.975   4.335   6.667 -0.3160  1.8501  0.5611
 8103SOL    HW224904   5.043   4.364   6.799  0.1416 -0.2160  0.8026
 8104SOL     OW24905   4.574   2.343   3.532  0.1521  0.5063  0.0223
 8104SOL    HW124906   4.614   2.260   3.506  0.3182 -0.0274  1.9066
 8104SOL    HW224907   4.635   2.410   3.502  0.8220 -0.1352 -0.0467
 8105SOL     OW24908   2.991   0.938   1.476 -0.2555 -0.1783 -0.2290
 8105SOL    HW124909   2.948   1.022   1.465  0.2382 -0.0425 -1.1864
 8105SOL    HW224910   3.073   0.947   1.428 -0.3934 -1.3484 -0.6965
 8106SOL     OW24911   6.875   1.087   2.325 -1.0530 -0.1769 -0.0329
 8106SOL    HW124912   6.922   1.006   2.306 -0.3118  0.8605 -2.7902
 8106SOL    HW224913   6.804   1.089   2.262 -0.4128  1.8302 -0.7244
 8107SOL     OW24914   0.143   1.267   1.426 -0.0192 -0.2851  0.6155
 8107SOL    HW124915   0.093   1.307   1.355 -0.7066  0.5883  1.5751
 8107SOL    HW224916   0.112   1.311   1.505  1.4552 -0.5437  1.3579
 8108SOL     OW24917   4.986   1.805   2.288  0.1126 -0.3742  0.3378
 8108SOL    HW124918   4.936   1.886   2.283  2.0860  0.9179  1.0257
 8108SOL    HW224919   5.021   1.792   2.200 -0.6198 -0.7448  0.1033
 8109SOL     OW24920   2.056   0.451   4.007  0.8156  0.2210 -0.2984
 8109SOL    HW124921   2.082   0.443   3.915 -0.1349 -0.5655 -0.5006
 8109SOL    HW224922   2.099   0.378   4.051 -0.9346 -1.0088 -0.6110
 8110SOL     OW24923   6.913   2.437   6.133 -0.3890  0.4336 -0.1979
 8110SOL    HW124924   6.862   2.356   6.132 -0.2415  0.3370  0.0741
 8110SOL    HW224925   7.004   2.408   6.126 -0.4077  0.6426 -1.3660
 8111SOL     OW24926   6.947   3.738   0.905 -0.1237 -0.1744  0.4603
 8111SOL    HW124927   6.889   3.801   0.947 -1.0890  2.1029 -3.9556
 8111SOL    HW224928   7.035   3.772   0.921 -0.4594  0.4904  0.8948
 8112SOL     OW24929   6.850   3.634   2.416 -1.1586 -0.7084 -0.3438
 8112SOL    HW124930   6.921   3.586   2.374 -0.3913 -0.8155  1.0430
 8112SOL    HW224931   6.832   3.708   2.358 -0.3799 -1.0689 -1.0399
 8113SOL     OW24932   2.885   2.478   3.020  0.0686 -0.2671 -0.7547
 8113SOL    HW124933   2.875   2.561   3.067 -2.1486  0.8219 -3.0677
 8113SOL    HW224934   2.960   2.492   2.962  2.2485 -1.3186  1.6618
 8114SOL     OW24935   4.528   1.286   0.395  0.1274  0.0123  0.2773
 8114SOL    HW124936   4.484   1.344   0.332 -0.7497  0.4730  1.3005
 8114SOL    HW224937   4.479   1.204   0.390 -0.5107  0.3404  0.9998
 8115SOL     OW24938   6.668   6.197   1.786 -0.0848 -0.3922  0.7537
 8115SOL    HW124939   6.759   6.224   1.796 -0.0213 -0.7281  1.1165
 8115SOL    HW224940   6.637   6.244   1.709  0.1815  0.2766  1.0479
 8116SOL     OW24941   6.384   1.593   5.621  0.4774 -0.0410 -0.5324
 8116SOL    HW124942   6.297   1.634   5.617 -0.1220 -1.1076  0.9127
 8116SOL    HW224943   6.443   1.658   5.585 -1.0196  0.4456 -2.1893
 8117SOL     OW24944   2.525   5.795   4.580 -0.4021 -0.2800 -0.1703
 8117SOL    HW124945   2.435   5.803   4.549  0.1042 -0.9530 -1.8565
 8117SOL    HW224946   2.564   5.881   4.563  0.5103 -1.3010 -3.5656
 8118SOL     OW24947   6.988   4.610   6.898 -0.1258  0.4366  0.8773
 8118SOL    HW124948   6.906   4.619   6.849  0.5825  1.1068 -0.1989
 8118SOL    HW224949   7.004   4.516   6.900 -0.7206  0.3290  0.7663
 8119SOL     OW24950   4.301   3.149   7.085 -0.2644  0.0162 -0.1796
 8119SOL    HW124951   4.244   3.075   7.106  0.5686 -0.3602  0.8187
 8119SOL    HW224952   4.359   3.116   7.017  0.7163 -0.5664  0.9144
 8120SOL     OW24953   6.151   5.228   2.099 -0.1176 -0.0751  0.8691
 8120SOL    HW124954   6.134   5.289   2.170 -0.2883  1.1938 -0.2333
 8120SOL    HW224955   6.182   5.283   2.027  0.3807 -1.3728  0.0729
 8121SOL     OW24956   5.573   0.406   0.481 -0.2897  0.6775  0.1509
 8121SOL    HW124957   5.498   0.352   0.506  1.0578 -1.6545 -0.7618
 8121SOL    HW224958   5.637   0.393   0.551  1.6701 -2.2406 -2.0909
 8122SOL     OW24959   2.308   1.907   1.109  0.0505 -0.0459  0.0024
 8122SOL    HW124960   2.250   1.962   1.161 -0.0223 -0.3495  0.2464
 8122SOL    HW224961   2.251   1.867   1.043 -0.2608 -1.2905  0.9944
 8123SOL     OW24962   6.667   6.371   5.723  0.1149 -0.0307  0.5196
 8123SOL    HW124963   6.726   6.300   5.700  1.8611  1.3794  0.5001
 8123SOL    HW224964   6.608   6.378   5.649  2.8678  1.5296 -1.6395
 8124SOL     OW24965   0.825   0.705   3.140  0.5810 -0.6134 -0.3145
 8124SOL    HW124966   0.757   0.643   3.115  0.2677  0.3711 -1.9706
 8124SOL    HW224967   0.777   0.778   3.180  1.0214 -1.8498  2.6114
 8125SOL     OW24968   3.614   4.015   6.035  0.1786 -0.4007  0.3317
 8125SOL    HW124969   3.623   3.924   6.064 -1.8248 -0.2232  1.5355
 8125SOL    HW224970   3.573   4.008   5.948  0.6139 -0.6658  0.1435
 8126SOL     OW24971   4.886   2.219   2.891 -0.3611  0.5536  0.0702
 8126SOL    HW124972   4.974   2.249   2.871  0.0964  0.1276  1.3910
 8126SOL    HW224973   4.860   2.269   2.969 -1.5590  1.1907 -0.7192
 8127SOL     OW24974   4.082   1.078   2.907 -0.2831 -0.2654  0.3848
 8127SOL    HW124975   4.130   1.067   2.989 -0.8164 -1.6138  0.5293
 8127SOL    HW224976   4.148   1.069   2.838 -0.0526 -0.4374  0.6325
 8128SOL     OW24977   5.956   5.198   5.144  0.1911 -0.1638 -0.6186
 8128SOL    HW124978   5.874   5.177   5.188 -0.0501  0.4220 -0.7825
 8128SOL    HW224979   5.970   5.291   5.161  0.8532 -0.2733 -0.5400
 8129SOL     OW24980   2.182   2.176   2.128 -0.2425 -0.3114  0.3243
 8129SOL    HW124981   2.201   2.134   2.045  1.9288  0.8652  0.2009
 8129SOL    HW224982   2.115   2.120   2.169 -2.3513 -0.1708 -2.7712
 8130SOL     OW24983   1.652   0.214   7.101  0.1898 -0.3331 -0.0032
 8130SOL    HW124984   1.730   0.218   7.156  0.1295 -0.7168  0.1124
 8130SOL    HW224985   1.683   0.240   7.014  0.2166  0.5965  0.2753
 8131SOL     OW24986   1.361   0.366   0.962 -0.7276  0.8767  0.4521
 8131SOL    HW124987   1.423   0.299   0.989 -0.1067 -0.1523 -3.3236
 8131SOL    HW224988   1.276   0.333   0.992 -0.4180 -1.5853 -1.2781
 8132SOL     OW24989   1.196   4.817   6.968 -0.1373  0.9484  0.4396
 8132SOL    HW124990   1.176   4.884   6.902  1.8691  1.6117  0.4901
 8132SOL    HW224991   1.268   4.854   7.019 -0.5328 -0.2890  1.9280
 8133SOL     OW24992   2.349   4.638   0.218 -0.4803  0.2058 -0.3269
 8133SOL    HW124993   2.309   4.580   0.153 -1.7057  1.4318 -0.6681
 8133SOL    HW224994   2.281   4.650   0.284 -0.5598  2.0369 -0.7419
 8134SOL     OW24995   0.472   3.303   0.478  0.8312  0.6360 -0.4992
 8134SOL    HW124996   0.423   3.368   0.529  1.0944 -1.4472  2.5325
 8134SOL    HW224997   0.404   3.247   0.440  0.7179  0.1109  0.4585
 8135SOL     OW24998   6.430   3.259   6.261 -0.2035 -0.0360 -0.3990
 8135SOL    HW124999   6.503   3.226   6.208 -0.3014 -0.1488 -0.4628
 8135SOL    HW225000   6.369   3.296   6.197 -0.9861 -1.4487 -0.4801
 8136SOL     OW25001   5.633   1.304   5.143 -0.1515 -0.5700  0.3806
 8136SOL    HW125002   5.603   1.312   5.052 -0.9307  1.3230  0.7833
 8136SOL    HW225003   5.725   1.278   5.135 -0.3099 -0.7854 -0.9496
 8137SOL     OW25004   6.729   2.862   6.931 -0.1190 -0.0294 -0.4812
 8137SOL    HW125005   6.722   2.803   6.856  0.1066  1.8635 -2.0039
 8137SOL    HW225006   6.695   2.946   6.899  0.8285  1.0350  1.2597
 8138SOL     OW25007   1.037   3.024   3.954 -0.0393 -0.6124 -0.1967
 8138SOL    HW125008   1.125   3.059   3.962 -0.6481  1.2085 -0.9657
 8138SOL    HW225009   1.041   2.965   3.878  0.3596  0.0373 -0.6890
 8139SOL     OW25010   4.141   4.238   3.472  0.4667 -0.2017 -0.1766
 8139SOL    HW125011   4.141   4.184   3.393 -0.6882  0.7204 -0.8373
 8139SOL    HW225012   4.222   4.289   3.466  0.4647 -0.2576 -0.6929
 8140SOL     OW25013   2.640   2.868   3.809 -0.3390  0.0751 -0.8149
 8140SOL    HW125014   2.723   2.900   3.845 -0.0701  0.0771 -1.4291
 8140SOL    HW225015   2.660   2.846   3.718 -1.0267  0.1261 -0.9813
 8141SOL     OW25016   0.850   5.524   5.424  0.5057 -0.4458  0.2497
 8141SOL    HW125017   0.840   5.587   5.495  1.0041 -0.8281  0.6610
 8141SOL    HW225018   0.874   5.577   5.348  0.0960 -0.0504  0.3985
 8142SOL     OW25019   0.992   6.363   0.916 -0.0451 -0.1162  0.1600
 8142SOL    HW125020   1.072   6.350   0.967 -0.5967  0.2104  1.1212
 8142SOL    HW225021   1.007   6.315   0.835  0.3687 -1.6274  1.1230
 8143SOL     OW25022   3.685   4.354   5.172  0.3482 -0.2257 -0.0916
 8143SOL    HW125023   3.776   4.335   5.149  0.2314 -1.7529  0.6936
 8143SOL    HW225024   3.634   4.285   5.129 -0.0790 -1.7480  2.7115
 8144SOL     OW25025   3.992   4.389   4.629  0.6083 -0.1900  0.0825
 8144SOL    HW125026   4.036   4.474   4.623  0.4178  0.1436  3.0397
 8144SOL    HW225027   3.915   4.405   4.684 -0.4590 -1.8904 -0.8661
 8145SOL     OW25028   3.091   3.904   7.043 -0.5007  0.2656  0.6411
 8145SOL    HW125029   3.169   3.909   7.099 -0.5446 -0.1395  0.7381
 8145SOL    HW225030   3.020   3.935   7.098 -0.5611 -0.2289  0.8451
 8146SOL     OW25031   0.289   2.691   4.526  0.0896  0.0443 -0.2430
 8146SOL    HW125032   0.342   2.661   4.600 -0.0337  0.7499  0.1368
 8146SOL    HW225033   0.324   2.777   4.504  0.8030 -0.6148 -1.6944
 8147SOL     OW25034   6.509   6.904   6.863  0.0170  0.2656 -0.1580
 8147SOL    HW125035   6.548   6.872   6.944 -0.7865  1.2603  0.6386
 8147SOL    HW225036   6.494   6.997   6.879 -0.3717  0.4176 -1.3566
 8148SOL     OW25037   6.012   4.228   0.908  0.4695  0.3285  0.4184
 8148SOL    HW125038   5.948   4.166   0.944  1.7425 -0.9777  0.4881
 8148SOL    HW225039   6.004   4.305   0.964 -0.6171 -0.0544  0.8104
 8149SOL     OW25040   2.095   2.154   1.461  0.0292 -0.1247 -0.0138
 8149SOL    HW125041   2.042   2.234   1.453  1.6618  1.1133  1.1304
 8149SOL    HW225042   2.056   2.108   1.536 -0.3617  0.0204 -0.1232
 8150SOL     OW25043   0.626   6.470   2.487  0.3276  0.7034 -0.0401
 8150SOL    HW125044   0.632   6.382   2.524 -2.3962  1.6269  2.7802
 8150SOL    HW225045   0.576   6.460   2.406  2.0857 -0.6326 -0.9914
 8151SOL     OW25046   7.236   6.166   1.784  0.5840 -0.0461  0.1892
 8151SOL    HW125047   7.271   6.162   1.873 -1.2751 -0.6100  0.9171
 8151SOL    HW225048   7.180   6.243   1.783  1.7186  0.7884 -0.9341
 8152SOL     OW25049   1.330   3.293   4.361  0.0466  0.2660  0.3355
 8152SOL    HW125050   1.308   3.385   4.346 -0.4043  0.3937  1.6950
 8152SOL    HW225051   1.334   3.284   4.456  2.2752 -0.6154  0.2002
 8153SOL     OW25052   4.970   3.837   3.502  0.0088 -0.0192 -0.3067
 8153SOL    HW125053   4.993   3.842   3.594  0.0801  2.0123 -0.4177
 8153SOL    HW225054   4.944   3.746   3.488 -0.6825 -0.1737  1.8777
 8154SOL     OW25055   4.059   3.224   4.212  0.0916  0.1908  0.3697
 8154SOL    HW125056   4.124   3.157   4.190  0.4966  0.5496  0.4504
 8154SOL    HW225057   4.011   3.239   4.131 -1.5218 -1.8268  0.9135
 8155SOL     OW25058   3.125   0.753   3.199  0.1743 -0.1684  0.0004
 8155SOL    HW125059   3.188   0.682   3.188  0.2426  0.0527 -1.0845
 8155SOL    HW225060   3.044   0.719   3.160  0.0863  0.1807 -0.1233
 8156SOL     OW25061   2.605   5.704   5.792 -0.4880  0.0440 -0.1949
 8156SOL    HW125062   2.659   5.629   5.768  1.0094  1.0627 -0.0440
 8156SOL    HW225063   2.616   5.714   5.886 -1.2998 -0.0067 -0.0862
 8157SOL     OW25064   5.406   2.106   6.055  0.0074  0.5106 -0.2600
 8157SOL    HW125065   5.412   2.185   6.109  3.1243  0.5179 -0.5574
 8157SOL    HW225066   5.335   2.055   6.096 -0.0978  2.1355  1.6685
 8158SOL     OW25067   4.570   5.753   7.064  0.1310 -0.1139 -0.4438
 8158SOL    HW125068   4.520   5.773   7.143  0.6787  0.7602 -0.3150
 8158SOL    HW225069   4.522   5.680   7.023  0.6232 -1.4961  1.3956
 8159SOL     OW25070   3.687   1.073   3.340  0.0801  0.1634  0.3672
 8159SOL    HW125071   3.614   1.011   3.345  1.9198 -2.0390  0.4596
 8159SOL    HW225072   3.693   1.110   3.428 -2.1322  1.8264 -0.1361
 8160SOL     OW25073   6.522   6.551   2.410 -0.1000 -0.3140  0.3221
 8160SOL    HW125074   6.441   6.529   2.365 -0.2346  0.5326  0.1281
 8160SOL    HW225075   6.591   6.529   2.347 -0.3421  2.0519 -0.8395
 8161SOL     OW25076   0.333   5.494   1.386  0.8243 -0.0937  0.1618
 8161SOL    HW125077   0.297   5.407   1.403  1.5015 -0.2448  0.8026
 8161SOL    HW225078   0.363   5.489   1.295  2.2761 -1.0164  0.6827
 8162SOL     OW25079   6.368   2.605   3.733  0.6155 -0.3056  0.0312
 8162SOL    HW125080   6.440   2.559   3.777  0.5703 -1.1582 -0.7792
 8162SOL    HW225081   6.292   2.549   3.748 -0.0157  0.8620  1.3576
 8163SOL     OW25082   5.857   5.028   2.224 -0.2019  0.0987  0.0022
 8163SOL    HW125083   5.947   5.015   2.194  0.2350  0.4183  1.1576
 8163SOL    HW225084   5.812   4.947   2.200  0.7552 -0.6713  0.7448
 8164SOL     OW25085   4.268   4.943   3.609 -0.3000  0.0222 -0.1458
 8164SOL    HW125086   4.334   4.928   3.542 -1.1801 -0.7328 -0.8556
 8164SOL    HW225087   4.283   5.033   3.638 -0.3812  0.5996 -1.8702
 8165SOL     OW25088   5.218   0.853   5.299  0.6063 -0.3878 -0.5863
 8165SOL    HW125089   5.134   0.896   5.315  0.5785 -0.9147  0.7472
 8165SOL    HW225090   5.255   0.899   5.223 -0.7689  0.0057 -1.0211
 8166SOL     OW25091   5.733   6.307   4.190 -0.3664  0.2407  0.0615
 8166SOL    HW125092   5.692   6.384   4.229 -0.2661  0.7066 -0.7421
 8166SOL    HW225093   5.679   6.234   4.220  0.5988  0.4236  2.3134
 8167SOL     OW25094   4.184   0.722   1.943  0.1041 -0.0646 -0.3691
 8167SOL    HW125095   4.278   0.733   1.960 -0.1742  1.1654  0.4700
 8167SOL    HW225096   4.153   0.811   1.926 -1.6055  0.1034  3.1157
 8168SOL     OW25097   4.517   2.948   1.294  0.0201 -0.0031  0.1629
 8168SOL    HW125098   4.514   2.863   1.251 -0.2306  0.1423 -0.1083
 8168SOL    HW225099   4.444   2.946   1.356  0.4729 -0.2702  0.6926
 8169SOL     OW25100   7.111   6.294   3.306  0.0792 -0.1595 -0.1149
 8169SOL    HW125101   7.127   6.384   3.334  0.2127 -0.3104  0.2995
 8169SOL    HW225102   7.016   6.285   3.308  0.1150 -0.3598  0.9055
 8170SOL     OW25103   0.617   2.124   3.481 -0.7398  0.1151  0.2400
 8170SOL    HW125104   0.644   2.137   3.390 -1.8512  1.2740  0.0493
 8170SOL    HW225105   0.629   2.210   3.522  0.0631 -0.4797  1.2818
 8171SOL     OW25106   1.212   7.181   0.993  0.6698 -0.1933  0.0976
 8171SOL    HW125107   1.133   7.128   1.007  1.5559 -1.6483 -0.3417
 8171SOL    HW225108   1.210   7.246   1.063 -0.2726 -1.0114  0.8424
 8172SOL     OW25109   2.382   1.217   2.328  0.2990  0.2075  0.7422
 8172SOL    HW125110   2.381   1.284   2.259  0.1012  1.5453  2.0115
 8172SOL    HW225111   2.304   1.165   2.312 -0.4641  1.3366  0.7405
 8173SOL     OW25112   0.927   3.636   0.140  0.3291  0.0244 -0.5699
 8173SOL    HW125113   0.958   3.580   0.069  1.7635 -0.1083  0.1411
 8173SOL    HW225114   0.911   3.576   0.213 -0.2728  0.2653 -0.5031
 8174SOL     OW25115   3.413   0.190   7.199  0.3051  0.2701 -0.1854
 8174SOL    HW125116   3.502   0.177   7.232  0.5085 -0.7417 -1.0841
 8174SOL    HW225117   3.398   0.115   7.141 -1.4340 -0.0168  0.5772
 8175SOL     OW25118   5.745   4.826   2.075  0.3296 -0.5544 -0.4777
 8175SOL    HW125119   5.763   4.737   2.104  0.6951 -0.3308 -0.0022
 8175SOL    HW225120   5.660   4.821   2.031 -0.9691 -0.6458  1.9284
 8176SOL     OW25121   4.819   3.829   1.666  0.2169  0.2720 -0.1654
 8176SOL    HW125122   4.876   3.765   1.709  1.0909  1.1417 -0.0270
 8176SOL    HW225123   4.774   3.873   1.739  0.7657  0.8828 -0.1980
 8177SOL     OW25124   7.179   3.027   3.044 -0.1808 -0.0877  0.2308
 8177SOL    HW125125   7.193   2.934   3.063  0.7216 -0.1093 -0.5544
 8177SOL    HW225126   7.267   3.065   3.039 -0.5551  1.0874  1.8462
 8178SOL     OW25127   5.130   6.796   2.186 -0.0579 -0.0894  0.2051
 8178SOL    HW125128   5.154   6.887   2.168  0.2954 -0.4726 -1.2910
 8178SOL    HW225129   5.136   6.752   2.101 -2.7234 -0.9577  0.3992
 8179SOL     OW25130   4.461   1.552   1.251  0.0967  0.3787  0.4967
 8179SOL    HW125131   4.553   1.576   1.253  0.2182 -0.0741  0.3759
 8179SOL    HW225132   4.444   1.528   1.160  0.2405 -0.9886  0.8195
 8180SOL     OW25133   5.472   2.298   6.691 -0.2027 -0.3552  0.7307
 8180SOL    HW125134   5.422   2.277   6.612  0.0358  1.6962  0.0126
 8180SOL    HW225135   5.541   2.357   6.660 -2.2733  3.4186  3.0079
 8181SOL     OW25136   6.545   4.852   0.104  0.1309  0.2740  0.0368
 8181SOL    HW125137   6.565   4.774   0.053  0.3348  1.9944 -2.6178
 8181SOL    HW225138   6.451   4.867   0.089  0.2054  0.8273  0.1041
 8182SOL     OW25139   6.460   0.847   7.105  0.1604 -0.2166  0.1158
 8182SOL    HW125140   6.473   0.898   7.025 -0.9957  2.4088  1.5477
 8182SOL    HW225141   6.541   0.858   7.155  1.1775 -2.4648 -0.9739
 8183SOL     OW25142   1.171   6.723   0.931  0.1309  0.3207  0.6678
 8183SOL    HW125143   1.229   6.778   0.983 -0.3025  2.4297 -1.0305
 8183SOL    HW225144   1.229   6.661   0.887  0.8173  0.7008  1.0383
 8184SOL     OW25145   5.698   4.664   7.094  0.0727  0.3325  0.0825
 8184SOL    HW125146   5.635   4.729   7.064 -0.4298  0.8242  2.1504
 8184SOL    HW225147   5.651   4.581   7.088  0.8253  0.0810 -2.8780
 8185SOL     OW25148   6.267   0.439   1.661 -0.1961  0.1761  0.3414
 8185SOL    HW125149   6.281   0.454   1.568 -2.6616 -1.6635 -0.3798
 8185SOL    HW225150   6.176   0.409   1.667  0.4558 -1.4118  3.1255
 8186SOL     OW25151   3.268   4.791   7.023  0.3340 -0.3395  0.0506
 8186SOL    HW125152   3.313   4.779   7.107 -1.3316 -0.2205  0.9739
 8186SOL    HW225153   3.212   4.714   7.014 -1.4876  0.9235  0.3338
 8187SOL     OW25154   3.703   6.695   6.031 -0.1527  0.4917 -0.2287
 8187SOL    HW125155   3.691   6.655   6.117 -0.4564  1.0891  0.0061
 8187SOL    HW225156   3.641   6.648   5.975 -1.6801  1.7273  0.3984
 8188SOL     OW25157   4.391   1.181   6.954  0.7457  0.5003  0.2000
 8188SOL    HW125158   4.318   1.131   6.990  1.4864 -2.1648 -1.8248
 8188SOL    HW225159   4.351   1.240   6.890  0.1509  0.5232  0.5930
 8189SOL     OW25160   2.933   1.152   1.883  0.4089 -0.4696 -0.7222
 8189SOL    HW125161   2.868   1.117   1.821 -0.4156  0.7664 -0.5631
 8189SOL    HW225162   3.014   1.155   1.832 -0.6437  2.2219 -2.3551
 8190SOL     OW25163   1.545   1.728   0.708  0.3645 -0.2481  0.1434
 8190SOL    HW125164   1.484   1.709   0.638  2.3158  1.0645 -2.0003
 8190SOL    HW225165   1.518   1.814   0.741  2.2565  1.3317 -2.2525
 8191SOL     OW25166   6.139   6.710   1.231 -0.2630  0.0719  0.5394
 8191SOL    HW125167   6.081   6.676   1.300 -0.4238  0.5148  0.6209
 8191SOL    HW225168   6.201   6.639   1.216  0.3776  0.3351  1.8347
 8192SOL     OW25169   4.455   6.656   3.229 -0.4646  0.1329  0.3146
 8192SOL    HW125170   4.424   6.746   3.222  0.3151  0.3658 -0.2810
 8192SOL    HW225171   4.551   6.664   3.233 -0.3524 -0.6993 -0.5074
 8193SOL     OW25172   5.888   1.324   3.286  0.4299  0.3264  0.7232
 8193SOL    HW125173   5.811   1.293   3.334 -0.7059  2.0405  0.0673
 8193SOL    HW225174   5.927   1.245   3.248 -1.5580 -0.4576  0.2817
 8194SOL     OW25175   6.864   2.852   0.150  0.3008  0.2163  0.5810
 8194SOL    HW125176   6.816   2.791   0.094  1.7415  0.1237 -0.5857
 8194SOL    HW225177   6.797   2.913   0.180 -0.2837  1.3332 -2.6975
 8195SOL     OW25178   6.972   0.840   2.055 -0.6809 -0.3274  0.1884
 8195SOL    HW125179   6.981   0.907   1.987 -0.9384 -0.0453  0.4310
 8195SOL    HW225180   7.036   0.865   2.122  0.4985 -1.3380 -0.5399
 8196SOL     OW25181   3.019   6.235   3.723  0.1086  0.3417  0.2865
 8196SOL    HW125182   2.956   6.205   3.657 -0.1042 -1.1848  1.1712
 8196SOL    HW225183   3.063   6.309   3.681 -0.8818  0.1772 -1.0997
 8197SOL     OW25184   2.920   0.800   5.580  0.0896 -0.0336  0.8545
 8197SOL    HW125185   2.844   0.825   5.632  0.2430 -0.4761  1.3001
 8197SOL    HW225186   2.883   0.761   5.500 -0.1484 -0.4037  1.1470
 8198SOL     OW25187   5.380   2.646   3.024  0.5203  0.5653 -0.0515
 8198SOL    HW125188   5.396   2.736   3.052  2.9211  0.3866 -0.7688
 8198SOL    HW225189   5.411   2.592   3.096 -1.6720  0.2978  0.7249
 8199SOL     OW25190   1.078   4.791   2.052 -0.1302 -0.2879  0.2582
 8199SOL    HW125191   1.146   4.735   2.014  0.8028  0.3660  0.9227
 8199SOL    HW225192   0.996   4.745   2.034  0.5438 -1.4206  0.0217
 8200SOL     OW25193   1.584   0.997   2.108 -0.1684 -0.1111  0.5617
 8200SOL    HW125194   1.597   0.904   2.096  1.9812  0.2824 -0.2513
 8200SOL    HW225195   1.623   1.017   2.193 -2.1216 -0.2167  1.5280
 8201SOL     OW25196   3.100   3.574   2.575  0.2118 -0.0539  0.3845
 8201SOL    HW125197   3.121   3.481   2.570  1.9749  0.2669  1.3393
 8201SOL    HW225198   3.111   3.596   2.668  2.1080  1.5937 -0.1920
 8202SOL     OW25199   5.710   6.983   5.855 -0.2415 -0.1646 -0.3784
 8202SOL    HW125200   5.700   7.043   5.929 -0.2349  0.3746 -0.8093
 8202SOL    HW225201   5.668   7.028   5.782  0.1402 -0.4990 -0.8075
 8203SOL     OW25202   5.896   0.034   5.428  0.1597  0.0037 -0.0594
 8203SOL    HW125203   5.806   0.064   5.440  0.5108  1.0525 -0.0032
 8203SOL    HW225204   5.930   0.028   5.518 -0.1767 -1.4434 -0.0091
 8204SOL     OW25205   5.032   0.440   0.911  0.2960 -0.9225 -0.1320
 8204SOL    HW125206   4.948   0.484   0.918  0.3070 -1.1436  1.4625
 8204SOL    HW225207   5.030   0.399   0.824 -0.6782  0.1942 -0.6492
 8205SOL     OW25208   0.624   5.134   3.883  0.7581  0.1660 -0.3015
 8205SOL    HW125209   0.664   5.098   3.962 -0.3475  1.0908  0.6852
 8205SOL    HW225210   0.627   5.228   3.894  0.2434  0.2976 -1.1863
 8206SOL     OW25211   1.644   6.250   5.215 -0.2678 -0.2253  0.1976
 8206SOL    HW125212   1.555   6.278   5.232 -1.1130 -2.1269 -0.8768
 8206SOL    HW225213   1.658   6.267   5.121  0.0960 -0.9705  0.1096
 8207SOL     OW25214   3.515   0.326   2.428  0.2460  0.3293  0.3494
 8207SOL    HW125215   3.587   0.380   2.395 -0.6867  2.7072  2.0333
 8207SOL    HW225216   3.448   0.334   2.360  0.5193  0.4132  0.0850
 8208SOL     OW25217   5.395   0.975   0.910 -0.0388  0.0556  0.1381
 8208SOL    HW125218   5.380   0.886   0.942  1.3646 -0.8158 -1.5380
 8208SOL    HW225219   5.408   0.965   0.816  2.7479  1.6640  0.2809
 8209SOL     OW25220   4.783   6.549   2.129 -0.0096  0.2956 -0.0980
 8209SOL    HW125221   4.867   6.518   2.094 -0.2744  0.2451 -0.6911
 8209SOL    HW225222   4.741   6.471   2.164  0.3921  0.3977  0.6209
 8210SOL     OW25223   5.041   2.311   3.189 -0.2209  0.0940 -0.0798
 8210SOL    HW125224   4.995   2.228   3.194 -0.2009  0.1515  1.3920
 8210SOL    HW225225   4.974   2.374   3.163 -0.8709  0.0687  1.4397
 8211SOL     OW25226   4.151   6.142   1.688  0.7801  0.2404  0.4242
 8211SOL    HW125227   4.224   6.082   1.703  0.8489 -0.2237 -1.5942
 8211SOL    HW225228   4.130   6.131   1.595 -2.4908 -0.3387  1.1826
 8212SOL     OW25229   4.127   2.372   2.921 -0.2944 -0.1343 -0.0294
 8212SOL    HW125230   4.144   2.367   2.827  0.6387  1.6596  0.0234
 8212SOL    HW225231   4.167   2.455   2.948 -0.3436 -0.7451  1.9910
 8213SOL     OW25232   5.172   7.181   4.532  0.0460  0.4759 -0.4210
 8213SOL    HW125233   5.227   7.115   4.575 -2.1129 -0.1626  1.4596
 8213SOL    HW225234   5.135   7.137   4.456 -1.0679 -0.3779  0.6042
 8214SOL     OW25235   1.813   4.177   1.735  0.1614 -0.1005 -0.2268
 8214SOL    HW125236   1.861   4.253   1.768 -0.7463  0.4945 -0.2882
 8214SOL    HW225237   1.766   4.209   1.658  0.5276 -0.9595 -0.8294
 8215SOL     OW25238   0.409   0.606   5.848 -0.0519  0.2992 -0.2993
 8215SOL    HW125239   0.477   0.647   5.795 -0.9471  1.6991 -0.4085
 8215SOL    HW225240   0.336   0.592   5.788 -1.1642  2.1178  0.5857
 8216SOL     OW25241   4.275   6.033   7.078 -0.0813 -0.3765 -0.4289
 8216SOL    HW125242   4.254   6.032   7.172  0.2731  0.3678 -0.3420
 8216SOL    HW225243   4.208   5.977   7.039 -0.7888  0.0358  0.1546
 8217SOL     OW25244   2.142   4.430   3.987 -0.8079  0.2253 -0.4980
 8217SOL    HW125245   2.227   4.436   3.944 -0.2521 -1.5703  0.3135
 8217SOL    HW225246   2.086   4.491   3.938  1.3335  2.7057  0.0066
 8218SOL     OW25247   6.224   3.725   3.258  0.1419 -0.2501 -0.1793
 8218SOL    HW125248   6.144   3.753   3.303  0.4005  0.3908 -0.1224
 8218SOL    HW225249   6.289   3.791   3.281  0.8188 -1.0177  0.1494
 8219SOL     OW25250   4.157   5.799   6.923  0.1477 -0.4111 -0.3382
 8219SOL    HW125251   4.182   5.712   6.893  2.6439 -0.1272  0.7647
 8219SOL    HW225252   4.182   5.857   6.851  0.9559 -0.3175  0.0216
 8220SOL     OW25253   2.886   6.609   6.024  0.0418 -0.2221  1.1570
 8220SOL    HW125254   2.857   6.697   6.047 -1.5028 -0.5161  0.3922
 8220SOL    HW225255   2.941   6.582   6.097  0.8294  1.5187  1.2188
 8221SOL     OW25256   5.457   2.398   0.536  0.5149  0.8498  0.5012
 8221SOL    HW125257   5.462   2.436   0.448 -2.6182  0.8003  0.2213
 8221SOL    HW225258   5.408   2.463   0.587 -0.6126 -0.5850  1.2903
 8222SOL     OW25259   5.232   4.037   5.310  0.2778 -0.0550  0.6867
 8222SOL    HW125260   5.290   4.111   5.327  0.5681 -0.5226  1.7704
 8222SOL    HW225261   5.230   3.989   5.393 -0.3992 -0.9163  0.1745
 8223SOL     OW25262   5.860   6.754   6.140  0.4727  0.1465  0.1482
 8223SOL    HW125263   5.875   6.778   6.048 -3.3595 -0.8477 -0.8642
 8223SOL    HW225264   5.826   6.834   6.180  1.3671  0.3546  0.4913
 8224SOL     OW25265   5.805   6.450   0.536  0.3467  0.0207  0.1453
 8224SOL    HW125266   5.792   6.356   0.526  0.9800  0.0267 -0.7847
 8224SOL    HW225267   5.900   6.461   0.545  0.2359  0.5295  0.7958
 8225SOL     OW25268   2.520   4.304   3.095  0.9048  0.3288  0.0339
 8225SOL    HW125269   2.584   4.371   3.122  0.4324  0.2464  1.4361
 8225SOL    HW225270   2.560   4.261   3.020  1.9093  1.1654  0.0768
 8226SOL     OW25271   6.435   6.510   0.825  0.0207 -0.8218 -0.3330
 8226SOL    HW125272   6.426   6.475   0.736  1.6965 -1.5356 -0.2470
 8226SOL    HW225273   6.519   6.475   0.856  0.0190  0.3862  1.0952
 8227SOL     OW25274   2.648   5.052   6.953 -0.0844 -0.5046 -0.1905
 8227SOL    HW125275   2.694   5.013   7.028  0.5951 -0.7671 -0.7350
 8227SOL    HW225276   2.697   5.021   6.877 -0.1119  0.6487 -0.6810
 8228SOL     OW25277   4.498   5.149   0.291  0.2175  0.4370  0.1568
 8228SOL    HW125278   4.523   5.232   0.251  0.0929 -0.1541 -1.1953
 8228SOL    HW225279   4.478   5.092   0.216 -0.7351 -0.4762  1.0855
 8229SOL     OW25280   7.090   1.371   2.178  0.4034  0.2272 -0.0620
 8229SOL    HW125281   7.115   1.459   2.151 -0.0138  0.5120  0.4632
 8229SOL    HW225282   7.064   1.381   2.270  1.6576 -0.6892  0.4143
 8230SOL     OW25283   1.125   1.844   1.589  0.2560  0.1013  0.6683
 8230SOL    HW125284   1.216   1.873   1.590  0.4511 -0.4576 -0.1436
 8230SOL    HW225285   1.077   1.916   1.547  0.7639 -0.7969 -1.4925
 8231SOL     OW25286   1.129   1.437   2.008  0.2678  0.0583  0.3324
 8231SOL    HW125287   1.200   1.481   2.056 -1.0386  1.3051  1.1634
 8231SOL    HW225288   1.108   1.497   1.937  1.1052 -1.0545 -0.8932
 8232SOL     OW25289   1.365   2.482   0.596  0.1942  0.2451 -0.7097
 8232SOL    HW125290   1.389   2.418   0.529  0.8942  1.1507 -1.3509
 8232SOL    HW225291   1.435   2.547   0.593  0.9734 -0.4064  1.8902
 8233SOL     OW25292   4.649   2.450   6.801 -0.1846 -0.2029 -0.0838
 8233SOL    HW125293   4.562   2.411   6.807 -0.3795  0.4177  1.1942
 8233SOL    HW225294   4.691   2.426   6.884  0.7272 -0.1861 -0.5398
 8234SOL     OW25295   3.587   7.098   2.321  0.0997  0.7608 -0.0288
 8234SOL    HW125296   3.659   7.156   2.346  0.8234 -1.0316  2.1650
 8234SOL    HW225297   3.628   7.026   2.274 -0.4616  0.5714 -0.2366
 8235SOL     OW25298   1.158   6.307   6.989 -0.4999  0.7840 -0.3740
 8235SOL    HW125299   1.064   6.317   6.973 -0.2310  1.2572 -1.6569
 8235SOL    HW225300   1.199   6.323   6.904  0.7873  1.2143  0.3194
 8236SOL     OW25301   2.244   6.219   3.267 -0.3568  0.0611 -0.2501
 8236SOL    HW125302   2.310   6.287   3.268 -1.0362  0.7410 -0.7677
 8236SOL    HW225303   2.293   6.137   3.256  0.3863  0.5593 -0.6699
 8237SOL     OW25304   4.632   6.925   6.152 -0.0714 -0.0938 -0.1354
 8237SOL    HW125305   4.652   6.970   6.070  0.2910 -1.6559 -0.9305
 8237SOL    HW225306   4.554   6.970   6.185 -0.3292  0.4450 -1.4258
 8238SOL     OW25307   2.636   6.216   4.153 -0.2006  0.1402  0.1198
 8238SOL    HW125308   2.647   6.308   4.130 -1.9937  0.3484  0.0030
 8238SOL    HW225309   2.541   6.201   4.146 -0.2062 -1.1067  2.3754
 8239SOL     OW25310   1.108   7.194   6.522  0.7237  0.1751  0.1407
 8239SOL    HW125311   1.150   7.109   6.537 -0.5904 -0.8705 -1.7651
 8239SOL    HW225312   1.135   7.248   6.595  0.5929 -2.2853  2.0771
 8240SOL     OW25313   6.828   0.789   1.630 -0.6714 -0.9237  0.3449
 8240SOL    HW125314   6.899   0.729   1.652 -1.5767 -2.3726 -0.5738
 8240SOL    HW225315   6.830   0.855   1.699  2.2493 -0.3093 -0.2756
 8241SOL     OW25316   1.713   3.373   5.073  0.5678 -0.2110  0.5429
 8241SOL    HW125317   1.804   3.370   5.042 -0.0380 -0.7780 -1.2260
 8241SOL    HW225318   1.682   3.460   5.047  0.2945 -0.3961  0.2520
 8242SOL     OW25319   6.190   4.205   1.776 -0.3116 -0.1233  0.2525
 8242SOL    HW125320   6.144   4.241   1.701 -1.7077 -1.4206  0.4764
 8242SOL    HW225321   6.216   4.282   1.827 -0.8822  0.6821 -0.6530
 8243SOL     OW25322   3.238   5.380   6.468 -0.1361 -1.0171 -0.0213
 8243SOL    HW125323   3.184   5.440   6.417  2.1598  1.2599  0.1159
 8243SOL    HW225324   3.204   5.388   6.557  0.5111  0.5203  0.0965
 8244SOL     OW25325   5.369   5.325   1.756  0.0551 -0.0296 -0.1768
 8244SOL    HW125326   5.451   5.290   1.793 -0.9324 -0.3908  1.7372
 8244SOL    HW225327   5.344   5.261   1.689  0.3552 -0.9327  0.5539
 8245SOL     OW25328   4.901   0.796   3.138  0.2202 -0.2051  0.0090
 8245SOL    HW125329   4.965   0.842   3.083  1.0104 -0.8463  0.3694
 8245SOL    HW225330   4.844   0.865   3.170 -0.8633  0.0648 -2.3824
 8246SOL     OW25331   1.767   2.040   6.215 -0.2698  0.6487  0.1086
 8246SOL    HW125332   1.797   2.081   6.295  0.0595  2.1216 -0.7533
 8246SOL    HW225333   1.834   1.975   6.194  0.1627  0.9751  0.4826
 8247SOL     OW25334   4.585   6.076   1.505  0.0664 -0.2881  0.7507
 8247SOL    HW125335   4.492   6.053   1.499 -0.1961  0.6270  1.1645
 8247SOL    HW225336   4.619   6.065   1.416 -1.0654  1.9741  0.0012
 8248SOL     OW25337   0.299   6.603   7.142 -0.4758 -0.4713 -0.2507
 8248SOL    HW125338   0.257   6.687   7.156 -0.6517 -0.4556 -0.8456
 8248SOL    HW225339   0.299   6.592   7.047 -1.6981 -1.7712 -0.1205
 8249SOL     OW25340   5.971   6.331   6.070  0.0377  0.0820  0.4172
 8249SOL    HW125341   6.004   6.395   6.007  0.6924 -0.1701  0.5054
 8249SOL    HW225342   5.946   6.256   6.016  0.8277 -0.2276  0.4828
 8250SOL     OW25343   4.831   2.028   5.298  0.2160 -0.2976 -0.4584
 8250SOL    HW125344   4.915   1.985   5.283 -0.6368 -2.5179  0.7983
 8250SOL    HW225345   4.776   1.960   5.339 -1.7846  1.4615 -0.1061
 8251SOL     OW25346   1.316   6.765   6.721 -0.0893 -0.1280  0.4269
 8251SOL    HW125347   1.372   6.819   6.775 -1.8633  2.3494 -0.1003
 8251SOL    HW225348   1.342   6.785   6.631 -2.8066  2.2991  0.1091
 8252SOL     OW25349   5.601   1.103   4.443 -0.6466 -0.5475  0.4495
 8252SOL    HW125350   5.637   1.192   4.447 -2.4338  0.1709  1.4767
 8252SOL    HW225351   5.513   1.112   4.479 -1.1622 -2.5921 -0.2396
 8253SOL     OW25352   2.431   5.825   4.251 -0.7542 -0.3444  0.1183
 8253SOL    HW125353   2.366   5.790   4.191 -1.4873  0.8602  0.1953
 8253SOL    HW225354   2.390   5.817   4.338 -0.6246 -0.0080  0.2125
 8254SOL     OW25355   3.103   0.015   7.224  0.6178  0.3617 -0.1483
 8254SOL    HW125356   3.151  -0.017   7.148  1.6349 -0.3293  0.7644
 8254SOL    HW225357   3.109   0.110   7.218  0.3926  0.3216 -1.1101
 8255SOL     OW25358   5.248   5.664   6.995 -0.3011 -0.2695 -0.0843
 8255SOL    HW125359   5.269   5.752   7.026  1.2747 -0.1869 -1.2961
 8255SOL    HW225360   5.332   5.629   6.964 -1.0266 -1.9579 -0.2026
 8256SOL     OW25361   2.694   4.328   6.482  0.5934 -0.1571  0.2709
 8256SOL    HW125362   2.779   4.329   6.438  0.6412  0.2530  0.3704
 8256SOL    HW225363   2.663   4.418   6.476  1.1691  0.1926  2.1874
 8257SOL     OW25364   1.061   6.629   5.467 -0.0122  0.3189 -0.1324
 8257SOL    HW125365   1.122   6.605   5.536 -0.4961  3.1298  1.3192
 8257SOL    HW225366   1.019   6.709   5.498 -1.6400  0.5736 -2.8302
 8258SOL     OW25367   1.557   5.761   2.734 -0.9352 -0.2372 -0.0584
 8258SOL    HW125368   1.501   5.725   2.804 -1.8288 -2.1555 -1.6959
 8258SOL    HW225369   1.496   5.793   2.668 -0.1130 -0.7537 -1.0904
 8259SOL     OW25370   5.171   4.835   7.110 -0.5803 -0.4045  0.1250
 8259SOL    HW125371   5.217   4.765   7.158  0.4388  0.5476  0.5595
 8259SOL    HW225372   5.241   4.891   7.077 -1.3944  0.4866 -0.1051
 8260SOL     OW25373   2.516   1.458   4.049  0.1788  0.3892  0.2479
 8260SOL    HW125374   2.424   1.484   4.056  0.5526  1.5787  0.9459
 8260SOL    HW225375   2.520   1.404   3.970 -1.5017 -1.4452  1.4020
 8261SOL     OW25376   4.163   4.035   0.249  0.6979 -1.3020 -0.5608
 8261SOL    HW125377   4.126   4.122   0.234  0.5428 -1.1700  0.5947
 8261SOL    HW225378   4.132   3.983   0.175 -1.9302 -1.2320  0.4456
 8262SOL     OW25379   0.973   0.505   6.968  0.5455  0.7109 -0.1151
 8262SOL    HW125380   0.900   0.560   6.996  1.8222  1.0287  2.6930
 8262SOL    HW225381   0.950   0.417   7.000  0.6749  0.4968 -0.6022
 8263SOL     OW25382   6.784   2.292   4.301 -0.3468  0.1675  0.3039
 8263SOL    HW125383   6.852   2.267   4.238 -0.3494 -0.0428  0.3835
 8263SOL    HW225384   6.710   2.234   4.280  0.3711 -1.3588  1.8482
 8264SOL     OW25385   1.877   2.754   4.426 -0.5824  0.3195 -0.2124
 8264SOL    HW125386   1.851   2.839   4.462 -1.7589  1.1665 -2.8840
 8264SOL    HW225387   1.960   2.771   4.381  0.8034 -0.6861  1.9380
 8265SOL     OW25388   6.156   5.195   2.679  0.6063 -0.1940 -0.2191
 8265SOL    HW125389   6.170   5.226   2.769 -0.8921  0.6494 -0.2608
 8265SOL    HW225390   6.091   5.125   2.688 -0.2444  0.5127 -0.7279
 8266SOL     OW25391   5.438   4.716   3.546 -0.1430 -0.3959 -0.1126
 8266SOL    HW125392   5.439   4.751   3.635  1.7211 -3.7235  1.2677
 8266SOL    HW225393   5.346   4.699   3.527 -0.5425  0.2551  1.2237
 8267SOL     OW25394   2.914   1.622   1.770 -0.6845 -0.3381  0.2176
 8267SOL    HW125395   2.824   1.644   1.748 -0.7044  0.4709  1.1207
 8267SOL    HW225396   2.942   1.689   1.832  0.7954 -0.1334 -0.6378
 8268SOL     OW25397   6.353   3.474   2.341  0.1541 -0.5689 -0.1598
 8268SOL    HW125398   6.402   3.411   2.394 -1.9628 -1.1573  1.1723
 8268SOL    HW225399   6.304   3.420   2.279  0.0078 -0.0850 -0.4684
 8269SOL     OW25400   1.777   3.432   0.503 -0.1142  0.0635  0.9145
 8269SOL    HW125401   1.767   3.434   0.408 -0.0333  0.0925  0.9062
 8269SOL    HW225402   1.690   3.410   0.536 -0.9073  3.0457  0.9801
 8270SOL     OW25403   4.321   6.416   3.544  0.1087 -0.6255  0.0873
 8270SOL    HW125404   4.370   6.391   3.466 -1.0777  0.3922 -1.0194
 8270SOL    HW225405   4.344   6.508   3.557 -0.5044 -0.5065  0.3186
 8271SOL     OW25406   1.148   6.021   1.931  0.2354 -0.0425 -0.6102
 8271SOL    HW125407   1.068   5.997   1.978 -0.2317  2.2221 -0.2116
 8271SOL    HW225408   1.187   6.091   1.983  1.3864  0.3167 -1.9172
 8272SOL     OW25409   5.950   5.942   1.455 -0.4499  0.5396  0.4839
 8272SOL    HW125410   6.021   5.991   1.497  0.5434 -0.2654 -0.2309
 8272SOL    HW225411   5.948   5.859   1.502 -0.2807  0.1897 -0.1241
 8273SOL     OW25412   4.044   6.012   5.418  0.3697  0.0813  0.7215
 8273SOL    HW125413   4.127   6.006   5.465  0.7894  0.3823  0.0255
 8273SOL    HW225414   4.010   6.098   5.440  1.6281  1.1110 -1.2519
 8274SOL     OW25415   4.522   1.520   5.014 -0.3181  0.1501  0.2908
 8274SOL    HW125416   4.524   1.535   5.109  0.6692  1.1379  0.1246
 8274SOL    HW225417   4.430   1.502   4.995 -0.2047 -2.2619  1.7640
 8275SOL     OW25418   7.024   5.946   2.324  0.7103  0.2394 -0.2639
 8275SOL    HW125419   6.970   5.900   2.259  0.6761  0.8855 -0.6955
 8275SOL    HW225420   7.097   5.887   2.341  0.6538  0.0183 -0.7988
 8276SOL     OW25421   5.258   3.322   2.028  0.1979 -0.4712 -0.6085
 8276SOL    HW125422   5.316   3.375   2.083 -1.2069  2.9622 -2.2995
 8276SOL    HW225423   5.318   3.269   1.976  1.6888  0.0909  0.4689
 8277SOL     OW25424   3.843   2.647   3.231 -0.6742  0.3055 -0.4848
 8277SOL    HW125425   3.866   2.702   3.306  0.3103  0.0184 -0.5721
 8277SOL    HW225426   3.753   2.620   3.248 -0.5794  0.5471  0.4141
 8278SOL     OW25427   6.094   4.545   0.326  0.0803  0.1472 -0.5898
 8278SOL    HW125428   6.084   4.450   0.335 -1.2486  0.3262 -0.0427
 8278SOL    HW225429   6.028   4.570   0.261 -0.9905  0.9609  0.7825
 8279SOL     OW25430   4.072   2.095   3.799  0.1123 -0.1677 -0.3262
 8279SOL    HW125431   3.986   2.131   3.779 -0.2535 -0.7481  0.1669
 8279SOL    HW225432   4.075   2.012   3.752  0.4857 -0.0515 -0.5079
 8280SOL     OW25433   2.793   7.175   2.251  0.5944 -0.2372  0.2008
 8280SOL    HW125434   2.728   7.132   2.306 -0.2925 -0.3754 -0.9279
 8280SOL    HW225435   2.877   7.146   2.286  0.0635  0.0480  1.7577
 8281SOL     OW25436   0.530   4.497   2.199 -0.2649  1.1590 -0.1942
 8281SOL    HW125437   0.503   4.581   2.238  0.5185  0.6023  1.6157
 8281SOL    HW225438   0.581   4.455   2.268  0.3392 -0.3013 -1.5250
 8282SOL     OW25439   2.279   2.773   6.189  0.1352 -0.2058 -0.3182
 8282SOL    HW125440   2.356   2.728   6.222  0.8807  0.1783 -1.5174
 8282SOL    HW225441   2.313   2.840   6.131 -1.0501  0.7345  0.0373
 8283SOL     OW25442   3.103   2.515   1.659 -0.2431  0.7510 -0.0087
 8283SOL    HW125443   3.041   2.555   1.598  0.7937  0.7825 -1.0578
 8283SOL    HW225444   3.118   2.427   1.625 -1.0762  0.1130  1.2441
 8284SOL     OW25445   5.818   2.141   2.467  0.4720 -0.1158  0.1780
 8284SOL    HW125446   5.823   2.205   2.538 -0.7368 -0.9741  1.0641
 8284SOL    HW225447   5.887   2.079   2.486  0.0045 -0.4689  0.7379
 8285SOL     OW25448   5.295   2.405   4.022 -0.0967 -0.3647  0.1237
 8285SOL    HW125449   5.222   2.381   3.965  0.6841  0.9787 -1.5268
 8285SOL    HW225450   5.271   2.491   4.056 -0.7222 -1.3267  2.1547
 8286SOL     OW25451   2.966   6.141   0.758 -0.4167  0.6673  0.0934
 8286SOL    HW125452   2.879   6.108   0.781  0.9009 -2.8567  0.2198
 8286SOL    HW225453   3.027   6.074   0.788  2.3896  2.9721 -0.1751
 8287SOL     OW25454   0.987   0.856   4.044 -0.7924  0.0508  0.2018
 8287SOL    HW125455   0.986   0.940   4.090 -1.2951  0.8409 -1.2252
 8287SOL    HW225456   0.940   0.797   4.102  1.0379  0.3204  2.0078
 8288SOL     OW25457   1.218   0.005   6.000  0.1725  0.0084  0.3005
 8288SOL    HW125458   1.124   0.007   5.984  0.1780 -0.9693  0.0586
 8288SOL    HW225459   1.227   0.014   6.095 -0.1695  0.0844  0.3249
 8289SOL     OW25460   1.338   4.578   1.360 -0.4043  0.2433  0.0347
 8289SOL    HW125461   1.309   4.669   1.362 -0.8189  0.1158  0.0144
 8289SOL    HW225462   1.423   4.578   1.403 -0.4233  0.6356  0.0697
 8290SOL     OW25463   3.592   4.140   3.216  0.1998 -0.1087 -0.5124
 8290SOL    HW125464   3.533   4.086   3.269  0.1381  0.0968 -0.3708
 8290SOL    HW225465   3.675   4.139   3.264 -0.4126  1.6844  0.6146
 8291SOL     OW25466   0.022   2.180   0.564 -0.0487  0.0445  0.3016
 8291SOL    HW125467  -0.003   2.123   0.636 -0.7447 -0.7457 -0.5553
 8291SOL    HW225468   0.113   2.203   0.582 -0.2278 -0.1179  1.4376
 8292SOL     OW25469   7.240   3.382   2.522 -0.2765 -0.7920 -0.0632
 8292SOL    HW125470   7.176   3.314   2.543  0.0365 -1.4907 -1.3215
 8292SOL    HW225471   7.252   3.430   2.604  1.5470 -3.9716  1.6616
 8293SOL     OW25472   4.467   0.700   0.150 -0.2314  0.5381 -0.3838
 8293SOL    HW125473   4.428   0.782   0.117 -1.9751 -0.1656 -0.1291
 8293SOL    HW225474   4.413   0.676   0.225 -1.0871 -1.9840 -1.7458
 8294SOL     OW25475   0.617   7.180   4.832  0.5104  0.4885 -0.2031
 8294SOL    HW125476   0.693   7.195   4.888  1.2457 -1.5629 -0.5947
 8294SOL    HW225477   0.651   7.126   4.761 -0.6615  2.1158 -2.0386
 8295SOL     OW25478   1.031   2.359   5.774  0.3222 -0.2945 -0.9278
 8295SOL    HW125479   1.091   2.406   5.833  1.2906  0.5093 -2.5272
 8295SOL    HW225480   0.983   2.300   5.832 -0.2659  1.9938  0.9844
 8296SOL     OW25481   0.574   4.136   6.282  0.3030 -0.5969 -0.0323
 8296SOL    HW125482   0.490   4.166   6.315  0.2455 -1.5670  0.7256
 8296SOL    HW225483   0.565   4.041   6.273  1.1018 -0.6356 -0.5750
 8297SOL     OW25484   7.064   4.117   3.780  0.5131  0.3149 -0.8377
 8297SOL    HW125485   6.989   4.175   3.795 -0.8306 -1.6359  0.0612
 8297SOL    HW225486   7.130   4.146   3.843 -0.7558 -0.1951  0.7335
 8298SOL     OW25487   6.395   4.148   6.449  0.8521 -0.0475 -0.3777
 8298SOL    HW125488   6.373   4.226   6.499  0.4076  0.0387 -0.7013
 8298SOL    HW225489   6.488   4.158   6.429  1.4358 -0.9038  1.8515
 8299SOL     OW25490   1.730   6.010   4.861 -0.3483  0.6283 -0.1806
 8299SOL    HW125491   1.729   6.101   4.891 -0.9553  0.2177  1.0761
 8299SOL    HW225492   1.809   6.003   4.808 -0.0664  1.7667  0.0776
 8300SOL     OW25493   4.650   2.886   2.430  0.8339 -0.6504 -0.2785
 8300SOL    HW125494   4.617   2.822   2.366 -0.7688 -1.0016  0.8485
 8300SOL    HW225495   4.744   2.869   2.434  1.1255  0.0313 -3.2353
 8301SOL     OW25496   6.598   0.744   4.139 -0.0027 -0.8483 -0.5471
 8301SOL    HW125497   6.565   0.785   4.219  1.4904  1.1984 -0.9474
 8301SOL    HW225498   6.627   0.657   4.168 -0.2106 -0.4371  0.9667
 8302SOL     OW25499   5.867   0.985   0.488  0.1760  0.5359  0.1108
 8302SOL    HW125500   5.936   1.028   0.437 -0.2342 -0.4929 -1.3433
 8302SOL    HW225501   5.856   0.899   0.446  1.0724 -1.0756  3.0537
 8303SOL     OW25502   4.683   1.460   6.853  0.3869  0.3469  0.1436
 8303SOL    HW125503   4.699   1.372   6.887  1.3106  0.8546  1.0713
 8303SOL    HW225504   4.624   1.447   6.779  0.4878 -1.0470  0.2900
 8304SOL     OW25505   3.735   2.358   4.977  0.3630  0.3178 -0.3814
 8304SOL    HW125506   3.640   2.348   4.966  0.5162 -0.8175 -0.6702
 8304SOL    HW225507   3.750   2.452   4.963 -0.6970  0.4898 -0.4635
 8305SOL     OW25508   6.950   2.217   3.387  0.7338  0.1962 -0.5141
 8305SOL    HW125509   6.935   2.131   3.425 -0.0318  0.8273  0.6489
 8305SOL    HW225510   6.868   2.238   3.343  0.4634  0.8638  0.2906
 8306SOL     OW25511   4.903   5.700   5.190  0.1575 -0.3031 -0.0813
 8306SOL    HW125512   4.991   5.687   5.224  0.6562  1.1026 -0.7930
 8306SOL    HW225513   4.894   5.795   5.183 -0.5344 -0.5151 -2.3152
 8307SOL     OW25514   5.422   4.345   6.017 -0.4539 -0.1231 -0.0822
 8307SOL    HW125515   5.429   4.440   6.005  3.6107 -0.3037  0.3781
 8307SOL    HW225516   5.488   4.308   5.959 -1.6077 -2.6936  0.1595
 8308SOL     OW25517   7.079   1.272   7.068 -0.0695  0.2580  0.4445
 8308SOL    HW125518   7.050   1.348   7.018 -1.2264 -0.2858  0.2600
 8308SOL    HW225519   7.126   1.218   7.005  0.4567  0.6462  0.4964
 8309SOL     OW25520   4.650   0.491   0.256  0.5003 -0.3373 -0.5383
 8309SOL    HW125521   4.565   0.525   0.228  0.3200 -1.3839 -1.2823
 8309SOL    HW225522   4.713   0.554   0.221  0.1277 -0.3893 -1.3272
 8310SOL     OW25523   1.598   2.317   5.404  0.1808 -0.1061  0.3492
 8310SOL    HW125524   1.601   2.350   5.314 -0.1759  0.6128  0.6018
 8310SOL    HW225525   1.587   2.395   5.458  0.8539 -0.4981  1.0483
 8311SOL     OW25526   1.410   3.066   2.205 -0.0208  0.1172 -0.7165
 8311SOL    HW125527   1.405   3.119   2.125  1.3210 -0.6722 -1.3334
 8311SOL    HW225528   1.420   3.131   2.275 -2.0137  0.8517 -1.0883
 8312SOL     OW25529   5.522   4.854   6.547 -0.1531 -0.1244  0.2518
 8312SOL    HW125530   5.484   4.923   6.601  2.1199  1.1542  0.2548
 8312SOL    HW225531   5.610   4.841   6.582 -0.1911 -2.3698 -0.3540
 8313SOL     OW25532   4.172   3.003   6.030 -0.1067 -0.2503 -0.5139
 8313SOL    HW125533   4.151   2.920   6.073 -2.0179  0.2240 -0.4913
 8313SOL    HW225534   4.114   3.007   5.954  1.3144  0.2051 -1.6066
 8314SOL     OW25535   1.737   4.410   4.712 -0.1725 -0.2734  0.2984
 8314SOL    HW125536   1.704   4.496   4.688  0.5156 -0.1025 -0.0422
 8314SOL    HW225537   1.812   4.427   4.769  1.9744 -0.5628 -2.3421
 8315SOL     OW25538   6.050   0.834   6.569  0.1997  0.6764  0.1759
 8315SOL    HW125539   6.007   0.919   6.578  1.5070  1.2752  0.8887
 8315SOL    HW225540   6.128   0.852   6.518  0.4437 -0.1202  0.2609
 8316SOL     OW25541   2.795   6.536   0.914 -0.1531  0.8013 -0.0194
 8316SOL    HW125542   2.717   6.591   0.911 -1.4376 -0.9051  1.2904
 8316SOL    HW225543   2.789   6.483   0.835 -0.9642 -0.1571  0.6723
 8317SOL     OW25544   2.547   1.793   0.899  0.4568 -0.2408 -0.7970
 8317SOL    HW125545   2.574   1.882   0.877 -0.2885  0.0316 -0.6259
 8317SOL    HW225546   2.568   1.741   0.822  1.0664  0.0486 -0.8262
 8318SOL     OW25547   4.147   1.668   2.002  0.0095  0.3141 -0.1626
 8318SOL    HW125548   4.088   1.608   1.956  1.7767 -1.6011 -0.0421
 8318SOL    HW225549   4.171   1.620   2.082  1.0246  1.4018  0.2038
 8319SOL     OW25550   0.623   0.234   4.907  0.3042  0.6116  0.0929
 8319SOL    HW125551   0.598   0.192   4.989  0.0718 -0.7354 -0.6558
 8319SOL    HW225552   0.710   0.199   4.888 -0.1866 -0.1013 -0.8991
 8320SOL     OW25553   3.218   3.944   4.937 -0.0386 -0.1795  0.2717
 8320SOL    HW125554   3.256   4.014   4.884  2.6827 -0.6852  1.4938
 8320SOL    HW225555   3.134   3.981   4.967 -0.3327  1.1525 -2.0340
 8321SOL     OW25556   1.508   3.100   6.120 -0.2244 -0.0259 -0.3867
 8321SOL    HW125557   1.464   3.110   6.205 -0.0028 -0.4002 -0.2256
 8321SOL    HW225558   1.537   3.189   6.098  1.6041 -0.2444  0.9606
 8322SOL     OW25559   4.144   5.421   6.861 -0.2379  0.4999 -0.8217
 8322SOL    HW125560   4.118   5.346   6.809  2.5498 -0.5870 -0.7295
 8322SOL    HW225561   4.150   5.493   6.799  2.0659 -0.5586 -1.8987
 8323SOL     OW25562   1.868   2.038   5.404 -0.0618 -0.3805 -0.1044
 8323SOL    HW125563   1.870   2.026   5.499  1.1932 -2.5009 -0.3512
 8323SOL    HW225564   1.907   2.124   5.390 -0.0320 -0.1509  1.2835
 8324SOL     OW25565   2.005   7.093   1.529  0.2554  0.1715 -0.1588
 8324SOL    HW125566   1.946   7.141   1.588  0.8027 -0.8225  1.2111
 8324SOL    HW225567   2.029   7.158   1.462 -1.0480  1.0681  0.2207
 8325SOL     OW25568   5.067   1.209   3.297 -0.5358  0.4769 -0.0461
 8325SOL    HW125569   5.131   1.140   3.313 -0.8358  0.4459  1.0672
 8325SOL    HW225570   5.105   1.287   3.337 -1.2252  0.4319  0.7282
 8326SOL     OW25571   1.370   5.893   0.571 -0.0520  0.3765  0.0367
 8326SOL    HW125572   1.275   5.900   0.566 -0.0405  1.1874  0.8652
 8326SOL    HW225573   1.387   5.844   0.651  0.1923 -0.9627 -0.8154
 8327SOL     OW25574   6.030   7.193   0.654  0.1859  0.2377  0.2902
 8327SOL    HW125575   6.090   7.119   0.642 -2.2419 -1.7401 -0.0631
 8327SOL    HW225576   5.997   7.182   0.743 -0.5530  0.5994  0.0638
 8328SOL     OW25577   3.878   1.143   2.731  0.5641 -0.6275 -0.3215
 8328SOL    HW125578   3.799   1.168   2.780 -0.0810 -0.5499 -1.3879
 8328SOL    HW225579   3.944   1.127   2.799 -0.5170 -1.2143  0.6031
 8329SOL     OW25580   3.435   4.273   2.736  0.1956  0.0783 -0.0707
 8329SOL    HW125581   3.470   4.221   2.808  2.1622  0.4228 -0.7518
 8329SOL    HW225582   3.383   4.211   2.685  0.9028 -0.7647  0.2146
 8330SOL     OW25583   6.182   1.442   4.950  0.4283 -0.2489 -0.6211
 8330SOL    HW125584   6.258   1.389   4.977  0.7635  0.7532  0.4616
 8330SOL    HW225585   6.195   1.456   4.856  2.8249  1.8105 -0.0489
 8331SOL     OW25586   5.758   5.661   6.170  0.3447  0.3390 -0.4208
 8331SOL    HW125587   5.709   5.730   6.124 -0.6076 -1.0701 -1.5512
 8331SOL    HW225588   5.728   5.666   6.260  0.3015  1.4126 -0.4848
 8332SOL     OW25589   3.167   1.406   5.453  0.0016 -0.1187  0.2201
 8332SOL    HW125590   3.178   1.370   5.540 -1.6503 -0.4632  0.3011
 8332SOL    HW225591   3.106   1.346   5.409 -2.1729  2.0532  0.1109
 8333SOL     OW25592   3.155   1.134   7.019  0.8417 -0.1528 -0.6248
 8333SOL    HW125593   3.155   1.150   6.925  1.3697 -0.3466 -0.6619
 8333SOL    HW225594   3.136   1.219   7.058 -0.0131 -0.1983 -0.9194
 8334SOL     OW25595   4.510   6.754   0.978 -0.4405 -0.0394  0.6286
 8334SOL    HW125596   4.513   6.744   0.883 -2.6174  1.0701  0.3888
 8334SOL    HW225597   4.601   6.750   1.007  0.3773  1.2573 -1.6912
 8335SOL     OW25598   3.185   3.288   0.474 -0.4861  0.2060  0.5482
 8335SOL    HW125599   3.198   3.220   0.407  1.6532 -2.0442  3.1167
 8335SOL    HW225600   3.112   3.340   0.441  0.2481 -1.0564 -3.3348
 8336SOL     OW25601   1.438   3.322   2.612 -0.1858  0.0992 -0.0299
 8336SOL    HW125602   1.404   3.232   2.615 -0.3825  0.1725 -0.0959
 8336SOL    HW225603   1.513   3.317   2.554 -0.3773  0.0393 -0.2729
 8337SOL     OW25604   0.081   6.628   4.171 -0.1262  0.5139  0.1349
 8337SOL    HW125605   0.060   6.535   4.174  0.2150  0.4543  0.8623
 8337SOL    HW225606  -0.001   6.671   4.148  0.0027 -0.0551 -1.4699
 8338SOL     OW25607   5.113   4.959   6.524  0.1968 -0.3624  0.3719
 8338SOL    HW125608   5.066   4.890   6.571  0.9697 -1.4830 -0.4722
 8338SOL    HW225609   5.193   4.973   6.576  0.0215 -0.0641  0.5655
 8339SOL     OW25610   1.187   2.726   6.099  0.7211 -0.1366 -0.1340
 8339SOL    HW125611   1.213   2.806   6.054  1.1103  0.7333  1.6084
 8339SOL    HW225612   1.112   2.751   6.152  1.1979 -0.7786  0.8683
 8340SOL     OW25613   6.546   3.735   4.026 -0.2957  0.2578  0.0750
 8340SOL    HW125614   6.458   3.745   4.062 -0.5507  0.0112 -0.4686
 8340SOL    HW225615   6.534   3.683   3.946  0.2563  0.7797 -0.3643
 8341SOL     OW25616   0.090   2.117   5.354  0.2971  0.3981  0.1324
 8341SOL    HW125617   0.074   2.035   5.308 -0.2196  0.1024  0.8311
 8341SOL    HW225618   0.106   2.181   5.284 -0.9833  0.0646 -0.4870
 8342SOL     OW25619   4.311   6.970   6.810  0.4765 -0.1338  0.2283
 8342SOL    HW125620   4.405   6.984   6.795  0.0318  1.1373 -1.5488
 8342SOL    HW225621   4.268   7.022   6.742 -1.5403 -0.1766  1.4318
 8343SOL     OW25622   6.094   0.309   5.753 -0.3471  0.1942 -0.1683
 8343SOL    HW125623   6.039   0.291   5.830  0.9627 -0.3111  0.6722
 8343SOL    HW225624   6.067   0.244   5.689 -0.9602  0.1631  0.1157
 8344SOL     OW25625   6.278   1.522   5.251 -0.6097  0.5909 -0.0682
 8344SOL    HW125626   6.305   1.435   5.280 -0.5149  0.0851 -1.5967
 8344SOL    HW225627   6.190   1.533   5.287  0.3016  0.8552  2.1176
 8345SOL     OW25628   1.835   3.952   3.295 -0.4389  0.9085 -0.0686
 8345SOL    HW125629   1.840   3.937   3.201 -0.3475 -0.1618  0.1001
 8345SOL    HW225630   1.899   4.021   3.313  1.6178 -0.8679 -0.3721
 8346SOL     OW25631   4.868   1.732   1.021 -0.0199  0.5579 -0.0107
 8346SOL    HW125632   4.839   1.797   0.957  2.5575  0.3155 -1.5033
 8346SOL    HW225633   4.959   1.714   0.997 -0.1415 -2.2944  1.4632
 8347SOL     OW25634   5.653   4.615   3.390 -0.5389  0.1647  0.0874
 8347SOL    HW125635   5.585   4.650   3.447 -0.9146 -0.7730  0.2220
 8347SOL    HW225636   5.735   4.642   3.432 -0.8053 -0.9521  1.3552
 8348SOL     OW25637   3.686   1.271   4.776 -0.2038 -0.1621 -0.1836
 8348SOL    HW125638   3.775   1.287   4.744 -0.6717  1.7717 -0.5399
 8348SOL    HW225639   3.697   1.202   4.842  1.7004  0.7819  0.5186
 8349SOL     OW25640   2.820   0.201   2.171 -0.0169 -0.0456 -0.6210
 8349SOL    HW125641   2.836   0.109   2.187 -0.3336 -0.2622 -1.5002
 8349SOL    HW225642   2.883   0.225   2.103  0.4869  0.5392  0.0503
 8350SOL     OW25643   5.078   3.525   5.779  0.1349  0.1553  0.4779
 8350SOL    HW125644   5.023   3.525   5.700  0.8598  0.7810 -0.0353
 8350SOL    HW225645   5.076   3.434   5.810 -0.5807  0.0174  0.0416
 8351SOL     OW25646   6.146   3.256   6.324  0.2489 -0.0476 -0.3914
 8351SOL    HW125647   6.223   3.300   6.361 -0.6818  0.8145  0.5335
 8351SOL    HW225648   6.161   3.257   6.230  0.0513  2.6463 -0.4311
 8352SOL     OW25649   3.044   5.781   6.474  0.4301  0.3515  0.0974
 8352SOL    HW125650   3.065   5.698   6.517  1.1355  0.0604 -0.7778
 8352SOL    HW225651   2.996   5.831   6.540 -1.1503 -1.2535  0.2271
 8353SOL     OW25652   2.984   5.351   6.656 -0.0437  0.1491  0.1791
 8353SOL    HW125653   3.011   5.442   6.650  2.0565 -0.4064  0.8311
 8353SOL    HW225654   2.955   5.340   6.747  0.3266  0.0076  0.2811
 8354SOL     OW25655   6.021   3.868   3.352 -0.3347 -0.1813 -0.1209
 8354SOL    HW125656   6.047   3.949   3.395 -1.1214  0.5767 -1.0489
 8354SOL    HW225657   5.993   3.895   3.265  2.3578 -1.8478 -1.5552
 8355SOL     OW25658   4.601   1.067   1.166 -0.3180  0.0113 -0.0696
 8355SOL    HW125659   4.614   1.149   1.213 -0.4536 -0.0917  0.1483
 8355SOL    HW225660   4.564   1.007   1.231  0.1640 -0.3463 -0.1217
 8356SOL     OW25661   4.187   2.126   5.981 -0.2410 -0.8007  0.5139
 8356SOL    HW125662   4.236   2.131   6.063  1.8897 -0.4294 -0.7434
 8356SOL    HW225663   4.203   2.210   5.938  0.1636 -1.6677 -1.0949
 8357SOL     OW25664   1.488   1.084   6.252 -0.8655  0.9674  0.3244
 8357SOL    HW125665   1.429   1.137   6.306  0.3275  0.3908  2.2202
 8357SOL    HW225666   1.564   1.140   6.239 -0.4263  0.4511  0.6841
 8358SOL     OW25667   2.714   5.615   1.107 -0.7719 -0.1802  0.1074
 8358SOL    HW125668   2.737   5.570   1.189 -0.9003 -0.2856  0.0850
 8358SOL    HW225669   2.726   5.548   1.040 -0.4018 -0.0167  0.0065
 8359SOL     OW25670   3.964   0.113   0.095  0.0512  0.7150 -0.3617
 8359SOL    HW125671   3.937   0.201   0.120  0.3985  0.8343 -0.3962
 8359SOL    HW225672   3.995   0.122   0.005  0.4012  0.6247 -0.2526
 8360SOL     OW25673   0.632   0.836   6.259 -0.4014 -0.2899 -0.3398
 8360SOL    HW125674   0.546   0.832   6.219 -0.4492  2.1426 -0.5775
 8360SOL    HW225675   0.618   0.882   6.342  0.4997 -0.7804  0.0939
 8361SOL     OW25676   6.147   6.695   4.600 -0.5549  0.3373  0.4676
 8361SOL    HW125677   6.158   6.648   4.682  1.3555 -0.5366 -0.2502
 8361SOL    HW225678   6.170   6.630   4.533  3.2238  2.5392 -0.4949
 8362SOL     OW25679   0.703   7.094   5.893  0.3509  0.1305 -0.3105
 8362SOL    HW125680   0.729   7.112   5.803  0.5138 -0.3033 -0.3520
 8362SOL    HW225681   0.625   7.148   5.907  1.5034  1.7882 -0.0417
 8363SOL     OW25682   1.901   3.611   4.904 -0.0825 -0.1263  0.3789
 8363SOL    HW125683   1.962   3.681   4.925  0.8313  0.3237 -3.4527
 8363SOL    HW225684   1.826   3.656   4.863 -0.2163 -1.2228 -0.6091
 8364SOL     OW25685   2.397   3.321   4.842  0.2385  0.2714 -0.1849
 8364SOL    HW125686   2.346   3.393   4.803 -0.4398  0.5584  1.1883
 8364SOL    HW225687   2.422   3.266   4.768 -0.7149  0.9970 -1.0609
 8365SOL     OW25688   2.696   2.290   0.825  0.0015 -0.4163 -0.1108
 8365SOL    HW125689   2.782   2.317   0.856 -0.1724  0.3021 -0.2404
 8365SOL    HW225690   2.637   2.361   0.852 -1.0716 -2.2320  2.4982
 8366SOL     OW25691   6.200   0.941   5.351  0.0990  0.4090  0.3462
 8366SOL    HW125692   6.157   1.025   5.369 -2.4591 -0.8439  0.2432
 8366SOL    HW225693   6.133   0.875   5.368  1.6862 -1.5768 -0.8392
 8367SOL     OW25694   3.022   3.476   6.828 -0.5753  0.1022 -0.0660
 8367SOL    HW125695   3.077   3.547   6.860 -2.6179  1.5598  0.3026
 8367SOL    HW225696   2.967   3.453   6.903 -0.6118 -1.2102 -0.4790
 8368SOL     OW25697   2.828   2.852   1.767  0.0610 -0.1444 -0.0535
 8368SOL    HW125698   2.825   2.761   1.798 -0.8949 -0.8140 -2.0377
 8368SOL    HW225699   2.921   2.875   1.771  0.4103 -1.4731 -0.2525
 8369SOL     OW25700   6.834   2.990   2.054  0.4710 -0.0202  0.2528
 8369SOL    HW125701   6.882   3.029   1.980 -0.9766 -1.7546 -1.6611
 8369SOL    HW225702   6.847   2.896   2.043 -0.2706 -0.3280  1.9014
 8370SOL     OW25703   2.106   5.315   0.888 -0.0577 -0.1165  0.1435
 8370SOL    HW125704   2.178   5.375   0.906 -0.9035  1.3482 -1.1868
 8370SOL    HW225705   2.061   5.354   0.813 -1.7508 -1.4328  0.4451
 8371SOL     OW25706   2.296   6.771   7.252  0.2820  0.5295 -0.0271
 8371SOL    HW125707   2.386   6.771   7.285  0.5803  0.1600 -0.8409
 8371SOL    HW225708   2.294   6.839   7.186 -0.0198  0.4780 -0.0732
 8372SOL     OW25709   4.817   4.307   1.430 -0.1558 -0.0365 -0.0696
 8372SOL    HW125710   4.757   4.233   1.419  0.8977 -1.4403  2.9378
 8372SOL    HW225711   4.899   4.278   1.390 -0.5292  0.6316 -1.3507
 8373SOL     OW25712   5.046   3.424   3.658  0.0198 -0.5244  0.1896
 8373SOL    HW125713   5.115   3.487   3.637  0.0869 -1.0132 -1.1053
 8373SOL    HW225714   4.999   3.411   3.576  0.4244 -2.6633  0.2526
 8374SOL     OW25715   0.928   6.565   1.115 -0.0156 -0.1653 -0.0804
 8374SOL    HW125716   0.948   6.502   1.045 -1.0211  0.1858 -0.6952
 8374SOL    HW225717   0.966   6.648   1.083  1.9965 -0.6039  1.0812
 8375SOL     OW25718   4.087   6.299   4.172  0.1485 -0.0939  0.3468
 8375SOL    HW125719   4.056   6.301   4.081 -0.2406  0.7721  0.4991
 8375SOL    HW225720   4.161   6.238   4.170 -0.0848 -0.3606 -0.4781
 8376SOL     OW25721   6.139   6.045   4.565  0.0458  0.1192 -0.2574
 8376SOL    HW125722   6.150   6.041   4.470 -2.4673 -1.0134 -0.5451
 8376SOL    HW225723   6.106   6.133   4.582  0.3999  0.2869 -0.4322
 8377SOL     OW25724   2.198   2.478   3.603  0.0315  0.2279  0.6335
 8377SOL    HW125725   2.206   2.512   3.514  0.0819 -0.4769  0.3615
 8377SOL    HW225726   2.218   2.385   3.594  0.2386  0.1979  1.4208
 8378SOL     OW25727   2.639   3.895   6.296 -0.3807  0.2125 -0.0738
 8378SOL    HW125728   2.699   3.933   6.232  0.6838 -0.2159  0.6525
 8378SOL    HW225729   2.668   3.804   6.304 -0.4079  0.3012  1.1250
 8379SOL     OW25730   4.071   4.906   2.993  0.5225  0.2228  0.3117
 8379SOL    HW125731   4.089   4.812   2.989 -1.5170 -0.3158  2.3576
 8379SOL    HW225732   4.007   4.921   2.924  1.0362  0.1577 -0.1790
 8380SOL     OW25733   0.067   1.114   3.999 -0.3742 -0.7560 -0.0396
 8380SOL    HW125734   0.084   1.203   3.971 -0.4415 -0.1951  1.6290
 8380SOL    HW225735   0.025   1.072   3.924 -0.4247  0.6366 -0.7985
 8381SOL     OW25736   4.547   0.952   3.765  0.1074  0.2365 -0.3844
 8381SOL    HW125737   4.605   0.880   3.740 -2.3461 -2.1170  0.4037
 8381SOL    HW225738   4.502   0.976   3.684  0.1825  0.1598 -0.4491
 8382SOL     OW25739   3.806   2.860   0.233 -0.1517 -0.0501  0.2294
 8382SOL    HW125740   3.719   2.849   0.195  0.4055  0.2793 -1.1601
 8382SOL    HW225741   3.862   2.885   0.159  1.4909 -1.9738  0.7829
 8383SOL     OW25742   3.284   1.127   5.241  0.1096 -0.3811  0.4451
 8383SOL    HW125743   3.266   1.117   5.148  0.3903  0.2898  0.3154
 8383SOL    HW225744   3.376   1.156   5.244 -0.4944  1.5521  0.8273
 8384SOL     OW25745   1.345   3.893   1.927 -0.3152  0.1146 -0.7732
 8384SOL    HW125746   1.273   3.868   1.869  0.4369  0.2875 -1.7871
 8384SOL    HW225747   1.401   3.949   1.874  1.9565 -2.1014 -0.8254
 8385SOL     OW25748   1.176   6.398   2.782 -0.2353  0.4903  0.2242
 8385SOL    HW125749   1.170   6.385   2.877  1.3149  1.7553  0.5271
 8385SOL    HW225750   1.088   6.421   2.755 -0.9810 -1.1773  1.1407
 8386SOL     OW25751   3.072   2.732   3.604  0.7838 -0.3804  0.0906
 8386SOL    HW125752   3.074   2.827   3.604 -0.1300 -0.3555 -0.7022
 8386SOL    HW225753   2.983   2.709   3.632  1.1565 -1.0057  0.7796
 8387SOL     OW25754   5.694   3.671   6.523  0.0655  0.2841  0.0136
 8387SOL    HW125755   5.626   3.731   6.491 -0.2771  0.5892  1.2922
 8387SOL    HW225756   5.646   3.594   6.552  0.2839  0.4184  0.7333
 8388SOL     OW25757   3.949   0.974   3.258  0.3962 -0.5375 -0.2288
 8388SOL    HW125758   3.860   0.995   3.288 -0.4925 -1.3880 -2.1669
 8388SOL    HW225759   3.978   0.903   3.315 -1.1682 -1.9794 -1.1852
 8389SOL     OW25760   3.741   2.828   5.631  0.7716 -0.7957 -0.1501
 8389SOL    HW125761   3.670   2.892   5.629 -1.0714 -2.7241  0.9290
 8389SOL    HW225762   3.820   2.879   5.615 -0.7633  1.5356 -0.5819
 8390SOL     OW25763   3.508   4.518   6.136  0.5641  0.0395 -0.4695
 8390SOL    HW125764   3.560   4.439   6.128  2.3067  1.1316 -0.1389
 8390SOL    HW225765   3.541   4.577   6.069  1.1285  1.4859  1.0195
 8391SOL     OW25766   1.486   6.295   6.024  0.1800 -0.4305 -0.0853
 8391SOL    HW125767   1.429   6.227   6.058 -0.2315  0.9772  2.1456
 8391SOL    HW225768   1.441   6.330   5.947 -1.8216  0.4149  1.4414
 8392SOL     OW25769   0.040   0.420   6.716  0.0712 -0.6568  0.3293
 8392SOL    HW125770  -0.031   0.442   6.775  1.3048 -2.3445  2.4993
 8392SOL    HW225771   0.020   0.331   6.685 -0.0503 -0.1735 -1.0376
 8393SOL     OW25772   4.337   3.736   0.548  0.2291 -0.7829 -0.2871
 8393SOL    HW125773   4.310   3.648   0.525  0.2706 -0.1174 -3.0668
 8393SOL    HW225774   4.269   3.768   0.608 -0.8931 -1.9609 -0.9113
 8394SOL     OW25775   7.196   2.848   3.765  0.9292 -0.4984 -0.3187
 8394SOL    HW125776   7.246   2.925   3.741 -1.3940  0.9177 -0.7116
 8394SOL    HW225777   7.148   2.874   3.844  2.4475 -2.5537  1.3661
 8395SOL     OW25778   2.607   3.066   1.428 -0.3161  0.1095 -0.1357
 8395SOL    HW125779   2.584   2.977   1.455 -0.2622  0.2210  0.2905
 8395SOL    HW225780   2.689   3.084   1.473  0.6366 -0.2997 -1.6825
 8396SOL     OW25781   1.805   5.560   4.161  0.4109 -0.2042 -0.5639
 8396SOL    HW125782   1.825   5.506   4.084  1.9649 -1.1060  0.4419
 8396SOL    HW225783   1.876   5.624   4.163 -1.1098  1.5319 -1.4155
 8397SOL     OW25784   6.546   0.393   2.933  0.2221  0.5559  0.5857
 8397SOL    HW125785   6.615   0.356   2.989  0.6334  0.0009 -0.2857
 8397SOL    HW225786   6.489   0.440   2.994 -0.9646 -2.4516  1.8667
 8398SOL     OW25787   1.041   2.898   3.714  0.7699  0.0998  0.4655
 8398SOL    HW125788   1.016   2.806   3.723  0.5727  0.2124  1.0717
 8398SOL    HW225789   0.973   2.935   3.656  0.6478 -0.0534  0.5100
 8399SOL     OW25790   2.081   0.057   1.390 -0.2962 -0.5684 -0.2171
 8399SOL    HW125791   2.147   0.121   1.367 -0.1508 -0.6145  0.0651
 8399SOL    HW225792   2.002   0.109   1.409  0.0147 -0.4148  0.7024
 8400SOL     OW25793   2.131   3.063   6.758  0.4284  0.4644 -0.0268
 8400SOL    HW125794   2.062   3.032   6.818 -0.3233 -0.5012 -1.3696
 8400SOL    HW225795   2.124   3.158   6.761  0.9769  0.4781  2.0800
 8401SOL     OW25796   5.210   7.134   1.465 -0.0698  0.2930  0.0523
 8401SOL    HW125797   5.205   7.041   1.485  1.7217  0.4143  1.1788
 8401SOL    HW225798   5.284   7.143   1.406 -0.5947  0.9443 -0.5284
 8402SOL     OW25799   6.533   2.286   3.751 -0.2511 -0.7050 -0.3721
 8402SOL    HW125800   6.575   2.358   3.704  1.4911 -0.4964  1.4003
 8402SOL    HW225801   6.494   2.328   3.828 -0.2897 -1.4902  0.0424
 8403SOL     OW25802   6.610   2.011   0.320  0.0060  0.5264  0.1413
 8403SOL    HW125803   6.672   2.046   0.384  0.9836  0.5488 -0.7918
 8403SOL    HW225804   6.662   2.003   0.239 -0.7170 -1.2025 -0.1682
 8404SOL     OW25805   4.423   5.399   2.762 -0.0883  0.2825 -0.6426
 8404SOL    HW125806   4.396   5.480   2.805  0.1436 -0.4115  0.8741
 8404SOL    HW225807   4.492   5.426   2.702  0.2139  1.1797  0.0829
 8405SOL     OW25808   4.802   2.154   5.075  0.4619  0.0578 -0.4255
 8405SOL    HW125809   4.715   2.194   5.083  0.3279 -0.2681 -0.2287
 8405SOL    HW225810   4.824   2.128   5.165  1.1778  1.0071 -0.3130
 8406SOL     OW25811   5.689   4.236   5.373 -1.1309 -0.4663  0.4167
 8406SOL    HW125812   5.751   4.165   5.355  2.8641  2.8882  0.4189
 8406SOL    HW225813   5.656   4.261   5.287 -1.3857 -1.2771  0.2715
 8407SOL     OW25814   6.216   3.278   6.093  0.2748  0.2842 -0.4571
 8407SOL    HW125815   6.242   3.206   6.035 -1.7955 -0.4571 -0.4962
 8407SOL    HW225816   6.194   3.350   6.034 -0.6713 -0.0789 -0.5528
 8408SOL     OW25817   0.140   2.775   0.408  0.1770 -0.2012  0.1429
 8408SOL    HW125818   0.140   2.698   0.464 -0.1240 -1.0351 -0.9973
 8408SOL    HW225819   0.062   2.765   0.352  1.9048 -0.7097 -2.2350
 8409SOL     OW25820   0.650   4.506   4.435  0.1912 -0.0314 -0.2138
 8409SOL    HW125821   0.568   4.503   4.486 -1.0002  1.3947 -1.9761
 8409SOL    HW225822   0.647   4.428   4.381  0.2107 -0.2160  0.0521
 8410SOL     OW25823   4.784   0.174   1.833 -0.2911  0.4711  0.3271
 8410SOL    HW125824   4.824   0.227   1.902  0.7568  0.6179 -0.3796
 8410SOL    HW225825   4.724   0.115   1.880  2.0303 -0.9542  1.6344
 8411SOL     OW25826   3.675   3.751   2.698  0.1237  0.2273 -0.4405
 8411SOL    HW125827   3.661   3.827   2.755  1.2485 -0.3056  0.5633
 8411SOL    HW225828   3.600   3.694   2.715  1.3313 -0.7274  1.8138
 8412SOL     OW25829   1.570   1.605   5.450  0.3043  0.1292 -0.6429
 8412SOL    HW125830   1.628   1.597   5.374 -0.0138 -2.3144 -0.6897
 8412SOL    HW225831   1.608   1.545   5.515 -1.0890 -0.0654  0.0023
 8413SOL     OW25832   3.496   2.382   2.947  0.0977 -0.1603  0.0674
 8413SOL    HW125833   3.411   2.409   2.981  0.1076  0.1319 -0.1273
 8413SOL    HW225834   3.548   2.462   2.949  0.6757 -0.5627  1.1069
 8414SOL     OW25835   6.687   2.758   5.435 -0.0105 -0.0958 -0.4166
 8414SOL    HW125836   6.741   2.680   5.452 -0.7084 -0.0427  2.3293
 8414SOL    HW225837   6.606   2.723   5.399  1.2088 -0.2889 -3.1126
 8415SOL     OW25838   6.764   7.189   6.865 -0.2441  0.0087 -0.7061
 8415SOL    HW125839   6.823   7.171   6.792 -0.7823 -1.6917 -0.7424
 8415SOL    HW225840   6.682   7.214   6.823 -1.2260 -3.1121 -0.7608
 8416SOL     OW25841   4.194   5.426   1.796 -0.3042 -0.6082 -0.1866
 8416SOL    HW125842   4.261   5.431   1.864 -0.3180  0.1879 -0.2210
 8416SOL    HW225843   4.193   5.335   1.769  2.0727 -0.2726 -1.4971
 8417SOL     OW25844   4.566   1.838   6.026 -0.4267 -0.0506  0.1160
 8417SOL    HW125845   4.606   1.807   5.945  2.2491  2.1513  0.5195
 8417SOL    HW225846   4.506   1.908   5.998 -1.4255 -0.9942 -0.1561
 8418SOL     OW25847   7.101   3.063   1.404 -0.0658 -0.2767 -0.0040
 8418SOL    HW125848   7.189   3.047   1.437 -0.1144  2.2455  1.5176
 8418SOL    HW225849   7.090   3.000   1.333  3.6349  0.5711 -1.4482
 8419SOL     OW25850   1.378   1.684   2.205  0.2163 -0.2656  0.2675
 8419SOL    HW125851   1.397   1.606   2.153 -0.3951 -0.6937  0.6703
 8419SOL    HW225852   1.283   1.696   2.196  0.4858  1.1549 -0.7920
 8420SOL     OW25853   4.906   6.375   6.984 -0.5733  0.0336 -0.1537
 8420SOL    HW125854   4.865   6.296   7.020 -0.9601  0.5655  0.5695
 8420SOL    HW225855   4.838   6.442   6.987  0.1027  0.7157  0.3376
 8421SOL     OW25856   1.571   4.520   3.906 -0.0226 -0.5909  0.0570
 8421SOL    HW125857   1.542   4.563   3.826 -0.9721 -3.3239 -1.1183
 8421SOL    HW225858   1.509   4.448   3.919  1.0098 -1.1163  2.4218
 8422SOL     OW25859   5.679   0.631   3.041  0.4815 -0.6955 -0.6407
 8422SOL    HW125860   5.648   0.665   2.958 -0.6023  2.0621  0.8098
 8422SOL    HW225861   5.614   0.565   3.067 -1.3781  1.2853 -0.1277
 8423SOL     OW25862   2.406   2.686   7.220 -0.3218  0.1567  0.2557
 8423SOL    HW125863   2.356   2.688   7.303  0.1348 -0.7682  0.5680
 8423SOL    HW225864   2.347   2.726   7.156 -0.7605  0.7076  0.9943
 8424SOL     OW25865   4.690   2.399   6.355 -0.2200 -0.0484  0.2342
 8424SOL    HW125866   4.702   2.473   6.415  0.4437  0.3336 -0.3616
 8424SOL    HW225867   4.768   2.401   6.300  0.8211 -2.4544  1.5634
 8425SOL     OW25868   2.008   3.896   4.247  0.2311 -0.1151  0.3564
 8425SOL    HW125869   1.999   3.978   4.294  0.9877 -0.9837  2.0362
 8425SOL    HW225870   2.102   3.882   4.241  0.1267 -0.4068 -0.7360
 8426SOL     OW25871   1.258   1.948   2.683  0.1090  0.2505 -0.1263
 8426SOL    HW125872   1.314   1.874   2.707  1.6207  1.2143 -0.5794
 8426SOL    HW225873   1.219   1.976   2.766  0.6795 -0.1470  0.2831
 8427SOL     OW25874   2.925   6.823   0.114  0.4499  0.0336  0.2108
 8427SOL    HW125875   2.893   6.739   0.148  1.4868 -0.3438  0.2746
 8427SOL    HW225876   2.859   6.850   0.050 -0.6111 -0.1235  1.2438
 8428SOL     OW25877   5.529   3.803   1.765 -0.3826  0.4525 -0.2610
 8428SOL    HW125878   5.553   3.749   1.840  0.8602 -1.0786 -1.7538
 8428SOL    HW225879   5.596   3.871   1.762  0.6229 -0.5589 -1.0687
 8429SOL     OW25880   0.803   1.556   2.004 -0.5356 -0.3515  0.9924
 8429SOL    HW125881   0.855   1.535   2.081  0.2580  0.1707  0.6043
 8429SOL    HW225882   0.819   1.649   1.989  1.8509 -1.1082 -1.6765
 8430SOL     OW25883   3.000   6.253   7.141  0.1952 -0.2856  0.4829
 8430SOL    HW125884   3.014   6.219   7.229  0.7399 -0.2697  0.4090
 8430SOL    HW225885   3.019   6.347   7.148 -0.6517 -0.1165  0.5455
 8431SOL     OW25886   0.364   0.922   6.120  0.7239  0.0681 -0.0149
 8431SOL    HW125887   0.308   0.879   6.056  0.1867  0.9708 -0.1641
 8431SOL    HW225888   0.319   0.910   6.204  0.2121  0.9308 -0.1572
 8432SOL     OW25889   2.724   7.115   0.394 -0.1751  0.3671 -0.2651
 8432SOL    HW125890   2.730   7.203   0.355  1.9247  1.5523  2.5039
 8432SOL    HW225891   2.763   7.126   0.480 -0.6583 -3.1575  0.4365
 8433SOL     OW25892   5.734   3.609   3.596  0.3235 -0.0150 -0.3831
 8433SOL    HW125893   5.806   3.576   3.651 -0.4689 -0.2155  0.5379
 8433SOL    HW225894   5.656   3.564   3.629 -0.1598 -0.1491 -1.6868
 8434SOL     OW25895   0.817   5.142   1.926 -0.0051  0.0086 -0.2303
 8434SOL    HW125896   0.772   5.065   1.892 -0.4691  0.3588 -0.4156
 8434SOL    HW225897   0.812   5.133   2.021 -0.5294  0.0775 -0.2502
 8435SOL     OW25898   6.535   3.324   5.882  0.7224 -0.3645 -0.3666
 8435SOL    HW125899   6.459   3.382   5.886 -0.0028 -1.3297  0.1498
 8435SOL    HW225900   6.595   3.367   5.822  1.1087  1.9938  1.6506
 8436SOL     OW25901   4.529   1.200   1.801  0.0190 -0.3419  0.2668
 8436SOL    HW125902   4.621   1.206   1.777 -0.6636  0.1012 -2.3562
 8436SOL    HW225903   4.494   1.130   1.746 -1.5475  0.5222  0.1372
 8437SOL     OW25904   7.078   0.905   0.125 -0.5213  0.6674  0.4308
 8437SOL    HW125905   7.047   0.837   0.185 -0.3210  0.1160 -0.0776
 8437SOL    HW225906   7.158   0.938   0.165 -1.4007  1.6266  1.4130
 8438SOL     OW25907   0.911   2.893   6.944 -0.4288  0.8438  0.5591
 8438SOL    HW125908   0.947   2.967   6.993 -0.2404  0.0842  1.5934
 8438SOL    HW225909   0.893   2.928   6.857  0.1894  1.9558  0.8683
 8439SOL     OW25910   6.774   0.491   5.878  0.1311 -0.1072 -0.1461
 8439SOL    HW125911   6.799   0.419   5.937  0.1238 -0.7990 -0.9722
 8439SOL    HW225912   6.683   0.471   5.854 -0.1448  0.6286  0.2642
 8440SOL     OW25913   3.827   4.145   6.224  0.6864 -0.1860  0.1235
 8440SOL    HW125914   3.800   4.091   6.298  1.5920  1.0812  1.4173
 8440SOL    HW225915   3.914   4.177   6.247  1.0284  0.1472 -1.5414
 8441SOL     OW25916   0.164   2.330   7.248 -0.3928  0.1555  0.0181
 8441SOL    HW125917   0.136   2.250   7.292 -1.4711 -1.3497 -3.2650
 8441SOL    HW225918   0.090   2.355   7.193  0.5394  2.5165 -0.2486
 8442SOL     OW25919   5.981   6.541   0.911  0.1980  0.1831  0.3698
 8442SOL    HW125920   6.038   6.560   0.985  0.2996 -2.4291  1.0006
 8442SOL    HW225921   5.921   6.473   0.942 -2.7572  2.2251 -0.5504
 8443SOL     OW25922   3.021   4.168   0.139 -0.2129  0.1958 -0.3463
 8443SOL    HW125923   3.110   4.139   0.157 -1.0168 -3.0305 -1.3675
 8443SOL    HW225924   3.030   4.228   0.065  0.8266 -2.1682 -2.1620
 8444SOL     OW25925   6.639   3.935   2.643 -0.2061  0.7101  0.7271
 8444SOL    HW125926   6.717   3.990   2.636  0.5530 -0.5831 -1.5834
 8444SOL    HW225927   6.605   3.930   2.554 -1.0404 -1.4370  1.1408
 8445SOL     OW25928   6.455   3.335   4.664 -0.0650  0.0716  0.4731
 8445SOL    HW125929   6.457   3.280   4.587  0.9239 -0.1572  0.6452
 8445SOL    HW225930   6.364   3.363   4.673 -0.4326 -0.9628 -0.0127
 8446SOL     OW25931   6.926   6.614   1.253  0.2045 -0.0307 -0.2868
 8446SOL    HW125932   6.919   6.700   1.295 -0.7350 -0.4727  0.4716
 8446SOL    HW225933   6.866   6.619   1.178  0.5539  0.1470 -0.5605
 8447SOL     OW25934   6.227   6.893   6.471  0.4407  0.2187  0.8055
 8447SOL    HW125935   6.292   6.868   6.406  2.4056 -0.2661  2.9108
 8447SOL    HW225936   6.210   6.814   6.522  0.5925  1.1083  2.2892
 8448SOL     OW25937   5.739   1.475   1.028 -0.1016  0.2220 -0.3269
 8448SOL    HW125938   5.755   1.449   1.119  0.1370  1.0392 -0.1328
 8448SOL    HW225939   5.678   1.548   1.034  0.7223  0.9548 -0.7699
 8449SOL     OW25940   5.829   3.885   6.674  0.3537  0.1113  0.0669
 8449SOL    HW125941   5.824   3.850   6.763 -3.1193  0.7593  0.1760
 8449SOL    HW225942   5.808   3.810   6.618 -1.0687  0.5756 -0.0173
 8450SOL     OW25943   2.867   3.953   7.186  0.1035 -0.1743  0.2185
 8450SOL    HW125944   2.854   4.047   7.179 -1.0724 -0.3523 -0.0649
 8450SOL    HW225945   2.816   3.928   7.264  0.8935 -0.4911  0.6451
 8451SOL     OW25946   1.626   0.977   0.419  0.0352 -0.4549  0.0508
 8451SOL    HW125947   1.657   0.887   0.411  0.7332 -0.3647  1.4861
 8451SOL    HW225948   1.637   0.997   0.512 -1.0747  0.7686 -0.0672
 8452SOL     OW25949   3.178   0.817   0.792  0.1157  0.0224  0.8503
 8452SOL    HW125950   3.167   0.869   0.872 -0.3169 -0.9615  1.4376
 8452SOL    HW225951   3.196   0.728   0.823 -2.8927 -0.9847 -0.1060
 8453SOL     OW25952   1.095   2.440   3.820  0.3858  0.6263  0.1192
 8453SOL    HW125953   1.015   2.483   3.791 -0.6506 -0.4317  1.3176
 8453SOL    HW225954   1.096   2.357   3.772  1.3079  1.0797 -0.6567
 8454SOL     OW25955   2.360   1.340   7.105  0.1529 -0.1031  0.7692
 8454SOL    HW125956   2.405   1.385   7.176 -1.5848  0.1602  1.7528
 8454SOL    HW225957   2.296   1.283   7.150 -0.2073 -0.7677 -0.5494
 8455SOL     OW25958   6.099   0.689   1.066  0.4129  0.3160 -0.3697
 8455SOL    HW125959   6.141   0.770   1.036 -1.9195  1.4875 -0.5900
 8455SOL    HW225960   6.032   0.718   1.127 -1.1768 -1.3794 -1.2777
 8456SOL     OW25961   2.619   5.120   4.276 -0.2700 -0.1249  0.1245
 8456SOL    HW125962   2.627   5.118   4.372 -0.8538  2.1368  0.2510
 8456SOL    HW225963   2.613   5.028   4.251  0.1195 -0.7640  2.2442
 8457SOL     OW25964   1.431   1.262   4.278  0.0024 -0.1225 -0.0414
 8457SOL    HW125965   1.504   1.310   4.239  0.4409 -0.2770  0.5821
 8457SOL    HW225966   1.382   1.229   4.203  1.2298 -1.0075 -0.4777
 8458SOL     OW25967   7.149   2.538   4.534  0.4858  0.3688  0.2343
 8458SOL    HW125968   7.187   2.470   4.477  1.9262  0.1125  1.4760
 8458SOL    HW225969   7.214   2.607   4.536  0.6013  0.2299  1.8416
 8459SOL     OW25970   2.129   0.730   4.013 -0.2820 -0.2940  0.2887
 8459SOL    HW125971   2.062   0.663   3.997  0.7884 -1.1520 -0.7296
 8459SOL    HW225972   2.211   0.681   4.012  0.4133  0.8758  0.6964
 8460SOL     OW25973   3.070   2.879   1.909  0.2954  0.3280  0.1962
 8460SOL    HW125974   3.155   2.907   1.873  0.4987  0.1034  0.4950
 8460SOL    HW225975   3.072   2.911   2.000  0.8951 -1.4117  0.8116
 8461SOL     OW25976   5.998   3.139   5.093  0.0514  0.3248  0.2769
 8461SOL    HW125977   6.082   3.102   5.063  0.3547  0.3378  1.1122
 8461SOL    HW225978   5.986   3.103   5.181 -0.9370  0.1422  0.0739
 8462SOL     OW25979   5.362   5.575   4.645  0.2753 -0.4100  0.1504
 8462SOL    HW125980   5.383   5.482   4.639  1.5503 -0.0829 -0.6197
 8462SOL    HW225981   5.275   5.577   4.685  0.9296 -1.8734  1.7449
 8463SOL     OW25982   5.865   5.023   6.410 -0.5326 -0.2854 -0.7240
 8463SOL    HW125983   5.829   5.009   6.323 -2.1156  0.5549 -0.2224
 8463SOL    HW225984   5.792   5.059   6.461  0.2966 -0.9986  1.0121
 8464SOL     OW25985   5.171   6.699   0.658 -0.1677  0.3950  0.1901
 8464SOL    HW125986   5.170   6.772   0.596  2.8018  2.9332  2.9384
 8464SOL    HW225987   5.080   6.688   0.685 -0.7520  2.6131 -0.8057
 8465SOL     OW25988   4.133   5.950   0.791  0.1023  0.0607 -0.7966
 8465SOL    HW125989   4.180   5.976   0.712  1.7238  1.6195  0.6451
 8465SOL    HW225990   4.128   6.030   0.844 -0.9327 -0.9580  0.6890
 8466SOL     OW25991   4.836   3.052   5.650  0.4338 -0.7720 -0.3775
 8466SOL    HW125992   4.766   3.070   5.712  1.1414  0.1068  0.1850
 8466SOL    HW225993   4.799   2.989   5.588 -0.3577 -1.4653  0.7853
 8467SOL     OW25994   0.848   0.170   3.067 -0.0144  0.2105 -0.3723
 8467SOL    HW125995   0.758   0.193   3.091 -0.4018 -1.2871 -0.3296
 8467SOL    HW225996   0.840   0.127   2.983  0.4826 -1.2598  0.3220
 8468SOL     OW25997   2.086   1.935   6.461  0.0687  0.0069  0.0313
 8468SOL    HW125998   2.172   1.965   6.492 -0.7931  1.3852  1.1305
 8468SOL    HW225999   2.106   1.881   6.385  1.7509  2.7072 -1.5492
 8469SOL     OW26000   0.001   5.188   1.907 -0.1662  0.0148  0.3752
 8469SOL    HW126001   0.036   5.141   1.831  1.3067 -0.3637  1.2620
 8469SOL    HW226002  -0.093   5.173   1.903 -0.0921 -0.1023 -1.3052
 8470SOL     OW26003   0.728   1.145   5.566 -0.2036  0.2106 -0.3153
 8470SOL    HW126004   0.762   1.197   5.639 -1.3050  0.3435  0.1138
 8470SOL    HW226005   0.697   1.209   5.502  0.3365  0.0920 -0.6945
 8471SOL     OW26006   3.374   3.957   1.701  0.8672 -0.5171  0.1520
 8471SOL    HW126007   3.388   3.905   1.622 -0.0392 -0.7405  0.1433
 8471SOL    HW226008   3.344   4.042   1.670 -2.3707 -1.5318  0.3532
 8472SOL     OW26009   4.004   3.347   5.265  0.4250  0.4422 -0.3766
 8472SOL    HW126010   4.078   3.289   5.248  0.3652  0.1605  0.2917
 8472SOL    HW226011   3.991   3.395   5.184  0.4484 -0.5237 -0.9582
 8473SOL     OW26012   4.245   2.965   1.038 -0.3327 -0.5156  0.0230
 8473SOL    HW126013   4.296   3.043   1.018  0.2608 -0.3788  2.0400
 8473SOL    HW226014   4.154   2.996   1.041 -0.3763 -0.4028 -1.6345
 8474SOL     OW26015   4.586   0.936   0.567  0.5163  0.3421 -0.1282
 8474SOL    HW126016   4.625   1.021   0.546  0.4861  0.5417  0.6245
 8474SOL    HW226017   4.586   0.932   0.663 -1.8391  0.6146 -0.0767
 8475SOL     OW26018   5.558   2.670   3.555  0.3653  0.2272  0.5623
 8475SOL    HW126019   5.556   2.764   3.541  2.0895  0.6760  3.0351
 8475SOL    HW226020   5.579   2.633   3.469 -0.9360  2.0368 -0.5443
 8476SOL     OW26021   4.673   3.186   2.398 -0.4564 -0.4017 -0.0477
 8476SOL    HW126022   4.739   3.167   2.466 -1.1310 -2.2985  0.1171
 8476SOL    HW226023   4.653   3.100   2.360 -0.5775  0.5577 -2.2142
 8477SOL     OW26024   2.261   1.562   4.030  0.3127 -0.2805  0.4358
 8477SOL    HW126025   2.190   1.530   4.086  1.2879 -0.9710  1.3043
 8477SOL    HW226026   2.224   1.637   3.985 -0.7824 -0.2600  1.3456
 8478SOL     OW26027   5.588   4.480   5.798  0.8931 -0.1673 -0.1381
 8478SOL    HW126028   5.661   4.541   5.809 -0.1870  1.2281 -0.5920
 8478SOL    HW226029   5.614   4.424   5.725  0.4354  1.9766 -2.0014
 8479SOL     OW26030   1.405   3.174   1.195 -0.5281 -0.2657  0.3012
 8479SOL    HW126031   1.469   3.217   1.252 -2.5891 -0.2720  2.7131
 8479SOL    HW226032   1.328   3.231   1.197 -1.2389 -1.1365 -1.1509
 8480SOL     OW26033   2.012   3.722   1.961 -0.8424 -0.1346 -0.2906
 8480SOL    HW126034   2.097   3.684   1.981 -1.9225 -2.7230 -0.4779
 8480SOL    HW226035   2.032   3.799   1.907  1.3744 -0.4177  0.0979
 8481SOL     OW26036   2.309   0.870   4.828 -0.9142 -0.6832  0.0771
 8481SOL    HW126037   2.373   0.801   4.809 -0.8629 -1.0843  1.5876
 8481SOL    HW226038   2.278   0.899   4.743  0.4445 -1.2823 -0.6380
 8482SOL     OW26039   6.390   3.363   0.085 -0.4285 -0.0410  0.3982
 8482SOL    HW126040   6.442   3.289   0.116 -0.1358  0.0277  0.0783
 8482SOL    HW226041   6.306   3.354   0.130  0.4638  0.8425  2.2860
 8483SOL     OW26042   5.320   1.567   5.167 -0.0020 -0.4689  0.4035
 8483SOL    HW126043   5.263   1.555   5.243  2.0385 -0.8562  1.9085
 8483SOL    HW226044   5.406   1.587   5.204  1.2392 -1.5594 -1.7781
 8484SOL     OW26045   2.505   3.366   6.190  0.2377  0.1082  0.0925
 8484SOL    HW126046   2.504   3.461   6.203 -1.2384  0.1813 -0.4734
 8484SOL    HW226047   2.555   3.332   6.264 -1.5672  1.1134  1.7850
 8485SOL     OW26048   1.348   6.023   0.158 -0.1304 -0.3764 -0.2300
 8485SOL    HW126049   1.266   6.016   0.208 -0.1663  0.8180 -0.1048
 8485SOL    HW226050   1.326   6.081   0.085  0.4876 -0.4148 -0.4450
 8486SOL     OW26051   2.084   2.013   1.232  0.2551  0.1381 -0.5100
 8486SOL    HW126052   2.003   1.996   1.183 -0.3903  2.3557 -0.2790
 8486SOL    HW226053   2.057   2.008   1.324  1.6084 -4.7330 -0.2265
 8487SOL     OW26054   3.279   5.211   1.083 -0.2840 -0.3464 -0.3553
 8487SOL    HW126055   3.233   5.149   1.139 -0.6421  0.1600 -0.0897
 8487SOL    HW226056   3.303   5.160   1.005  1.8627 -1.5538  1.0322
 8488SOL     OW26057   2.638   5.590   3.392  0.1649 -0.3591  0.0982
 8488SOL    HW126058   2.638   5.552   3.479  0.0350  0.3256  0.4030
 8488SOL    HW226059   2.637   5.515   3.332 -0.8936 -0.8213  0.6872
 8489SOL     OW26060   0.577   1.198   2.893  0.6345  0.5654 -0.0678
 8489SOL    HW126061   0.490   1.221   2.927  1.0283  1.4141  0.3850
 8489SOL    HW226062   0.591   1.108   2.922 -0.4473  0.1235 -0.8708
 8490SOL     OW26063   6.982   2.130   4.170  0.3834 -0.2412 -0.0385
 8490SOL    HW126064   7.029   2.165   4.094 -0.0095  1.0825  0.3136
 8490SOL    HW226065   6.925   2.062   4.134 -1.2397  1.7028 -1.2507
 8491SOL     OW26066   4.730   0.936   6.714 -0.2101 -0.0125  0.4899
 8491SOL    HW126067   4.634   0.936   6.707 -0.2391 -1.4204  0.6938
 8491SOL    HW226068   4.760   0.963   6.627 -0.7739 -1.7389 -0.2672
 8492SOL     OW26069   3.878   4.978   1.617  0.3971 -0.1743  0.3490
 8492SOL    HW126070   3.973   4.986   1.608  0.5084 -2.3448 -0.4669
 8492SOL    HW226071   3.859   5.012   1.705  1.8837  0.5351  0.3991
 8493SOL     OW26072   4.146   1.849   0.382 -0.0301  0.2344 -0.1982
 8493SOL    HW126073   4.065   1.841   0.332 -0.1774 -0.3850  0.1308
 8493SOL    HW226074   4.214   1.861   0.315 -0.4612  1.3927 -0.4416
 8494SOL     OW26075   4.443   2.255   5.517  0.1281  0.5257 -0.4135
 8494SOL    HW126076   4.472   2.202   5.591 -0.0990 -0.2686 -0.8827
 8494SOL    HW226077   4.351   2.232   5.504  0.3934  0.0125 -1.4776
 8495SOL     OW26078   6.269   6.528   1.086 -0.2785  0.4254 -0.1926
 8495SOL    HW126079   6.338   6.504   1.148  0.1578  0.4049 -0.6835
 8495SOL    HW226080   6.314   6.534   1.001 -1.1723 -1.2246 -0.8130
 8496SOL     OW26081   2.811   6.281   0.426 -0.1179 -0.7917 -0.5999
 8496SOL    HW126082   2.777   6.324   0.504  0.7800 -0.4767 -0.3751
 8496SOL    HW226083   2.757   6.316   0.355 -0.7341 -0.8412 -0.1618
 8497SOL     OW26084   5.688   1.007   3.001  0.5468 -0.2078  0.0338
 8497SOL    HW126085   5.687   1.097   2.967  0.1561  0.1487  0.9771
 8497SOL    HW226086   5.610   0.966   2.963 -1.3107  0.9492  2.4974
 8498SOL     OW26087   1.331   4.863   1.333  0.6367 -0.3195 -0.0950
 8498SOL    HW126088   1.354   4.848   1.424 -2.4460  1.1559  0.9981
 8498SOL    HW226089   1.302   4.955   1.330 -0.4072 -0.6807 -2.3059
 8499SOL     OW26090   1.962   6.888   1.694  0.0549 -0.6491 -0.2894
 8499SOL    HW126091   2.040   6.906   1.746 -0.0937 -0.0458 -0.2712
 8499SOL    HW226092   1.976   6.938   1.613 -1.6055  1.7770  0.8661
 8500SOL     OW26093   4.847   3.154   0.183  0.6957 -0.5634  0.0487
 8500SOL    HW126094   4.848   3.187   0.093  0.0559 -1.4124 -0.2784
 8500SOL    HW226095   4.782   3.209   0.228 -0.5202 -1.4991 -0.5464
 8501SOL     OW26096   2.580   1.562   6.306  0.5241 -0.2713 -0.4218
 8501SOL    HW126097   2.550   1.599   6.223  0.3616  1.1521  0.2420
 8501SOL    HW226098   2.670   1.593   6.315  0.3784 -0.0118  0.1613
 8502SOL     OW26099   0.552   0.875   6.708  0.2118 -0.2887  0.2046
 8502SOL    HW126100   0.465   0.842   6.687  0.3567 -0.5216 -0.0267
 8502SOL    HW226101   0.572   0.936   6.637  0.3460 -0.4355  0.1154
 8503SOL     OW26102   1.553   5.376   0.841 -0.5122 -0.0600 -0.4978
 8503SOL    HW126103   1.609   5.447   0.809  1.3555 -1.1215  0.3990
 8503SOL    HW226104   1.604   5.297   0.828 -0.8505 -0.8106  2.5126
 8504SOL     OW26105   1.888   5.891   0.917 -0.3460 -0.1520  0.1687
 8504SOL    HW126106   1.911   5.963   0.858 -0.7506  0.0597  0.2664
 8504SOL    HW226107   1.940   5.907   0.996  1.9460 -1.6996 -0.9703
 8505SOL     OW26108   0.531   6.524   6.223  0.6237  0.3479 -0.0886
 8505SOL    HW126109   0.499   6.566   6.143  0.7009 -0.3419 -0.4903
 8505SOL    HW226110   0.564   6.596   6.277 -0.1476  0.8994 -0.3419
 8506SOL     OW26111   4.698   2.089   2.138 -0.0966  0.0215 -0.4887
 8506SOL    HW126112   4.731   2.037   2.065  0.4852 -0.9735  0.4643
 8506SOL    HW226113   4.776   2.126   2.179 -0.1466 -1.9339  1.4650
 8507SOL     OW26114   2.622   2.067   3.023  0.0107 -0.3618  0.1153
 8507SOL    HW126115   2.684   2.009   2.979  0.9111  0.8061 -0.1812
 8507SOL    HW226116   2.675   2.115   3.086 -0.8458 -0.3029  0.8055
 8508SOL     OW26117   1.585   1.211   1.415 -0.3743 -0.3143 -0.0028
 8508SOL    HW126118   1.514   1.268   1.385  0.4850  0.6743 -0.1831
 8508SOL    HW226119   1.598   1.235   1.507  0.6046  0.4431 -0.3273
 8509SOL     OW26120   0.973   6.016   0.970 -0.2260 -0.4136 -0.0329
 8509SOL    HW126121   0.894   6.069   0.986  0.7972  0.5284  1.9623
 8509SOL    HW226122   1.000   6.041   0.881 -1.7600 -0.2042 -0.4566
 8510SOL     OW26123   2.000   5.172   5.156  0.1942 -0.4342  0.4392
 8510SOL    HW126124   2.085   5.201   5.122 -0.2360  0.3480  0.0199
 8510SOL    HW226125   1.957   5.253   5.185 -0.1707 -0.8927  1.1983
 8511SOL     OW26126   0.546   4.424   6.882 -0.4815  0.9858  0.0524
 8511SOL    HW126127   0.457   4.388   6.876  0.1289 -0.5423  0.0127
 8511SOL    HW226128   0.549   4.465   6.968 -2.4663  4.4911 -1.4348
 8512SOL     OW26129   3.745   2.970   0.473 -0.0496  0.0523 -0.1456
 8512SOL    HW126130   3.775   2.935   0.390  2.7174  1.0930  0.3502
 8512SOL    HW226131   3.749   2.895   0.533  0.6518 -0.0348 -0.3018
 8513SOL     OW26132   0.271   2.867   3.943  0.1823  0.4035 -0.1256
 8513SOL    HW126133   0.250   2.894   3.854 -1.2423  0.0975  0.1053
 8513SOL    HW226134   0.324   2.788   3.933  0.1910  0.4828 -0.7020
 8514SOL     OW26135   1.878   0.859   1.904  0.1626  0.1025  0.9168
 8514SOL    HW126136   1.930   0.823   1.975 -0.4504 -0.7173  0.9562
 8514SOL    HW226137   1.847   0.783   1.855 -1.3174  0.5424  1.1300
 8515SOL     OW26138   3.239   6.460   4.382 -0.1904  0.4236  0.3537
 8515SOL    HW126139   3.170   6.461   4.315 -1.8753 -1.5663  1.9678
 8515SOL    HW226140   3.201   6.504   4.457  0.1462 -0.9886  1.3787
 8516SOL     OW26141   0.472   3.204   2.905  0.1120 -0.5084 -0.6138
 8516SOL    HW126142   0.549   3.180   2.853  0.8350 -1.8843  1.0355
 8516SOL    HW226143   0.428   3.271   2.853  1.6080 -0.7863 -2.2935
 8517SOL     OW26144   0.504   1.602   5.474 -0.2255  0.5790 -0.1759
 8517SOL    HW126145   0.563   1.561   5.411 -0.8998 -0.2156 -0.2964
 8517SOL    HW226146   0.420   1.609   5.428 -0.0901  2.2049 -0.2004
 8518SOL     OW26147   0.748   2.812   6.579  0.0512  0.1210  0.1167
 8518SOL    HW126148   0.784   2.743   6.634  1.5502  0.8430  0.0511
 8518SOL    HW226149   0.726   2.769   6.497  0.6278 -0.3532  0.2094
 8519SOL     OW26150   3.707   1.463   1.027 -0.2831 -0.4300 -0.0762
 8519SOL    HW126151   3.647   1.475   1.101 -0.2288 -0.1637 -0.0717
 8519SOL    HW226152   3.793   1.482   1.064 -0.0575 -2.0076  0.2092
 8520SOL     OW26153   4.948   4.343   4.508  0.4111 -0.0301 -0.0783
 8520SOL    HW126154   4.895   4.267   4.533 -0.9063  0.4110 -1.5139
 8520SOL    HW226155   5.017   4.306   4.452  1.8245 -0.6411  2.0084
 8521SOL     OW26156   2.956   3.508   4.018  0.0240 -0.6231 -0.3725
 8521SOL    HW126157   2.940   3.439   3.954  1.9130 -1.4752  0.0432
 8521SOL    HW226158   2.900   3.485   4.092 -1.7556  0.0704 -1.4806
 8522SOL     OW26159   0.048   6.071   4.451 -0.1317  0.6538  0.0131
 8522SOL    HW126160   0.009   6.138   4.395  1.9137  1.3883 -0.5863
 8522SOL    HW226161   0.133   6.051   4.410  0.1688 -0.8368  1.2936
 8523SOL     OW26162   6.223   0.783   4.072  0.1769 -0.4300  0.5680
 8523SOL    HW126163   6.227   0.706   4.129 -0.0136 -0.2101  0.8794
 8523SOL    HW226164   6.217   0.857   4.132 -2.4516 -0.3378  0.2469
 8524SOL     OW26165   3.540   0.146   4.204  0.0682 -0.2520  0.2065
 8524SOL    HW126166   3.541   0.069   4.261  1.7350  0.7337  1.5679
 8524SOL    HW226167   3.461   0.136   4.150 -0.6999 -1.9847  1.6206
 8525SOL     OW26168   5.258   2.037   6.693  0.0248 -0.1016  0.2827
 8525SOL    HW126169   5.319   2.039   6.766 -0.7583  0.5535  0.9269
 8525SOL    HW226170   5.212   1.954   6.701 -0.3607  0.1567  0.7894
 8526SOL     OW26171   5.367   4.333   2.738 -0.4306  0.4704  0.7441
 8526SOL    HW126172   5.335   4.251   2.702  0.9462  1.0359 -1.8911
 8526SOL    HW226173   5.451   4.348   2.694 -0.3642  2.9732  1.6009
 8527SOL     OW26174   5.513   4.796   3.834  0.3198 -0.0712 -0.4851
 8527SOL    HW126175   5.491   4.703   3.832 -0.6118  0.1617 -2.5599
 8527SOL    HW226176   5.518   4.818   3.927 -1.1425 -1.8048  0.0217
 8528SOL     OW26177   6.039   2.611   3.177  0.6005 -0.1351  0.4828
 8528SOL    HW126178   6.060   2.600   3.084 -1.7062  0.4539 -0.1267
 8528SOL    HW226179   6.109   2.667   3.210  0.7797  0.6553 -1.1713
 8529SOL     OW26180   4.919   4.032   6.655  0.4021 -0.4335  0.6515
 8529SOL    HW126181   4.938   3.941   6.631  0.1451 -0.4058  0.3319
 8529SOL    HW226182   4.915   4.078   6.571  0.0077 -0.2339  0.7771
 8530SOL     OW26183   3.302   4.118   6.486  0.1266  0.4133 -0.2098
 8530SOL    HW126184   3.351   4.096   6.406 -0.8762  2.6484 -1.4746
 8530SOL    HW226185   3.303   4.213   6.489 -0.2000  0.3729  2.2720
 8531SOL     OW26186   4.860   2.926   6.326 -0.3211  0.4631  0.4350
 8531SOL    HW126187   4.882   2.833   6.320  0.1035  0.4984  1.3668
 8531SOL    HW226188   4.769   2.931   6.298 -0.8504 -0.4659  1.9018
 8532SOL     OW26189   6.292   4.568   2.591 -0.3342 -0.6144  0.1361
 8532SOL    HW126190   6.251   4.490   2.554 -0.4378 -0.6973  0.4297
 8532SOL    HW226191   6.220   4.619   2.626 -0.2444 -0.4839  0.1313
 8533SOL     OW26192   2.899   4.223   3.192 -0.4687 -0.3232 -0.1509
 8533SOL    HW126193   2.933   4.156   3.251  0.3877  0.4242  0.2251
 8533SOL    HW226194   2.855   4.174   3.122 -0.6398 -1.2388  0.5939
 8534SOL     OW26195   2.765   1.413   3.293 -0.0832  0.4236  0.1697
 8534SOL    HW126196   2.797   1.334   3.249  0.0688 -0.1303  1.2730
 8534SOL    HW226197   2.798   1.406   3.382 -2.7634  0.1223  1.1844
 8535SOL     OW26198   1.552   6.642   3.991 -0.5506 -0.4159  0.2960
 8535SOL    HW126199   1.576   6.665   3.901 -1.0474  2.4919  0.8417
 8535SOL    HW226200   1.623   6.586   4.021 -0.0868 -0.9649 -1.6979
 8536SOL     OW26201   6.234   5.501   2.351  0.1798 -0.6825  0.4722
 8536SOL    HW126202   6.209   5.547   2.431  0.2311 -1.5832  1.0083
 8536SOL    HW226203   6.246   5.410   2.378  0.4660 -0.9403 -0.5045
 8537SOL     OW26204   0.662   2.404   6.532 -0.3290  0.2628 -0.0986
 8537SOL    HW126205   0.575   2.442   6.526 -0.3802  0.0624 -0.6377
 8537SOL    HW226206   0.648   2.309   6.529 -0.0413  0.2414 -0.9086
 8538SOL     OW26207   7.042   0.019   4.932 -0.7144  0.3404 -0.3760
 8538SOL    HW126208   7.032   0.108   4.900  0.8116  0.4168 -0.6788
 8538SOL    HW226209   6.999  -0.036   4.866 -2.3411  0.8975  0.2063
 8539SOL     OW26210   2.987   3.371   6.552  0.0226  0.1998  0.3402
 8539SOL    HW126211   2.995   3.402   6.642 -0.5405 -0.2220  0.5473
 8539SOL    HW226212   2.895   3.388   6.530  0.1299  0.1893 -0.1071
 8540SOL     OW26213   0.606   6.615   1.902  0.5316  0.0020 -0.5282
 8540SOL    HW126214   0.657   6.544   1.863  0.9584 -0.7576  1.3797
 8540SOL    HW226215   0.607   6.685   1.835  1.0890 -1.3240 -1.9303
 8541SOL     OW26216   5.799   1.943   0.946 -0.4349  0.3946  0.1012
 8541SOL    HW126217   5.739   1.871   0.927 -0.9095  1.4268 -2.4646
 8541SOL    HW226218   5.884   1.901   0.959 -1.1606 -0.8224  0.9884
 8542SOL     OW26219   6.981   5.316   0.111  0.2770 -0.3300  0.1901
 8542SOL    HW126220   7.004   5.227   0.137 -0.6330 -0.7662 -0.5087
 8542SOL    HW226221   7.027   5.372   0.174  3.8377 -1.1530 -1.5679
 8543SOL     OW26222   6.009   1.507   3.113  0.0116  0.7987  0.0736
 8543SOL    HW126223   5.957   1.439   3.157 -2.0074  2.4602  0.3201
 8543SOL    HW226224   6.077   1.529   3.177  1.3893 -1.7532 -0.4467
 8544SOL     OW26225   1.270   4.596   5.937 -0.3840 -0.4108 -0.1544
 8544SOL    HW126226   1.340   4.634   5.989  0.6878 -2.6543  0.0799
 8544SOL    HW226227   1.287   4.502   5.937 -2.3164 -0.8114 -1.6771
 8545SOL     OW26228   4.081   6.198   3.315  0.3637 -0.6296  0.2088
 8545SOL    HW126229   4.019   6.249   3.263  0.5921 -1.4391 -0.8677
 8545SOL    HW226230   4.135   6.264   3.359  1.2311  0.0980 -1.8575
 8546SOL     OW26231   5.274   1.898   4.923 -0.3678  0.0752 -0.0982
 8546SOL    HW126232   5.235   1.819   4.886  0.4867 -0.2685 -0.2765
 8546SOL    HW226233   5.225   1.915   5.003 -0.5498 -0.6339 -0.0623
 8547SOL     OW26234   3.511   5.277   7.092 -0.4965  0.1082  0.6066
 8547SOL    HW126235   3.458   5.278   7.172 -0.6646  0.8830  0.4965
 8547SOL    HW226236   3.523   5.185   7.072 -0.8490 -0.0874  1.2692
 8548SOL     OW26237   4.662   4.374   0.792 -0.2259  0.8261 -0.2499
 8548SOL    HW126238   4.633   4.293   0.834  1.5106  0.1634 -0.2928
 8548SOL    HW226239   4.716   4.345   0.718  0.5065  2.0055 -0.1979
 8549SOL     OW26240   4.003   6.214   6.556  0.1931 -0.1376  0.4968
 8549SOL    HW126241   3.941   6.142   6.550 -0.6394  0.5532  0.7645
 8549SOL    HW226242   4.022   6.222   6.649  0.1700  0.0974  0.4805
 8550SOL     OW26243   4.925   3.576   4.397 -0.2752 -0.3471  0.1785
 8550SOL    HW126244   4.924   3.528   4.314  0.0225  1.7677 -1.0833
 8550SOL    HW226245   4.834   3.575   4.426 -0.8279  0.9578 -1.4216
 8551SOL     OW26246   5.555   4.767   0.894 -0.4307 -0.3156  0.1630
 8551SOL    HW126247   5.631   4.730   0.848 -0.2540 -1.2251  1.1812
 8551SOL    HW226248   5.563   4.735   0.983 -1.3374  0.6247  0.5888
 8552SOL     OW26249   5.613   4.636   4.183  0.1702 -0.1184 -0.3660
 8552SOL    HW126250   5.561   4.706   4.144  0.0814 -0.4667 -0.8763
 8552SOL    HW226251   5.684   4.681   4.229 -0.8397  0.3854  0.7311
 8553SOL     OW26252   0.526   3.664   5.382 -0.3212  0.3108 -0.2631
 8553SOL    HW126253   0.447   3.713   5.405  0.0733  1.0188 -0.3960
 8553SOL    HW226254   0.553   3.623   5.464  0.2474  1.6289  0.2291
 8554SOL     OW26255   4.214   3.826   6.704 -0.5136  0.0840 -0.1833
 8554SOL    HW126256   4.161   3.825   6.784  0.9126 -0.9566  0.7696
 8554SOL    HW226257   4.154   3.856   6.636 -1.3557  2.4552  1.5453
 8555SOL     OW26258   3.428   1.341   3.206  0.1602  0.6005  0.1335
 8555SOL    HW126259   3.490   1.409   3.181  3.3566 -1.8543  1.0946
 8555SOL    HW226260   3.434   1.276   3.137  0.7768 -0.9757  1.6370
 8556SOL     OW26261   6.937   3.210   2.811  0.7106  0.3987  0.0725
 8556SOL    HW126262   6.900   3.285   2.764  1.3259 -0.7326 -2.2801
 8556SOL    HW226263   7.010   3.247   2.861 -0.2585  1.7136  0.5230
 8557SOL     OW26264   1.701   5.379   4.599  0.2682 -0.8780 -0.0979
 8557SOL    HW126265   1.707   5.446   4.667 -0.6795 -0.8239 -0.0655
 8557SOL    HW226266   1.743   5.302   4.638 -1.8262 -1.3834  1.2239
 8558SOL     OW26267   5.175   0.185   1.936 -0.2497 -0.0731  0.3151
 8558SOL    HW126268   5.194   0.271   1.898  0.5387 -0.4128 -0.0652
 8558SOL    HW226269   5.156   0.129   1.861 -0.4819 -0.3028  0.5435
 8559SOL     OW26270   6.854   5.638   1.474 -0.9319 -0.3164 -0.0000
 8559SOL    HW126271   6.774   5.690   1.484 -1.5138 -1.0448 -0.7898
 8559SOL    HW226272   6.887   5.627   1.563 -1.3822  0.5004  0.2709
 8560SOL     OW26273   6.453   2.843   4.184  0.1083 -0.8244  0.0294
 8560SOL    HW126274   6.380   2.898   4.212  0.6993 -0.9632  1.9092
 8560SOL    HW226275   6.525   2.867   4.242  2.1626  0.6475 -3.0015
 8561SOL     OW26276   0.179   4.384   6.689  0.4444 -0.2729  0.2932
 8561SOL    HW126277   0.183   4.296   6.651 -0.0054 -0.1625 -0.0185
 8561SOL    HW226278   0.196   4.371   6.782 -0.2787 -0.7709  0.3568
 8562SOL     OW26279   0.446   5.016   0.210 -0.5319  0.1012 -0.3525
 8562SOL    HW126280   0.529   5.015   0.163 -0.9029 -0.1597 -1.0050
 8562SOL    HW226281   0.422   5.109   0.214 -0.3991  0.1414 -0.5024
 8563SOL     OW26282   0.695   0.720   2.288  0.0485 -0.3789 -0.0566
 8563SOL    HW126283   0.771   0.666   2.266 -0.3386 -0.2681 -1.7530
 8563SOL    HW226284   0.626   0.689   2.228 -0.2672  1.7806 -0.8401
 8564SOL     OW26285   3.609   3.445   2.580  0.2798 -0.3584 -0.1481
 8564SOL    HW126286   3.578   3.384   2.513  1.8521  0.1586 -1.3846
 8564SOL    HW226287   3.547   3.517   2.579 -0.4761 -0.9988 -0.0663
 8565SOL     OW26288   5.096   0.245   2.622  0.3652 -0.2878  0.2648
 8565SOL    HW126289   5.096   0.234   2.717  0.9846 -0.2619  0.2695
 8565SOL    HW226290   5.016   0.202   2.593 -1.5896  2.6311  1.1255
 8566SOL     OW26291   5.161   2.335   2.689  0.4307  0.0040  0.0864
 8566SOL    HW126292   5.189   2.244   2.696  1.7045  0.1808 -2.2285
 8566SOL    HW226293   5.235   2.386   2.721  1.0849  0.3119 -1.8405
 8567SOL     OW26294   5.046   1.171   1.972 -0.4725 -0.3063  0.6271
 8567SOL    HW126295   5.136   1.195   1.951 -0.7155 -0.6876 -0.8639
 8567SOL    HW226296   5.048   1.076   1.982 -0.9435 -0.4647 -0.6582
 8568SOL     OW26297   5.454   6.102   4.968  0.4162  0.7281  0.9255
 8568SOL    HW126298   5.537   6.126   5.011  0.3913 -0.7156  1.7990
 8568SOL    HW226299   5.389   6.104   5.039  0.2609 -1.0707  0.8450
 8569SOL     OW26300   1.792   3.258   3.645  0.3060  0.4274 -0.2442
 8569SOL    HW126301   1.743   3.231   3.723  1.2487 -1.0693 -0.1636
 8569SOL    HW226302   1.830   3.177   3.611  1.7453  1.3971 -0.9824
 8570SOL     OW26303   4.889   6.970   0.428 -0.6414  0.2821  0.1219
 8570SOL    HW126304   4.891   7.053   0.475 -1.2002  0.7522 -0.6655
 8570SOL    HW226305   4.968   6.924   0.456  0.0075  1.3594  0.0751
 8571SOL     OW26306   4.047   7.001   2.861 -0.3334 -0.1415  0.3865
 8571SOL    HW126307   4.051   6.919   2.911 -0.4284 -0.0313  0.5745
 8571SOL    HW226308   4.001   7.062   2.919 -2.0106 -0.5061 -0.5315
 8572SOL     OW26309   1.924   3.017   1.642 -0.3822 -0.0505  0.2896
 8572SOL    HW126310   2.019   3.020   1.646 -0.2967 -1.1701 -0.6136
 8572SOL    HW226311   1.898   3.108   1.626  0.6825 -0.0764 -1.8336
 8573SOL     OW26312   0.619   5.850   0.613 -0.0133  0.7613 -0.0917
 8573SOL    HW126313   0.622   5.944   0.631 -0.4486  0.8093 -0.2628
 8573SOL    HW226314   0.653   5.841   0.524 -0.5203  0.8211 -0.2950
 8574SOL     OW26315   6.662   1.210   5.754  0.1893 -0.0807  0.4433
 8574SOL    HW126316   6.648   1.279   5.819 -0.2767  0.4063 -0.1685
 8574SOL    HW226317   6.708   1.142   5.801 -0.6251  0.0424  1.4290
 8575SOL     OW26318   1.114   3.881   7.237 -0.5094 -0.4056  0.5255
 8575SOL    HW126319   1.065   3.895   7.318  0.5195  0.2526  1.0424
 8575SOL    HW226320   1.116   3.966   7.195 -1.8290 -0.9424 -0.6560
 8576SOL     OW26321   5.896   5.302   0.397  0.2748  0.9139  0.1368
 8576SOL    HW126322   5.912   5.261   0.482  0.7582 -0.6170 -0.6881
 8576SOL    HW226323   5.977   5.350   0.379  0.4562  0.6314  0.1968
 8577SOL     OW26324   1.645   1.116   6.561 -0.0710  0.3679 -0.5546
 8577SOL    HW126325   1.573   1.126   6.624  0.9084 -1.4115  0.9015
 8577SOL    HW226326   1.668   1.205   6.537  0.0463  1.1505  2.2357
 8578SOL     OW26327   6.856   3.144   1.524 -0.0061  0.0851 -0.3510
 8578SOL    HW126328   6.946   3.120   1.501  0.8510  2.3587  0.4837
 8578SOL    HW226329   6.820   3.065   1.564  1.1751 -1.2742 -1.8730
 8579SOL     OW26330   3.850   1.515   1.440  0.3159 -0.1246  0.1142
 8579SOL    HW126331   3.864   1.570   1.364  0.6403 -1.5073 -0.8461
 8579SOL    HW226332   3.834   1.576   1.512  1.6686  1.2305 -0.7165
 8580SOL     OW26333   5.757   2.878   2.568  0.0986 -0.1635 -0.1841
 8580SOL    HW126334   5.726   2.837   2.649  1.3336  0.3863  0.5736
 8580SOL    HW226335   5.677   2.901   2.521 -0.6265 -1.2146  0.5053
 8581SOL     OW26336   3.314   2.900   1.755 -0.1121 -0.2797  0.0791
 8581SOL    HW126337   3.403   2.936   1.751 -0.4549  0.9634  2.4693
 8581SOL    HW226338   3.296   2.869   1.666  2.4411  0.1014 -0.5977
 8582SOL     OW26339   2.406   0.096   0.920 -0.4651 -0.0120 -0.6729
 8582SOL    HW126340   2.458   0.066   0.995  1.9060  4.8086 -0.2153
 8582SOL    HW226341   2.464   0.083   0.844  0.6937  3.2503 -0.4425
 8583SOL     OW26342   2.715   3.170   0.775 -0.1811 -0.1734  0.4657
 8583SOL    HW126343   2.690   3.078   0.760  1.6095 -0.5958 -0.0991
 8583SOL    HW226344   2.773   3.190   0.701  0.1153  1.1532  1.0597
 8584SOL     OW26345   4.818   4.464   3.039  0.2407 -0.2677 -0.6053
 8584SOL    HW126346   4.776   4.409   2.973 -0.7150  3.2116 -3.0977
 8584SOL    HW226347   4.906   4.427   3.050 -1.3987 -4.0671  0.1914
 8585SOL     OW26348   6.256   1.274   1.060 -0.0825  0.0102  0.2301
 8585SOL    HW126349   6.246   1.360   1.102 -1.1549  0.3240 -0.6600
 8585SOL    HW226350   6.176   1.228   1.081  1.0662 -1.3077  1.8713
 8586SOL     OW26351   5.027   4.565   0.563  0.2787 -0.5300  0.2103
 8586SOL    HW126352   5.058   4.516   0.639  0.1251  0.3532  0.8505
 8586SOL    HW226353   5.075   4.648   0.566  1.3867 -1.0764 -1.4999
 8587SOL     OW26354   0.771   5.267   2.935 -0.1327  0.5778 -0.4801
 8587SOL    HW126355   0.793   5.358   2.955 -0.0902  0.4417  0.1292
 8587SOL    HW226356   0.675   5.264   2.936 -0.1322  0.5894 -0.3625
 8588SOL     OW26357   5.767   1.102   6.327 -0.2909 -0.4883  0.6368
 8588SOL    HW126358   5.808   1.040   6.267 -0.0008 -0.3249  0.6691
 8588SOL    HW226359   5.786   1.068   6.414 -2.3303 -1.7931  0.6273
 8589SOL     OW26360   3.106   1.860   5.043  0.5159  0.1611  0.1370
 8589SOL    HW126361   3.103   1.939   5.098  0.1331  0.2811 -0.0483
 8589SOL    HW226362   3.199   1.844   5.029  0.5860  0.9078 -0.2836
 8590SOL     OW26363   0.707   2.246   0.535  0.4912  0.1934  0.2127
 8590SOL    HW126364   0.783   2.296   0.565  0.8528  0.3245 -0.9025
 8590SOL    HW226365   0.632   2.292   0.572  0.9339  0.3071  0.9696
 8591SOL     OW26366   7.098   2.318   2.880  0.1261  0.9086  0.2903
 8591SOL    HW126367   7.136   2.277   2.957 -1.1528 -1.9489 -0.5210
 8591SOL    HW226368   7.008   2.339   2.906 -0.4951 -0.5974 -0.5488
 8592SOL     OW26369   3.559   6.338   0.526 -1.1329 -0.1093 -0.0140
 8592SOL    HW126370   3.543   6.306   0.615  0.8527  1.9571  1.1585
 8592SOL    HW226371   3.494   6.408   0.514 -0.8537  0.1852  0.1637
 8593SOL     OW26372   0.822   6.158   0.398 -0.5027 -0.3424  0.2535
 8593SOL    HW126373   0.818   6.105   0.318 -2.2391  1.3807 -0.8375
 8593SOL    HW226374   0.828   6.094   0.469  0.5438 -1.9145 -1.2124
 8594SOL     OW26375   0.647   4.085   2.431  0.0654 -0.4488 -0.0970
 8594SOL    HW126376   0.680   4.063   2.344  1.4149 -1.5323  0.6837
 8594SOL    HW226377   0.556   4.054   2.431  0.5369 -1.8537 -0.5867
 8595SOL     OW26378   4.557   5.696   0.458 -0.1678 -0.2728  0.0085
 8595SOL    HW126379   4.607   5.629   0.505  0.1808  1.0836  1.6170
 8595SOL    HW226380   4.622   5.763   0.436 -1.1738  1.3360  1.8046
 8596SOL     OW26381   6.679   3.757   5.013 -0.5687  0.0811 -0.3846
 8596SOL    HW126382   6.770   3.773   5.036 -0.9525  1.9346 -0.0460
 8596SOL    HW226383   6.669   3.798   4.926 -1.6061  1.8346  0.5281
 8597SOL     OW26384   5.406   0.479   5.577  0.3020  0.3812 -0.2992
 8597SOL    HW126385   5.426   0.400   5.527 -0.7144  0.2306 -0.4634
 8597SOL    HW226386   5.394   0.547   5.511 -0.2132  0.3660 -0.2224
 8598SOL     OW26387   3.547   1.000   5.492  0.3166  0.0225  0.3057
 8598SOL    HW126388   3.510   0.930   5.437  0.3262  0.2200  0.0477
 8598SOL    HW226389   3.631   1.020   5.451 -0.1884  0.9758 -0.2842
 8599SOL     OW26390   1.051   1.377   0.059 -0.3262 -0.2631 -0.1823
 8599SOL    HW126391   1.022   1.291   0.092 -1.6796  0.2806  0.0872
 8599SOL    HW226392   0.970   1.420   0.030  0.2496  1.2122  0.3545
 8600SOL     OW26393   3.713   1.434   5.088 -0.5285  1.1737  0.3520
 8600SOL    HW126394   3.784   1.458   5.147  1.3283 -0.3071 -1.1952
 8600SOL    HW226395   3.738   1.471   5.004 -1.4232  0.3877 -0.2733
 8601SOL     OW26396   7.126   4.820   1.116  0.5393  0.3752 -0.2128
 8601SOL    HW126397   7.055   4.879   1.140  0.4507  0.3290 -0.3548
 8601SOL    HW226398   7.173   4.866   1.046 -0.3173 -0.2799 -1.2233
 8602SOL     OW26399   4.547   0.593   1.079 -0.3788  0.5055 -0.1249
 8602SOL    HW126400   4.461   0.552   1.091  0.9845 -1.9330  1.6395
 8602SOL    HW226401   4.531   0.665   1.018 -3.7339  0.2858  0.4100
 8603SOL     OW26402   2.287   6.812   2.866  0.2034 -0.2457  0.0113
 8603SOL    HW126403   2.259   6.856   2.786  0.1540  0.6156  0.4947
 8603SOL    HW226404   2.383   6.811   2.860  0.2228  0.2846  0.1787
 8604SOL     OW26405   2.381   6.166   1.856 -0.0218 -0.2239 -0.1956
 8604SOL    HW126406   2.435   6.233   1.813 -0.3684  0.7650  0.8846
 8604SOL    HW226407   2.341   6.118   1.783  0.2274  0.7377 -0.9910
 8605SOL     OW26408   2.274   4.952   2.869  0.5387 -0.4205  0.3347
 8605SOL    HW126409   2.313   5.002   2.797  0.3794 -0.2049  0.3963
 8605SOL    HW226410   2.192   4.998   2.888  0.4834 -0.5972  0.5166
 8606SOL     OW26411   6.695   1.059   2.129 -0.0338 -0.1899 -0.1251
 8606SOL    HW126412   6.695   1.154   2.126 -2.4428 -0.0873  1.8568
 8606SOL    HW226413   6.673   1.032   2.040 -0.1429  1.1133 -0.4968
 8607SOL     OW26414   5.944   0.488   2.979 -0.1693  0.2630 -0.2121
 8607SOL    HW126415   5.899   0.404   2.983  1.3744 -0.5437  0.5396
 8607SOL    HW226416   5.879   0.551   3.011 -1.6717 -0.4736 -1.7301
 8608SOL     OW26417   6.735   1.418   2.977  0.1485  0.4343 -0.5008
 8608SOL    HW126418   6.680   1.340   2.985 -1.2365  1.0714 -3.1359
 8608SOL    HW226419   6.718   1.468   3.057 -1.4453 -0.4262 -0.2723
 8609SOL     OW26420   6.679   1.704   5.188  0.4380  0.2295 -0.8394
 8609SOL    HW126421   6.611   1.691   5.122  0.9119 -1.0560 -1.0927
 8609SOL    HW226422   6.636   1.690   5.272 -0.2584  2.2488 -0.8393
 8610SOL     OW26423   1.872   4.839   0.199  0.1444 -0.4683  0.2010
 8610SOL    HW126424   1.820   4.803   0.126  0.1998 -0.9377  0.3934
 8610SOL    HW226425   1.812   4.838   0.273  0.9018 -2.4971  0.8140
 8611SOL     OW26426   4.233   1.583   6.567  0.3231 -0.0675  0.0344
 8611SOL    HW126427   4.316   1.601   6.523 -0.0393 -0.3680 -0.7866
 8611SOL    HW226428   4.256   1.573   6.659  0.9361  1.6323  0.0746
 8612SOL     OW26429   2.151   4.560   1.569 -0.1526  0.3270  0.1503
 8612SOL    HW126430   2.176   4.583   1.659 -0.5475  2.1279 -0.1712
 8612SOL    HW226431   2.183   4.471   1.557 -1.5173 -0.5533  2.6104
 8613SOL     OW26432   7.155   5.441   4.349 -0.0935  0.0830 -0.4481
 8613SOL    HW126433   7.151   5.351   4.314  1.2395 -0.9039  1.8475
 8613SOL    HW226434   7.248   5.460   4.355 -0.2933  0.3060  2.3125
 8614SOL     OW26435   1.689   0.965   6.817  0.3005  0.2163  0.3483
 8614SOL    HW126436   1.637   0.931   6.743 -2.7767  0.5122  2.2764
 8614SOL    HW226437   1.757   0.899   6.830 -0.9350 -1.3567 -0.8522
 8615SOL     OW26438   1.469   1.979   6.328 -0.6337  0.0096  0.2291
 8615SOL    HW126439   1.558   1.946   6.339  0.2727  1.9897 -0.9295
 8615SOL    HW226440   1.436   1.935   6.249 -0.0876  0.5054 -0.2763
 8616SOL     OW26441   4.896   0.279   1.606 -0.0409 -0.3363  0.5582
 8616SOL    HW126442   4.868   0.370   1.607  1.8062  0.2543  2.2959
 8616SOL    HW226443   4.856   0.240   1.684  0.1470 -0.7024  0.4750
 8617SOL     OW26444   1.514   3.639   6.218 -0.0631 -0.1642  0.0991
 8617SOL    HW126445   1.485   3.714   6.165 -1.1907  1.6443  3.1148
 8617SOL    HW226446   1.434   3.607   6.259  0.9086 -0.8851  1.4628
 8618SOL     OW26447   5.788   3.267   4.999  0.0088 -0.2372 -0.2880
 8618SOL    HW126448   5.741   3.187   4.976 -0.1497 -0.5725  1.1789
 8618SOL    HW226449   5.874   3.237   5.028  1.5465  0.4297 -3.8517
 8619SOL     OW26450   5.052   3.902   0.145  0.3096 -0.1764  0.8127
 8619SOL    HW126451   5.040   3.980   0.200  3.2504 -0.1000  1.4406
 8619SOL    HW226452   5.096   3.935   0.067  0.7273 -1.0688  0.6718
 8620SOL     OW26453   0.205   1.754   2.739 -0.0780 -0.5658  0.1234
 8620SOL    HW126454   0.260   1.749   2.817  2.0803 -0.0559 -1.2945
 8620SOL    HW226455   0.173   1.844   2.738  1.4780  0.0126 -0.5583
 8621SOL     OW26456   0.858   4.220   7.239 -0.2635  0.2805 -0.3472
 8621SOL    HW126457   0.869   4.258   7.152 -1.5243  0.0913 -0.5970
 8621SOL    HW226458   0.918   4.270   7.295  2.1892 -1.0048 -1.7052
 8622SOL     OW26459   2.154   1.469   5.468 -0.0776  0.2058  0.5834
 8622SOL    HW126460   2.106   1.513   5.398  1.9967  1.7752  0.0775
 8622SOL    HW226461   2.176   1.539   5.529  2.0941 -0.3401  0.4607
 8623SOL     OW26462   4.477   2.490   0.793 -0.3407 -0.3020 -0.1999
 8623SOL    HW126463   4.387   2.471   0.819  0.2147 -1.3367  1.0697
 8623SOL    HW226464   4.471   2.518   0.702 -1.8455 -1.2874 -0.4233
 8624SOL     OW26465   6.275   5.167   1.467  0.1347  0.1608 -0.5778
 8624SOL    HW126466   6.300   5.084   1.505 -1.2750 -0.0228 -0.0344
 8624SOL    HW226467   6.180   5.170   1.475  0.2267  2.1320  0.0547
 8625SOL     OW26468   2.146   3.193   4.221 -0.3541 -0.4376  0.1642
 8625SOL    HW126469   2.167   3.139   4.144  0.8749 -0.4749  0.5152
 8625SOL    HW226470   2.050   3.201   4.219 -0.3757 -0.8350 -1.1006
 8626SOL     OW26471   5.539   2.248   0.747 -0.0218  0.5936  0.0452
 8626SOL    HW126472   5.461   2.234   0.800 -1.0352 -0.7514 -1.7564
 8626SOL    HW226473   5.506   2.285   0.665  1.2984  0.5815 -0.4993
 8627SOL     OW26474   4.093   3.925   6.251 -0.0123  0.3268  0.1775
 8627SOL    HW126475   4.044   3.843   6.262  0.3894  0.2669  1.6611
 8627SOL    HW226476   4.154   3.907   6.179  0.5167 -0.8967  0.9214
 8628SOL     OW26477   3.945   7.055   0.935  0.3539 -0.2666  0.3008
 8628SOL    HW126478   3.961   6.960   0.938  1.5321 -0.1191 -0.7667
 8628SOL    HW226479   4.012   7.088   0.875 -1.1676  1.0250 -0.7187
 8629SOL     OW26480   6.234   1.688   0.499 -0.4521  0.0762 -0.3720
 8629SOL    HW126481   6.280   1.763   0.460  0.0677 -1.2934 -2.5215
 8629SOL    HW226482   6.141   1.711   0.492 -0.2680  0.8935 -0.2217
 8630SOL     OW26483   1.838   6.271   1.860  0.3876  0.1295 -0.1862
 8630SOL    HW126484   1.800   6.220   1.932 -0.7104  1.0630 -0.0818
 8630SOL    HW226485   1.762   6.308   1.815  1.0860 -0.2184 -1.6692
 8631SOL     OW26486   1.289   6.582   4.012 -0.0970  0.2812  0.3116
 8631SOL    HW126487   1.271   6.489   3.999  0.0222  0.1483  1.0869
 8631SOL    HW226488   1.384   6.588   4.017 -0.0659  0.5573 -0.5462
 8632SOL     OW26489   5.644   0.714   5.121  0.3762  0.3087 -0.0833
 8632SOL    HW126490   5.658   0.790   5.065  3.2111 -0.2788 -0.2464
 8632SOL    HW226491   5.572   0.667   5.080  0.3041  1.5491 -1.4338
 8633SOL     OW26492   0.096   7.117   2.444 -0.3571  0.0655  0.3318
 8633SOL    HW126493   0.131   7.044   2.393  0.4831  1.4709 -1.1531
 8633SOL    HW226494   0.161   7.131   2.513 -0.2032 -0.1804  0.2361
 8634SOL     OW26495   5.966   3.712   1.437  0.1395 -0.6683  0.0658
 8634SOL    HW126496   6.056   3.710   1.470  0.2323 -3.0727 -0.2425
 8634SOL    HW226497   5.950   3.623   1.407 -1.9267  0.0542 -1.0579
 8635SOL     OW26498   1.196   5.170   6.172  0.1175 -0.4618 -0.0322
 8635SOL    HW126499   1.197   5.138   6.262 -0.5743 -1.6481 -0.4395
 8635SOL    HW226500   1.130   5.239   6.171 -0.2236 -0.7848  0.2553
 8636SOL     OW26501   3.706   5.202   0.146  0.3023  0.1867 -0.1850
 8636SOL    HW126502   3.666   5.118   0.171  0.1892  0.6727  1.3325
 8636SOL    HW226503   3.634   5.252   0.108  0.9073 -1.2880 -3.3635
 8637SOL     OW26504   4.883   0.145   5.995  0.0308  0.5877 -0.2226
 8637SOL    HW126505   4.844   0.097   6.068  0.6400 -0.4672 -0.5812
 8637SOL    HW226506   4.881   0.237   6.023  0.6527  0.1562  1.3017
 8638SOL     OW26507   0.450   6.376   1.075  0.3866  0.3557  0.3387
 8638SOL    HW126508   0.361   6.407   1.092  0.0267  0.1717 -1.2098
 8638SOL    HW226509   0.440   6.282   1.060  1.2210 -0.2088  3.0264
 8639SOL     OW26510   3.984   1.044   6.193 -0.5759 -0.4087  0.1071
 8639SOL    HW126511   3.943   0.968   6.234  1.4619 -2.1981 -1.0908
 8639SOL    HW226512   3.949   1.044   6.104  1.3554 -1.4659 -0.6711
 8640SOL     OW26513   1.253   6.258   0.423  0.0025 -0.0031 -0.0044
 8640SOL    HW126514   1.237   6.166   0.403 -1.6352  0.2887 -0.0872
 8640SOL    HW226515   1.201   6.306   0.359 -0.6622  0.9777  1.2523
 8641SOL     OW26516   7.129   0.446   2.350  0.4393 -0.0141 -0.0997
 8641SOL    HW126517   7.077   0.498   2.288  1.1944  0.6707 -0.1604
 8641SOL    HW226518   7.115   0.489   2.435 -0.3885 -0.7998  0.1826
 8642SOL     OW26519   3.757   3.831   3.605  0.0061 -0.2274  0.1426
 8642SOL    HW126520   3.815   3.845   3.680 -1.9707 -2.0819  2.0707
 8642SOL    HW226521   3.673   3.867   3.633 -0.5219 -0.0688 -1.5805
 8643SOL     OW26522   6.970   4.324   4.162 -0.8657  0.1993  0.4519
 8643SOL    HW126523   6.901   4.259   4.172 -2.3425  1.6967  0.1221
 8643SOL    HW226524   6.924   4.406   4.149  0.9780  1.0667 -0.7628
 8644SOL     OW26525   1.253   3.505   0.565  0.2494 -0.5006  0.5905
 8644SOL    HW126526   1.204   3.426   0.586 -0.3840  0.2269  1.9340
 8644SOL    HW226527   1.188   3.575   0.569  1.0935  0.2790  0.8387
 8645SOL     OW26528   0.749   7.225   5.640  0.4410  0.0933  0.0882
 8645SOL    HW126529   0.752   7.144   5.589  1.5039  0.8819 -1.1195
 8645SOL    HW226530   0.693   7.283   5.590  0.4741  0.4500  0.4596
 8646SOL     OW26531   5.542   2.684   6.281  0.0850  0.3306  0.4904
 8646SOL    HW126532   5.598   2.751   6.321  0.2035  0.2805  0.4090
 8646SOL    HW226533   5.603   2.615   6.255  0.0791  0.6248 -0.3109
 8647SOL     OW26534   3.039   5.092   3.389  0.2031  0.2005  0.0024
 8647SOL    HW126535   3.080   5.072   3.473 -0.7057  2.2362  0.9643
 8647SOL    HW226536   2.946   5.099   3.408 -0.0935 -0.0138 -1.3116
 8648SOL     OW26537   2.415   4.862   6.588 -0.0106  0.3674 -0.0996
 8648SOL    HW126538   2.376   4.934   6.637 -1.6862  0.2630 -1.2487
 8648SOL    HW226539   2.367   4.784   6.618  1.1226 -0.1360  0.4228
 8649SOL     OW26540   6.511   5.517   4.031 -0.5896  0.3036  0.5528
 8649SOL    HW126541   6.512   5.562   3.947  1.6199  0.9766  0.8823
 8649SOL    HW226542   6.568   5.571   4.087 -0.1522 -1.3898  1.7770
 8650SOL     OW26543   1.766   6.946   4.862  0.0214  0.2161 -0.3172
 8650SOL    HW126544   1.681   6.971   4.824  1.8965  0.8935 -4.3027
 8650SOL    HW226545   1.800   6.879   4.803  1.7040 -1.0596  2.0178
 8651SOL     OW26546   6.148   7.083   5.970 -0.3906 -0.4272  0.1450
 8651SOL    HW126547   6.234   7.053   5.939  0.6286  1.7805  0.7690
 8651SOL    HW226548   6.161   7.100   6.063 -1.1292  1.3025 -0.0674
 8652SOL     OW26549   4.483   0.130   3.804  0.7672  0.6523  0.2654
 8652SOL    HW126550   4.456   0.192   3.872  0.8430 -0.6574  1.5156
 8652SOL    HW226551   4.404   0.116   3.752  0.2302  0.2979  1.1658
 8653SOL     OW26552   4.530   4.489   2.075 -0.2128 -0.0132 -0.8134
 8653SOL    HW126553   4.585   4.498   2.153  0.8113 -0.7866 -1.4360
 8653SOL    HW226554   4.460   4.553   2.089  0.0839  0.0346  0.6250
 8654SOL     OW26555   2.852   3.415   4.683  0.3575  0.0652 -0.0937
 8654SOL    HW126556   2.855   3.325   4.650 -1.2387  0.1084 -0.4008
 8654SOL    HW226557   2.942   3.434   4.710  0.4832 -2.0085  1.0050
 8655SOL     OW26558   5.091   6.389   6.564 -0.2923 -0.1342  0.1857
 8655SOL    HW126559   5.080   6.364   6.655  0.9290 -0.0188  0.3631
 8655SOL    HW226560   5.126   6.311   6.520  0.7041  0.3194  0.1563
 8656SOL     OW26561   5.090   3.607   2.121 -0.4291 -0.6917  0.0915
 8656SOL    HW126562   5.055   3.540   2.179  0.6082  0.5896  2.2467
 8656SOL    HW226563   5.136   3.668   2.179  2.1786 -0.3326 -2.2441
 8657SOL     OW26564   1.120   4.810   3.066 -0.1962  0.0642 -0.0485
 8657SOL    HW126565   1.187   4.854   3.117  0.2150  0.5771 -1.0139
 8657SOL    HW226566   1.070   4.881   3.026  0.6319 -0.3189 -1.8202
 8658SOL     OW26567   3.102   0.894   6.116  0.7424 -0.3192  0.4757
 8658SOL    HW126568   3.016   0.909   6.076 -0.0582  0.7517  2.5311
 8658SOL    HW226569   3.161   0.954   6.070  0.3880 -0.9296 -0.8231
 8659SOL     OW26570   0.445   0.088   6.522  0.9169 -0.4242  0.0797
 8659SOL    HW126571   0.401   0.146   6.584  0.5492 -1.3474  0.6901
 8659SOL    HW226572   0.471   0.012   6.574  0.7780 -1.1204 -0.8539
 8660SOL     OW26573   3.387   0.596   1.086 -0.3605 -0.5194  0.3788
 8660SOL    HW126574   3.395   0.506   1.056  1.4047 -0.6718  1.2838
 8660SOL    HW226575   3.333   0.591   1.165 -0.8260 -0.6959  0.0508
 8661SOL     OW26576   5.121   3.087   5.002 -0.6232  0.6472 -0.1434
 8661SOL    HW126577   5.216   3.081   5.007 -0.5878  1.0019 -0.3952
 8661SOL    HW226578   5.098   3.035   4.925 -0.4769  2.0729 -1.1663
 8662SOL     OW26579   0.632   4.970   3.267 -0.4587  0.1771  0.2082
 8662SOL    HW126580   0.641   4.875   3.259  0.5735  0.2416  0.4741
 8662SOL    HW226581   0.540   4.985   3.285 -0.5086 -0.8148  0.7625
 8663SOL     OW26582   4.528   5.369   3.369 -0.2549 -0.5307 -0.2370
 8663SOL    HW126583   4.492   5.428   3.303  0.3569 -0.2591 -0.3238
 8663SOL    HW226584   4.513   5.281   3.333  0.8293 -0.3598 -1.1261
 8664SOL     OW26585   6.960   3.511   6.214 -0.1922 -0.6176  0.3269
 8664SOL    HW126586   6.886   3.494   6.273  0.4798  0.7357  1.6250
 8664SOL    HW226587   6.967   3.607   6.213  0.8140 -0.6970 -0.7132
 8665SOL     OW26588   7.159   1.747   1.003 -0.8215 -0.2963 -0.3522
 8665SOL    HW126589   7.080   1.788   0.966 -0.5879 -0.7907 -1.4071
 8665SOL    HW226590   7.173   1.669   0.950  0.5570 -0.0543 -0.3699
 8666SOL     OW26591   5.684   6.769   4.804  0.0091  0.0048 -0.5402
 8666SOL    HW126592   5.770   6.811   4.811 -0.0279 -0.1483  1.0185
 8666SOL    HW226593   5.644   6.782   4.890 -1.7412  0.5172 -1.3930
 8667SOL     OW26594   0.611   0.421   3.140  0.6611 -0.2515 -0.0418
 8667SOL    HW126595   0.575   0.332   3.137  0.4148 -0.1886  0.7653
 8667SOL    HW226596   0.699   0.409   3.177  0.7273 -0.1864 -0.1772
 8668SOL     OW26597   4.335   4.409   4.077 -0.0852  0.2553 -0.0798
 8668SOL    HW126598   4.410   4.361   4.111  0.4575  1.6046  0.6705
 8668SOL    HW226599   4.276   4.418   4.152 -0.5892 -0.0234 -0.4412
 8669SOL     OW26600   5.411   3.034   0.151 -0.2165 -0.3090  0.1082
 8669SOL    HW126601   5.486   3.008   0.205  0.9203  0.3804 -1.1256
 8669SOL    HW226602   5.441   3.023   0.061 -1.6695 -0.1987 -0.4025
 8670SOL     OW26603   2.435   5.720   5.116 -0.7379  0.3442 -0.2486
 8670SOL    HW126604   2.517   5.765   5.097 -0.7769 -0.1941 -1.7479
 8670SOL    HW226605   2.384   5.727   5.036 -0.9567 -1.8716 -0.3396
 8671SOL     OW26606   6.955   6.576   2.307  0.0218  0.0375 -0.0673
 8671SOL    HW126607   6.865   6.541   2.307 -0.6889  1.8490  0.9705
 8671SOL    HW226608   6.970   6.600   2.215 -1.4605  1.9693  0.1592
 8672SOL     OW26609   4.563   1.310   1.366 -0.9975  0.0914 -0.0041
 8672SOL    HW126610   4.643   1.326   1.417 -0.3081 -0.2207 -0.9738
 8672SOL    HW226611   4.547   1.391   1.319 -2.4462  0.8739  1.7839
 8673SOL     OW26612   0.209   4.776   1.183 -0.0920 -0.2661  0.4900
 8673SOL    HW126613   0.169   4.853   1.142  0.0631  1.7394  3.8692
 8673SOL    HW226614   0.301   4.780   1.157  0.3334  1.8541  2.1703
 8674SOL     OW26615   2.842   5.110   0.267 -0.2320 -0.1071 -0.6043
 8674SOL    HW126616   2.813   5.190   0.311  1.0341  0.5097 -0.8600
 8674SOL    HW226617   2.790   5.107   0.187 -1.6872 -0.5976  0.3359
 8675SOL     OW26618   3.962   1.228   0.761  0.2548  0.5350  0.1359
 8675SOL    HW126619   3.964   1.139   0.797  1.6769  1.3503  2.1927
 8675SOL    HW226620   3.876   1.235   0.720  0.3116 -1.9520 -0.5197
 8676SOL     OW26621   2.387   4.264   0.240 -0.0695  0.0666 -0.6734
 8676SOL    HW126622   2.314   4.275   0.301 -0.3704 -2.7601 -0.4223
 8676SOL    HW226623   2.454   4.324   0.272 -0.7778 -0.2676  1.5789
 8677SOL     OW26624   6.659   6.361   0.941 -0.2742  0.3276  0.5140
 8677SOL    HW126625   6.658   6.270   0.911  0.3397  0.4105  0.2379
 8677SOL    HW226626   6.746   6.372   0.980 -0.7758  0.4458  1.6357
 8678SOL     OW26627   4.563   4.990   4.231  0.0958 -0.0613  0.0664
 8678SOL    HW126628   4.619   4.978   4.307 -1.7789  0.1083  1.5288
 8678SOL    HW226629   4.554   4.903   4.193 -0.0022 -0.3747  0.8038
 8679SOL     OW26630   5.736   2.993   4.897 -0.1740  0.2960  0.4156
 8679SOL    HW126631   5.692   2.929   4.841  1.2834 -0.4106  0.0634
 8679SOL    HW226632   5.784   2.940   4.961  0.5521  1.0373  0.4946
 8680SOL     OW26633   3.570   2.084   3.637  0.0403  0.1688  0.3450
 8680SOL    HW126634   3.564   1.994   3.670 -1.6473 -0.0221 -0.4380
 8680SOL    HW226635   3.640   2.081   3.572 -0.1178 -0.6051  0.2048
 8681SOL     OW26636   6.899   6.468   4.593  0.1059 -0.3354 -0.1518
 8681SOL    HW126637   6.872   6.396   4.651  2.0962 -0.3032  0.8849
 8681SOL    HW226638   6.913   6.542   4.652  0.3153  0.2461 -0.9283
 8682SOL     OW26639   1.272   2.812   3.875  0.3299  0.0560 -0.3106
 8682SOL    HW126640   1.240   2.863   3.801  0.5124 -1.1692 -1.2528
 8682SOL    HW226641   1.309   2.877   3.934 -1.0478  1.1752 -0.6588
 8683SOL     OW26642   1.352   1.490   3.961 -0.2400 -0.5023 -0.1638
 8683SOL    HW126643   1.277   1.502   4.019 -1.5845  1.3830 -2.2279
 8683SOL    HW226644   1.428   1.505   4.017 -1.3873 -1.6326  1.7705
 8684SOL     OW26645   0.648   1.179   4.733 -0.7252 -0.1881 -0.2385
 8684SOL    HW126646   0.743   1.168   4.737 -0.4982  0.5211 -2.6843
 8684SOL    HW226647   0.620   1.188   4.824  1.4182 -1.4389  0.5719
 8685SOL     OW26648   3.560   3.356   6.285  0.2543  0.3555 -0.2163
 8685SOL    HW126649   3.577   3.262   6.281 -0.6884  0.1459  0.4672
 8685SOL    HW226650   3.525   3.371   6.372 -1.1464  1.0807 -0.8810
 8686SOL     OW26651   0.429   2.269   3.907 -0.0681 -0.1742 -0.0983
 8686SOL    HW126652   0.434   2.344   3.847  0.1342 -0.3472 -0.2975
 8686SOL    HW226653   0.465   2.196   3.857  0.0736 -0.3258  0.2231
 8687SOL     OW26654   2.474   0.857   4.201 -0.2391  0.1967 -0.0204
 8687SOL    HW126655   2.568   0.876   4.203 -0.1360 -0.2183 -0.6044
 8687SOL    HW226656   2.440   0.894   4.282  0.4837  0.0885  0.3378
 8688SOL     OW26657   2.558   4.512   1.420  0.2218 -0.0016  0.3240
 8688SOL    HW126658   2.526   4.551   1.501 -0.2716 -0.1631  0.2070
 8688SOL    HW226659   2.555   4.583   1.356 -1.7790 -0.5103 -0.1828
 8689SOL     OW26660   4.926   4.275   0.986 -0.5794  0.3116 -0.0697
 8689SOL    HW126661   4.992   4.291   1.054  0.7784  0.1033 -1.3185
 8689SOL    HW226662   4.888   4.361   0.968 -0.8828  0.3828  0.8676
 8690SOL     OW26663   0.696   2.597   5.239  0.1080 -0.0365  0.2739
 8690SOL    HW126664   0.762   2.536   5.208 -1.3553 -1.5783  0.1367
 8690SOL    HW226665   0.615   2.568   5.198 -0.7738  1.4614  0.9068
 8691SOL     OW26666   5.642   2.140   5.001 -0.1930 -0.3687  0.3297
 8691SOL    HW126667   5.694   2.186   4.935 -0.5127  0.1403  0.4328
 8691SOL    HW226668   5.579   2.205   5.031  1.2313  0.0191  2.5791
 8692SOL     OW26669   6.216   1.132   6.784 -0.3097 -0.1581  0.1401
 8692SOL    HW126670   6.181   1.215   6.816  2.2064 -0.3016  3.6502
 8692SOL    HW226671   6.175   1.066   6.840  1.0523 -0.8314  0.3714
 8693SOL     OW26672   4.521   1.748   2.727 -0.2356 -0.0379 -0.4170
 8693SOL    HW126673   4.468   1.673   2.752 -1.2497 -0.2343 -2.9689
 8693SOL    HW226674   4.485   1.776   2.643  2.1253  1.3735 -1.0217
 8694SOL     OW26675   3.560   4.880   5.285  0.1092  0.1567  0.1788
 8694SOL    HW126676   3.589   4.797   5.248  0.6210 -0.0730  1.0613
 8694SOL    HW226677   3.592   4.946   5.225  1.0459 -0.1992  0.2808
 8695SOL     OW26678   0.022   6.272   4.261  0.6882  0.4151 -0.3675
 8695SOL    HW126679  -0.044   6.340   4.269  1.3904  1.2771 -1.8044
 8695SOL    HW226680   0.088   6.309   4.203  1.0061 -1.5349 -1.2884
 8696SOL     OW26681   5.234   2.360   4.852  0.4788  0.1261  0.0896
 8696SOL    HW126682   5.142   2.335   4.846  0.4416  0.2755  0.0350
 8696SOL    HW226683   5.234   2.454   4.836  0.7511 -0.0332 -0.9286
 8697SOL     OW26684   4.011   0.667   2.549  0.4088  0.1758 -0.6703
 8697SOL    HW126685   4.092   0.674   2.599  1.0205  0.4553 -1.6749
 8697SOL    HW226686   4.017   0.738   2.484  0.0476 -0.7298 -1.7095
 8698SOL     OW26687   0.238   3.358   5.973 -0.0108 -0.5645 -0.0974
 8698SOL    HW126688   0.152   3.323   5.952  0.0161 -0.0876 -1.0288
 8698SOL    HW226689   0.227   3.399   6.059 -0.1373 -2.4906  0.8456
 8699SOL     OW26690   2.505   3.193   1.103  0.1518 -0.4527 -0.1194
 8699SOL    HW126691   2.436   3.260   1.101  1.1536  0.5681 -1.3283
 8699SOL    HW226692   2.586   3.241   1.119  0.7698 -1.4922 -0.0287
 8700SOL     OW26693   6.304   6.107   4.036 -0.1649  0.1829 -0.1832
 8700SOL    HW126694   6.371   6.041   4.019  0.3783  0.9028 -0.8547
 8700SOL    HW226695   6.266   6.125   3.951  0.5137  1.6171 -0.1874
 8701SOL     OW26696   1.621   2.267   6.775 -0.8282 -0.1807 -0.0232
 8701SOL    HW126697   1.672   2.204   6.723 -1.0776  0.2681 -0.8127
 8701SOL    HW226698   1.539   2.222   6.792 -0.8593 -0.2184 -0.2677
 8702SOL     OW26699   4.311   5.440   3.090  0.4380 -0.0557  0.4081
 8702SOL    HW126700   4.285   5.485   3.170  0.9659 -0.8357  1.0324
 8702SOL    HW226701   4.289   5.501   3.020 -0.6926  0.3383  1.0949
 8703SOL     OW26702   6.146   4.982   5.659 -0.1967  0.2927  0.2017
 8703SOL    HW126703   6.069   5.024   5.620 -1.3040 -0.6799  1.2835
 8703SOL    HW226704   6.151   5.018   5.747 -0.1911 -0.6210  0.5811
 8704SOL     OW26705   4.962   4.623   2.192  0.1781  0.2496 -0.6051
 8704SOL    HW126706   4.999   4.709   2.214  0.3539 -0.0059  0.0943
 8704SOL    HW226707   5.019   4.591   2.122  0.3537  0.5286 -0.5939
 8705SOL     OW26708   2.066   6.453   2.620  0.5910  0.0367  0.0491
 8705SOL    HW126709   2.010   6.529   2.632  1.5064  0.5813  0.9039
 8705SOL    HW226710   2.072   6.413   2.706  1.2402 -0.2134 -0.1032
 8706SOL     OW26711   2.860   1.033   1.029  0.4192 -0.0211 -0.0395
 8706SOL    HW126712   2.813   1.115   1.042  0.3223 -0.3811  2.1253
 8706SOL    HW226713   2.944   1.058   0.991 -0.1236  0.9580 -0.5839
 8707SOL     OW26714   2.134   3.745   1.290 -0.2518 -0.0715 -0.2161
 8707SOL    HW126715   2.181   3.731   1.372 -1.5611 -1.6541  0.3051
 8707SOL    HW226716   2.197   3.724   1.222  0.5904  0.3992  0.4203
 8708SOL     OW26717   3.974   3.772   0.345 -0.2296 -1.0079 -0.1329
 8708SOL    HW126718   3.938   3.684   0.333 -0.4554 -0.9131 -0.1648
 8708SOL    HW226719   4.061   3.768   0.307 -1.0780 -0.6021 -2.1683
 8709SOL     OW26720   1.822   4.952   1.130 -0.7734  0.0602  1.0461
 8709SOL    HW126721   1.840   5.043   1.106  2.0726 -0.2710  1.8016
 8709SOL    HW226722   1.756   4.958   1.200 -0.8258  1.5310  0.8758
 8710SOL     OW26723   7.110   3.813   0.380  0.2556  0.1608 -0.2263
 8710SOL    HW126724   7.039   3.794   0.319  1.3756  0.5565 -1.6730
 8710SOL    HW226725   7.126   3.907   0.370  0.9748  0.0755  0.1106
 8711SOL     OW26726   0.888   5.563   3.753  0.3349 -0.5736  0.2007
 8711SOL    HW126727   0.880   5.593   3.663  0.3158  0.7807  0.6420
 8711SOL    HW226728   0.799   5.569   3.788  0.7266  1.0937  0.9722
 8712SOL     OW26729   3.960   5.581   4.365  0.6305  0.1436  0.0106
 8712SOL    HW126730   3.880   5.528   4.371  1.3971 -1.1249 -0.8525
 8712SOL    HW226731   4.028   5.527   4.404  1.3752  0.5850 -0.6651
 8713SOL     OW26732   5.936   5.399   5.666 -0.6002 -0.0477 -0.0418
 8713SOL    HW126733   5.861   5.363   5.619 -0.3230  0.5292 -0.9229
 8713SOL    HW226734   5.943   5.489   5.636  0.6330 -0.1872 -0.2010
 8714SOL     OW26735   6.054   4.165   2.649 -0.5261  0.1968  0.0444
 8714SOL    HW126736   5.969   4.126   2.627 -0.2371 -0.2025 -0.3689
 8714SOL    HW226737   6.117   4.096   2.630 -0.1387  0.3672  0.7015
 8715SOL     OW26738   6.593   5.181   3.198 -0.4603 -0.4778 -0.4750
 8715SOL    HW126739   6.624   5.193   3.288 -1.4404 -0.9499 -0.0632
 8715SOL    HW226740   6.559   5.091   3.197 -0.8774 -0.3148 -1.1891
 8716SOL     OW26741   3.523   2.693   6.957  0.1221  0.1138 -0.4654
 8716SOL    HW126742   3.486   2.709   6.870 -0.1313  1.0946 -0.1949
 8716SOL    HW226743   3.459   2.637   7.001  0.3762 -0.5977 -0.9941
 8717SOL     OW26744   0.112   5.496   5.000 -0.5911 -0.1807 -0.0637
 8717SOL    HW126745   0.069   5.412   5.018 -2.2107  0.7139  0.4149
 8717SOL    HW226746   0.184   5.474   4.942 -1.7446 -1.7539 -0.9568
 8718SOL     OW26747   6.148   4.365   2.487 -0.1430  0.1241 -0.7723
 8718SOL    HW126748   6.190   4.295   2.437  1.2817  1.0301 -0.8616
 8718SOL    HW226749   6.110   4.321   2.562 -0.6259 -0.9756 -1.6426
 8719SOL     OW26750   2.444   4.431   5.758  0.6065 -0.2486  0.4324
 8719SOL    HW126751   2.539   4.444   5.764  0.4737  1.0039 -0.0211
 8719SOL    HW226752   2.433   4.359   5.697  1.2412  0.3410 -0.3939
 8720SOL     OW26753   2.999   6.129   4.915  0.0530 -0.1172 -0.5315
 8720SOL    HW126754   3.075   6.105   4.862  0.1335 -0.6890 -0.1666
 8720SOL    HW226755   3.015   6.086   5.000 -1.0192 -0.8263 -0.6803
 8721SOL     OW26756   2.882   2.091   2.725 -0.1487 -0.1068  0.6671
 8721SOL    HW126757   2.928   2.034   2.662 -2.7344  0.5496 -1.9369
 8721SOL    HW226758   2.836   2.030   2.783  1.1008 -0.7062  1.0554
 8722SOL     OW26759   3.915   0.936   1.168 -0.1845 -0.4469 -0.2403
 8722SOL    HW126760   3.927   0.904   1.078 -0.5587 -2.8993  0.5582
 8722SOL    HW226761   3.826   0.910   1.191  0.1465 -0.4321  1.0845
 8723SOL     OW26762   4.828   1.673   4.484 -0.4874 -0.2870  0.2785
 8723SOL    HW126763   4.879   1.736   4.536  1.3652  0.3545 -2.2312
 8723SOL    HW226764   4.737   1.690   4.509 -0.0862  3.7074 -0.5777
 8724SOL     OW26765   2.091   0.917   0.874 -0.4059  0.2140 -0.5293
 8724SOL    HW126766   1.999   0.921   0.899 -0.8452  0.0651 -2.1115
 8724SOL    HW226767   2.136   0.893   0.955 -1.5164  2.1936  0.7159
 8725SOL     OW26768   4.077   3.020   3.528  0.6980 -0.5561 -0.4795
 8725SOL    HW126769   3.985   2.997   3.539  0.5412  1.5464  3.4390
 8725SOL    HW226770   4.096   3.001   3.436 -3.2873 -2.1533 -1.0602
 8726SOL     OW26771   7.015   6.018   5.090 -0.5756  0.0818 -0.4628
 8726SOL    HW126772   6.937   5.969   5.064 -1.4262  1.2229 -0.1298
 8726SOL    HW226773   6.985   6.072   5.164  1.2715 -1.6642  1.6299
 8727SOL     OW26774   2.552   0.719   1.811 -0.3905  0.3313 -0.2728
 8727SOL    HW126775   2.560   0.687   1.901  1.2998 -2.7926 -1.4408
 8727SOL    HW226776   2.468   0.684   1.780  0.1659 -0.6830 -0.6629
 8728SOL     OW26777   3.601   1.253   1.377 -0.2610 -0.1373 -0.5005
 8728SOL    HW126778   3.689   1.231   1.346  1.1493  2.7293  1.1660
 8728SOL    HW226779   3.584   1.340   1.339 -1.2386  0.4904  1.3249
 8729SOL     OW26780   5.982   1.763   2.030 -0.3568  0.1535  0.2361
 8729SOL    HW126781   6.050   1.830   2.021  0.1497 -0.3358  0.3638
 8729SOL    HW226782   5.936   1.764   1.946  0.6131 -0.3769 -0.3126
 8730SOL     OW26783   4.337   4.019   5.334 -0.0848 -0.0161 -0.4755
 8730SOL    HW126784   4.422   4.049   5.367  0.9214 -2.8122 -0.3714
 8730SOL    HW226785   4.287   3.997   5.413 -0.1656 -0.2707 -0.5955
 8731SOL     OW26786   7.048   6.941   0.250 -0.3992  0.1149  0.4440
 8731SOL    HW126787   7.142   6.922   0.261 -0.5294 -0.1421  1.1430
 8731SOL    HW226788   7.043   6.993   0.169  0.4522  0.9583  0.9209
 8732SOL     OW26789   6.204   6.374   7.063  0.0988 -0.0166 -0.5475
 8732SOL    HW126790   6.297   6.395   7.072  0.2900 -0.0169 -2.4225
 8732SOL    HW226791   6.159   6.454   7.090  0.5531 -0.5935  2.1492
 8733SOL     OW26792   6.822   3.627   3.850 -0.8259 -0.4379 -0.0368
 8733SOL    HW126793   6.832   3.717   3.881  0.3737 -0.1131 -1.3412
 8733SOL    HW226794   6.778   3.636   3.766  0.9108 -0.9429 -1.0165
 8734SOL     OW26795   2.481   1.657   5.564 -0.1374  0.4718  0.3028
 8734SOL    HW126796   2.532   1.738   5.563 -1.3151  1.2754  2.3743
 8734SOL    HW226797   2.393   1.684   5.591 -0.9681 -1.2809 -0.5410
 8735SOL     OW26798   6.225   2.789   3.250 -0.4421  0.5031  0.0820
 8735SOL    HW126799   6.218   2.883   3.231 -1.7855  0.4794  0.4196
 8735SOL    HW226800   6.163   2.775   3.321  0.6561 -0.4177  0.8760
 8736SOL     OW26801   6.243   0.237   6.068  0.2289 -0.4615  0.3851
 8736SOL    HW126802   6.214   0.302   6.132  0.6000 -1.0853  1.1812
 8736SOL    HW226803   6.219   0.153   6.105  2.3354 -0.9540  0.7118
 8737SOL     OW26804   1.180   2.022   5.497 -0.5077  0.2677 -0.2861
 8737SOL    HW126805   1.228   1.939   5.492 -0.4942  0.3317 -1.3509
 8737SOL    HW226806   1.188   2.060   5.409 -0.7070  1.2881  0.1316
 8738SOL     OW26807   0.444   0.678   2.599  0.2158 -0.0684 -0.1881
 8738SOL    HW126808   0.514   0.743   2.597  0.5483 -0.4007  0.3241
 8738SOL    HW226809   0.389   0.705   2.673  1.9970 -2.0260  1.9166
 8739SOL     OW26810   5.758   6.910   3.691 -0.2253 -0.0751 -0.4035
 8739SOL    HW126811   5.702   6.944   3.622 -0.0722  0.1864 -0.3997
 8739SOL    HW226812   5.847   6.932   3.662 -0.2698  1.8010  0.8495
 8740SOL     OW26813   0.091   0.367   4.621  0.5573  0.5994 -0.0644
 8740SOL    HW126814   0.069   0.433   4.555  3.6282  0.5145 -1.2452
 8740SOL    HW226815   0.033   0.293   4.602 -0.3462  1.5450 -1.0295
 8741SOL     OW26816   2.842   0.640   5.013  0.0270 -0.5936 -0.4956
 8741SOL    HW126817   2.765   0.633   5.070 -0.4931  0.1815 -1.0899
 8741SOL    HW226818   2.855   0.734   5.002  0.6438 -0.7333 -0.9571
 8742SOL     OW26819   1.949   0.289   1.817  0.0282 -0.0451 -0.0502
 8742SOL    HW126820   1.939   0.244   1.901  0.3274  0.6086  0.3469
 8742SOL    HW226821   2.008   0.362   1.837  0.2018  0.0338 -0.8622
 8743SOL     OW26822   4.551   4.650   4.266  0.1888  0.1929 -0.0914
 8743SOL    HW126823   4.607   4.573   4.275 -0.6239 -0.4145 -0.2130
 8743SOL    HW226824   4.551   4.689   4.353  2.3108  1.2646 -0.5329
 8744SOL     OW26825   1.039   5.000   1.833 -0.5718  0.3635 -0.2908
 8744SOL    HW126826   1.017   4.922   1.884  1.6466  1.0387  1.8106
 8744SOL    HW226827   0.979   5.068   1.866  0.2362  0.5620  0.8010
 8745SOL     OW26828   5.251   4.044   3.295 -0.2201  0.3315 -1.0347
 8745SOL    HW126829   5.198   4.122   3.308  1.8050  1.4878  0.6581
 8745SOL    HW226830   5.338   4.077   3.274  0.5258 -1.4621 -0.8944
 8746SOL     OW26831   2.284   3.504   5.586 -0.2718 -0.3221 -0.1448
 8746SOL    HW126832   2.340   3.512   5.663 -0.9974 -0.1935  0.3677
 8746SOL    HW226833   2.275   3.593   5.553 -0.2081 -0.3401 -0.2131
 8747SOL     OW26834   4.999   1.820   7.148 -0.2023  0.0204  0.1933
 8747SOL    HW126835   4.976   1.890   7.209 -3.2893 -0.4481 -0.3416
 8747SOL    HW226836   5.007   1.864   7.063  0.3272  0.0995  0.2845
 8748SOL     OW26837   2.559   6.209   3.162 -0.0930  0.1273 -0.1554
 8748SOL    HW126838   2.508   6.285   3.191  1.2118  0.9394  0.0489
 8748SOL    HW226839   2.584   6.230   3.072 -1.3485 -0.9277 -0.7717
 8749SOL     OW26840   2.297   3.114   2.701 -0.0287 -0.9522  0.3383
 8749SOL    HW126841   2.286   3.020   2.716 -0.7739 -1.4445 -3.0141
 8749SOL    HW226842   2.221   3.154   2.743 -0.9710 -2.0693 -0.2881
 8750SOL     OW26843   4.514   3.024   2.632  0.0577 -0.4872  0.0575
 8750SOL    HW126844   4.433   2.999   2.587  0.4312 -0.5380 -0.6019
 8750SOL    HW226845   4.582   2.974   2.587  0.1011 -2.8581  2.6089
 8751SOL     OW26846   7.171   5.845   2.643 -0.1012 -0.6339  0.0208
 8751SOL    HW126847   7.206   5.826   2.556 -0.2471 -1.1071  0.0630
 8751SOL    HW226848   7.213   5.927   2.668  0.9352 -1.1622  0.0414
 8752SOL     OW26849   7.232   5.399   5.896  0.1774 -0.6341 -0.7470
 8752SOL    HW126850   7.170   5.398   5.824 -0.6568  0.1676 -0.0529
 8752SOL    HW226851   7.222   5.486   5.935  1.3986 -0.6681 -0.3402
 8753SOL     OW26852   0.351   5.503   5.175  0.0314  0.0996  0.9403
 8753SOL    HW126853   0.261   5.522   5.151  0.0954 -0.9150 -0.1482
 8753SOL    HW226854   0.404   5.544   5.107  0.3448 -0.1433  1.0351
 8754SOL     OW26855   3.366   3.285   4.555 -0.0071 -0.0164  0.2358
 8754SOL    HW126856   3.392   3.262   4.466 -0.0202  0.3641  0.1336
 8754SOL    HW226857   3.315   3.365   4.545 -2.3215 -1.4254  0.2782
 8755SOL     OW26858   0.027   4.234   3.977  0.1571 -0.7777 -0.2960
 8755SOL    HW126859   0.121   4.243   3.962  0.1561  1.3773  0.7125
 8755SOL    HW226860   0.014   4.264   4.067 -1.5280 -0.7682 -0.5252
 8756SOL     OW26861   6.377   6.007   6.771  0.0353  0.3092  0.1723
 8756SOL    HW126862   6.410   6.055   6.848  0.6951  1.5426 -0.8509
 8756SOL    HW226863   6.413   5.919   6.781  0.1958  0.4867  1.2348
 8757SOL     OW26864   0.946   5.699   0.833  0.2194  0.4715 -0.1257
 8757SOL    HW126865   0.881   5.768   0.843 -1.3402 -0.7636 -1.4494
 8757SOL    HW226866   0.947   5.655   0.918  1.2809  2.1591  0.7441
 8758SOL     OW26867   2.909   0.866   2.337  0.1406 -0.0271  0.0196
 8758SOL    HW126868   2.840   0.843   2.400 -0.8043  0.7194 -0.7195
 8758SOL    HW226869   2.871   0.938   2.286  0.9963 -0.4503 -1.2221
 8759SOL     OW26870   0.405   5.429   4.197  0.4039  0.0808  0.1699
 8759SOL    HW126871   0.396   5.353   4.256 -1.2673  1.0524  1.2031
 8759SOL    HW226872   0.495   5.424   4.166  0.8094 -1.4350  1.4875
 8760SOL     OW26873   3.197   4.548   5.019 -0.2914 -0.1225 -0.0162
 8760SOL    HW126874   3.132   4.483   4.990 -0.9451 -0.3296  1.8218
 8760SOL    HW226875   3.158   4.587   5.097  0.3838  2.0594 -0.7431
 8761SOL     OW26876   5.816   1.237   4.927 -0.2798  0.4438 -0.2018
 8761SOL    HW126877   5.901   1.251   4.969 -0.6667  0.2618  0.6587
 8761SOL    HW226878   5.808   1.311   4.866 -0.3875  1.5914  1.1720
 8762SOL     OW26879   4.225   0.143   3.690 -0.2757 -0.0488  0.2546
 8762SOL    HW126880   4.184   0.222   3.724 -1.3166 -1.0066  1.2730
 8762SOL    HW226881   4.194   0.135   3.600 -0.2121  0.6771  0.1729
 8763SOL     OW26882   3.581   4.180   2.001  0.1023 -0.3536 -0.1936
 8763SOL    HW126883   3.588   4.119   1.927 -1.0340 -1.7562  0.8110
 8763SOL    HW226884   3.498   4.226   1.986 -0.1757 -0.7088  0.2454
 8764SOL     OW26885   4.181   5.810   4.441 -0.3799  0.4347  0.4042
 8764SOL    HW126886   4.242   5.764   4.383  0.9621  2.8931 -0.2345
 8764SOL    HW226887   4.178   5.757   4.520 -0.4268 -1.7650 -1.0324
 8765SOL     OW26888   1.769   1.491   0.597 -0.7278  0.1895  0.5353
 8765SOL    HW126889   1.812   1.416   0.556 -1.3221 -0.2173  0.6461
 8765SOL    HW226890   1.683   1.496   0.553 -0.4059  1.2491  0.0145
 8766SOL     OW26891   0.340   7.088   4.669  0.2505 -0.1358 -0.3730
 8766SOL    HW126892   0.296   7.153   4.725  1.4388 -0.1265  0.5731
 8766SOL    HW226893   0.429   7.122   4.660  1.0527 -1.9232  0.6077
 8767SOL     OW26894   5.972   4.195   4.467  0.4333  0.2458 -0.0883
 8767SOL    HW126895   5.911   4.178   4.538  0.6429 -1.5288 -0.3136
 8767SOL    HW226896   5.918   4.233   4.398 -0.4424 -1.3641 -0.3082
 8768SOL     OW26897   3.837   3.653   1.168 -0.5948  0.2955 -0.2472
 8768SOL    HW126898   3.770   3.629   1.231 -1.7019  0.1023 -1.4677
 8768SOL    HW226899   3.910   3.685   1.221 -0.8035 -1.5410  1.2140
 8769SOL     OW26900   6.909   4.694   0.352  0.1825  0.0813 -0.0283
 8769SOL    HW126901   6.892   4.643   0.431  1.4768  0.0217  0.2249
 8769SOL    HW226902   6.975   4.758   0.379  0.0358  0.5859 -0.8562
 8770SOL     OW26903   3.079   1.787   4.316  0.1632 -0.2860  0.3964
 8770SOL    HW126904   3.041   1.715   4.265 -0.2626 -0.8493  1.4870
 8770SOL    HW226905   3.151   1.820   4.262 -2.3502  1.3506 -2.1148
 8771SOL     OW26906   7.062   5.730   1.307 -0.1295  0.5443  0.6894
 8771SOL    HW126907   7.143   5.755   1.352  0.2011 -0.3720  0.6113
 8771SOL    HW226908   7.001   5.707   1.378  0.3041 -0.6379  0.6873
 8772SOL     OW26909   0.075   1.771   0.412 -0.2205 -0.7210 -0.4325
 8772SOL    HW126910   0.083   1.685   0.454  0.8566 -1.2233 -1.6393
 8772SOL    HW226911   0.052   1.751   0.321 -2.1406  0.3394 -0.2016
 8773SOL     OW26912   7.109   0.133   1.950 -0.1881  0.4517  0.3409
 8773SOL    HW126913   7.104   0.144   2.045  0.1213 -0.5241  0.4688
 8773SOL    HW226914   7.189   0.083   1.936  0.5047  1.7656 -0.5318
 8774SOL     OW26915   5.498   1.737   6.324 -0.3784  0.3827  0.1559
 8774SOL    HW126916   5.544   1.787   6.256  0.6394  2.9674  2.6136
 8774SOL    HW226917   5.566   1.684   6.365 -1.1826 -1.9586 -1.4567
 8775SOL     OW26918   5.337   3.607   5.759 -0.4115 -0.2118 -0.0698
 8775SOL    HW126919   5.247   3.574   5.764 -0.8019  0.4215 -2.4080
 8775SOL    HW226920   5.328   3.701   5.777 -0.2891 -0.0566 -0.8220
 8776SOL     OW26921   4.727   5.956   1.204  0.5708 -0.3821 -0.1158
 8776SOL    HW126922   4.811   5.910   1.204 -0.1525 -1.7354  0.0375
 8776SOL    HW226923   4.695   5.949   1.114 -0.1853 -1.4010  0.2229
 8777SOL     OW26924   0.051   0.007   3.000 -0.2515  0.0095  0.0127
 8777SOL    HW126925   0.136   0.006   2.956  0.1856 -0.6456  0.8464
 8777SOL    HW226926   0.070  -0.027   3.088 -1.1824  0.8796  0.5494
 8778SOL     OW26927   1.858   5.559   0.370  0.6049 -0.6620  0.5406
 8778SOL    HW126928   1.765   5.579   0.380  0.6177 -0.5193  0.3832
 8778SOL    HW226929   1.874   5.564   0.276  1.7550  3.8669  0.8626
 8779SOL     OW26930   6.494   6.368   5.969  0.0674  0.0064 -0.5778
 8779SOL    HW126931   6.420   6.313   5.942  0.2517 -0.2080 -0.6454
 8779SOL    HW226932   6.553   6.366   5.894 -0.3397  1.0268 -0.9391
 8780SOL     OW26933   2.816   1.999   5.384 -0.1368 -0.3142 -0.4108
 8780SOL    HW126934   2.853   2.017   5.298 -0.3726  1.0343 -0.2339
 8780SOL    HW226935   2.874   2.043   5.446 -0.2664 -0.8294  0.0887
 8781SOL     OW26936   5.503   3.766   7.187 -0.7946 -0.3420 -0.1864
 8781SOL    HW126937   5.530   3.712   7.261 -1.6108  0.9573  1.0880
 8781SOL    HW226938   5.528   3.715   7.110  1.5394 -0.9992  0.9504
 8782SOL     OW26939   1.850   2.224   3.259  0.0349  0.3890 -0.4078
 8782SOL    HW126940   1.914   2.165   3.300 -0.4409 -0.0783 -0.3355
 8782SOL    HW226941   1.810   2.270   3.333 -0.9319 -0.5634 -0.3206
 8783SOL     OW26942   4.062   5.798   2.512  0.5496 -0.7171  0.7416
 8783SOL    HW126943   4.000   5.798   2.439  0.6019  1.8241  0.6508
 8783SOL    HW226944   4.109   5.881   2.504  1.5609 -1.0496  2.8310
 8784SOL     OW26945   3.365   6.904   0.772 -0.4444 -0.0225  0.9164
 8784SOL    HW126946   3.295   6.868   0.718  0.3173  0.2142 -0.2613
 8784SOL    HW226947   3.446   6.868   0.734  0.2238  1.6920  0.6780
 8785SOL     OW26948   5.398   6.500   1.926 -0.1952  0.5677  0.3354
 8785SOL    HW126949   5.336   6.540   1.865 -0.7623 -1.3229 -0.3762
 8785SOL    HW226950   5.353   6.502   2.010 -1.5080 -1.2890 -0.2812
 8786SOL     OW26951   0.940   6.847   6.412 -0.2335  0.1428 -0.3289
 8786SOL    HW126952   0.989   6.875   6.489  1.3407 -1.0894 -0.8401
 8786SOL    HW226953   0.967   6.909   6.343 -0.3454  0.2248 -0.2978
 8787SOL     OW26954   3.913   1.716   1.253  0.8462 -0.2061 -0.0683
 8787SOL    HW126955   3.967   1.774   1.307  2.0375 -1.5234  0.1616
 8787SOL    HW226956   3.955   1.718   1.167 -0.9476  1.7485 -0.9612
 8788SOL     OW26957   3.290   7.189   0.153  0.1003 -0.6660 -0.2434
 8788SOL    HW126958   3.279   7.277   0.188  1.5916 -0.5130 -0.1295
 8788SOL    HW226959   3.246   7.190   0.068  1.2644  0.5677 -0.8301
 8789SOL     OW26960   5.503   5.597   6.918  0.3279 -0.0742  0.2489
 8789SOL    HW126961   5.592   5.633   6.918  0.1624  0.3347  0.2743
 8789SOL    HW226962   5.512   5.513   6.963  0.6042  0.2135  0.7350
 8790SOL     OW26963   5.501   5.615   2.303  0.3350  0.2169 -0.2119
 8790SOL    HW126964   5.507   5.526   2.338  2.2455  0.5698  0.4293
 8790SOL    HW226965   5.463   5.604   2.216 -0.5957 -1.0977  0.3482
 8791SOL     OW26966   5.745   7.011   2.775  0.4007 -0.6810 -0.1522
 8791SOL    HW126967   5.670   7.065   2.799 -0.2753 -1.6800 -0.0194
 8791SOL    HW226968   5.810   7.029   2.843 -0.0413 -0.4922  0.2187
 8792SOL     OW26969   1.453   5.486   5.005  0.5844  0.1470  0.1930
 8792SOL    HW126970   1.508   5.429   5.058  0.0437 -0.1258  0.4649
 8792SOL    HW226971   1.369   5.439   4.998  0.4402  0.4788 -0.3552
 8793SOL     OW26972   1.380   2.888   6.485 -0.5913  0.3253 -0.6089
 8793SOL    HW126973   1.475   2.883   6.493 -0.6204  1.1878  0.4285
 8793SOL    HW226974   1.363   2.969   6.438 -0.8351  0.4114 -0.3735
 8794SOL     OW26975   6.104   4.232   6.997 -0.1315 -0.2845  0.3588
 8794SOL    HW126976   6.108   4.204   6.906 -0.4346 -0.3327  0.3587
 8794SOL    HW226977   6.010   4.241   7.016 -0.0575  0.1680  0.5303
 8795SOL     OW26978   3.819   5.240   1.817 -0.4268  0.1297  0.6747
 8795SOL    HW126979   3.855   5.323   1.784  0.8086 -0.6560  0.0017
 8795SOL    HW226980   3.825   5.248   1.912 -0.7503  0.9984  0.6305
 8796SOL     OW26981   6.327   4.652   0.254 -0.2053  0.0967  0.5228
 8796SOL    HW126982   6.240   4.611   0.258 -1.4804  2.8036  1.8699
 8796SOL    HW226983   6.324   4.706   0.174  0.0565  0.5405  0.8101
 8797SOL     OW26984   1.958   3.641   3.991  0.5951  0.5737  0.2636
 8797SOL    HW126985   1.949   3.677   4.079  0.0942  0.3384  0.3106
 8797SOL    HW226986   2.052   3.641   3.974  0.8153 -0.8989  1.4447
 8798SOL     OW26987   2.893   3.998   5.367  0.5486 -0.2452 -0.2216
 8798SOL    HW126988   2.967   3.980   5.424  1.3703  0.2465 -1.1144
 8798SOL    HW226989   2.930   4.048   5.295 -0.8390  0.8847 -0.1713
 8799SOL     OW26990   6.786   6.379   7.137 -0.1574 -0.5712 -0.3747
 8799SOL    HW126991   6.708   6.360   7.189 -0.9678  1.4620 -0.7800
 8799SOL    HW226992   6.852   6.405   7.202 -0.5829  0.1008 -0.2026
 8800SOL     OW26993   4.255   4.591   0.506 -0.4897 -0.3385  0.6917
 8800SOL    HW126994   4.320   4.656   0.482 -1.8215  0.3362 -1.2406
 8800SOL    HW226995   4.305   4.513   0.527  0.9082 -0.1138 -1.6700
 8801SOL     OW26996   1.491   5.186   3.806  0.6686 -0.3292 -0.1550
 8801SOL    HW126997   1.570   5.133   3.815  0.7338 -0.1993  0.0336
 8801SOL    HW226998   1.460   5.199   3.896  0.2081 -0.7213 -0.2517
 8802SOL     OW26999   0.661   4.685   5.754 -0.0532  0.3359 -0.4179
 8802SOL    HW127000   0.634   4.766   5.798  1.4643 -0.1225  1.3837
 8802SOL    HW227001   0.578   4.642   5.733 -0.8337  0.5681  2.0085
 8803SOL     OW27002   1.030   5.043   1.562  0.0529  0.0682  0.3161
 8803SOL    HW127003   1.106   5.100   1.552 -0.4997  0.6699 -0.5130
 8803SOL    HW227004   1.031   5.019   1.655  0.4296  1.2319  0.6329
 8804SOL     OW27005   6.551   1.805   3.319  0.0573 -0.0592  0.1964
 8804SOL    HW127006   6.514   1.814   3.407  0.3584  0.0549  0.3130
 8804SOL    HW227007   6.476   1.812   3.260 -0.2978 -1.3247  0.4991
 8805SOL     OW27008   7.166   1.581   5.518  0.1862  0.4069  0.1017
 8805SOL    HW127009   7.087   1.550   5.563 -0.2811 -0.1485 -1.0948
 8805SOL    HW227010   7.139   1.661   5.474  0.0992 -0.1666 -0.8972
 8806SOL     OW27011   1.919   6.877   2.400 -0.1162  0.4857 -0.0490
 8806SOL    HW127012   1.848   6.817   2.378 -1.3165  2.3905 -1.5690
 8806SOL    HW227013   1.933   6.928   2.320  2.8981  0.2350  0.2723
 8807SOL     OW27014   3.283   4.129   6.773  0.3185  0.0658 -0.0964
 8807SOL    HW127015   3.249   4.139   6.684  1.2175  0.5283 -0.3916
 8807SOL    HW227016   3.223   4.180   6.828  0.7846  1.2415 -0.6674
 8808SOL     OW27017   5.396   0.787   2.040 -0.1301 -0.3008 -0.5817
 8808SOL    HW127018   5.389   0.782   1.945  0.6781  1.6377 -0.7702
 8808SOL    HW227019   5.426   0.876   2.057 -0.9150 -0.4137  1.5319
 8809SOL     OW27020   5.677   3.511   0.998 -0.1238 -0.4517  0.4994
 8809SOL    HW127021   5.622   3.451   1.048  0.3448 -1.2414  0.0741
 8809SOL    HW227022   5.635   3.517   0.912 -0.4440  0.2167  0.7036
 8810SOL     OW27023   7.015   6.780   6.882 -0.1055 -0.1721 -0.5220
 8810SOL    HW127024   6.965   6.829   6.947  0.7249  0.6665 -0.5037
 8810SOL    HW227025   6.982   6.691   6.889 -0.9237  0.1752  0.1565
 8811SOL     OW27026   5.515   2.693   5.257 -0.3808 -0.0276 -0.1429
 8811SOL    HW127027   5.467   2.614   5.233  0.8172 -0.1950 -2.0985
 8811SOL    HW227028   5.567   2.667   5.332 -0.7474 -0.8135 -0.1509
 8812SOL     OW27029   1.556   0.871   1.652  0.5896  0.0606 -0.3312
 8812SOL    HW127030   1.492   0.934   1.618  0.6954 -0.1278 -0.8942
 8812SOL    HW227031   1.579   0.904   1.739 -0.0091  0.3185 -0.2695
 8813SOL     OW27032   0.433   5.914   6.427 -0.2274 -0.1856  0.4165
 8813SOL    HW127033   0.394   5.909   6.340 -1.9146 -1.1966  1.2167
 8813SOL    HW227034   0.475   5.828   6.440  0.3312  0.0888  0.4643
 8814SOL     OW27035   5.272   2.909   4.401 -0.7949  0.1952 -0.2592
 8814SOL    HW127036   5.364   2.896   4.425 -0.6007 -0.7844 -1.4839
 8814SOL    HW227037   5.275   2.962   4.322 -1.3916  2.3031  1.0990
 8815SOL     OW27038   3.913   2.954   3.279  0.1845 -0.2212 -0.2455
 8815SOL    HW127039   3.904   3.019   3.209  1.1195  0.3652  0.1595
 8815SOL    HW227040   3.994   2.907   3.258 -0.0969 -0.7575 -0.1363
 8816SOL     OW27041   4.044   0.855   4.837 -0.1044 -0.2180  0.5438
 8816SOL    HW127042   4.014   0.896   4.918  1.8840  0.2897  1.0558
 8816SOL    HW227043   4.140   0.860   4.841  0.0214  0.6227 -2.2515
 8817SOL     OW27044   2.450   1.320   2.556  0.0825  0.4623 -0.4345
 8817SOL    HW127045   2.423   1.283   2.472  0.5950 -1.4300  0.2273
 8817SOL    HW227046   2.373   1.369   2.586 -1.0022 -1.0045 -0.7704
 8818SOL     OW27047   6.949   1.084   4.361  0.4824  0.3256  0.8370
 8818SOL    HW127048   6.894   1.100   4.438  1.7022 -0.1871  1.8261
 8818SOL    HW227049   6.889   1.045   4.297 -0.3636 -0.0180  1.8189
 8819SOL     OW27050   3.223   2.430   6.139  0.4259 -0.5663 -0.3695
 8819SOL    HW127051   3.234   2.517   6.177 -1.0072 -0.1422 -0.8878
 8819SOL    HW227052   3.172   2.445   6.059 -1.0451 -2.0337  0.2709
 8820SOL     OW27053   2.309   1.349   3.524  0.1512  0.3982  0.1142
 8820SOL    HW127054   2.403   1.338   3.541 -0.1099 -1.1772  0.6323
 8820SOL    HW227055   2.266   1.301   3.595 -1.0645  1.4324  0.1015
 8821SOL     OW27056   2.384   6.513   0.614 -0.2447 -0.3183 -0.2619
 8821SOL    HW127057   2.420   6.580   0.672  0.0415 -1.0354  0.4108
 8821SOL    HW227058   2.316   6.558   0.564 -1.8442 -0.0979  1.9936
 8822SOL     OW27059   0.477   1.403   5.147  0.2590 -0.1433 -0.2168
 8822SOL    HW127060   0.520   1.485   5.122 -0.8054  0.1374 -1.1648
 8822SOL    HW227061   0.384   1.418   5.128  0.2839 -2.2091 -2.2487
 8823SOL     OW27062   0.982   1.624   1.677 -0.5824  0.2812 -0.1173
 8823SOL    HW127063   0.910   1.623   1.615 -0.4398  0.3730 -0.2850
 8823SOL    HW227064   1.039   1.695   1.647 -0.3956  0.1764 -0.0153
 8824SOL     OW27065   4.591   2.217   1.763  0.6147 -0.6039 -0.3014
 8824SOL    HW127066   4.648   2.161   1.815  2.2107 -1.4772 -2.8757
 8824SOL    HW227067   4.542   2.156   1.707 -0.8581  0.3245 -0.0536
 8825SOL     OW27068   1.386   6.019   2.853 -0.1139  0.5072 -0.5835
 8825SOL    HW127069   1.405   6.094   2.909 -1.1515  0.7110 -0.4910
 8825SOL    HW227070   1.431   6.038   2.771 -0.7652  1.4598 -0.7237
 8826SOL     OW27071   0.386   6.988   0.998 -0.1940  0.7450 -0.3603
 8826SOL    HW127072   0.358   7.052   1.064 -0.7836  1.1201 -0.9699
 8826SOL    HW227073   0.464   7.028   0.958  0.0935  0.5715  0.0250
 8827SOL     OW27074   6.793   0.685   6.400  0.0952  0.2935  0.1698
 8827SOL    HW127075   6.778   0.779   6.415  1.0068 -0.0045  3.2902
 8827SOL    HW227076   6.714   0.656   6.354 -0.9094  2.2751  0.5500
 8828SOL     OW27077   6.873   0.259   0.197 -0.2153  0.1061 -0.5526
 8828SOL    HW127078   6.890   0.297   0.283 -0.9092 -0.4287 -0.1778
 8828SOL    HW227079   6.833   0.174   0.216 -1.1816  0.3675 -1.4118
 8829SOL     OW27080   3.298   3.506   5.513  0.5070 -0.2754 -0.3591
 8829SOL    HW127081   3.203   3.502   5.513  0.5094 -0.3481  0.0435
 8829SOL    HW227082   3.318   3.600   5.505  0.3990 -0.2249 -0.0397
 8830SOL     OW27083   6.657   5.413   2.450  0.1983  0.0442 -0.7006
 8830SOL    HW127084   6.700   5.391   2.368 -1.6930 -1.4583 -1.3328
 8830SOL    HW227085   6.597   5.484   2.428 -1.0769 -1.0671 -0.8711
 8831SOL     OW27086   6.407   6.564   7.230 -0.2396  0.1212 -0.2417
 8831SOL    HW127087   6.399   6.620   7.308  1.3287 -0.3447  0.2847
 8831SOL    HW227088   6.359   6.611   7.162 -0.0332  1.4871  0.5238
 8832SOL     OW27089   2.743   6.563   6.319 -0.4341 -0.6619 -0.5971
 8832SOL    HW127090   2.732   6.487   6.376 -0.2676 -0.2717 -0.0360
 8832SOL    HW227091   2.836   6.583   6.324 -0.3693 -0.7985 -1.2364
 8833SOL     OW27092   6.958   0.670   5.331 -0.1253  0.1247 -0.2136
 8833SOL    HW127093   6.867   0.657   5.357 -0.4641  2.2323 -0.2513
 8833SOL    HW227094   6.977   0.596   5.273 -1.6574 -0.5914  0.1724
 8834SOL     OW27095   0.342   5.490   6.441 -0.0343  0.2819 -0.3477
 8834SOL    HW127096   0.277   5.552   6.408 -0.0141  0.4709 -0.0290
 8834SOL    HW227097   0.351   5.511   6.534 -0.5308 -0.6380 -0.0835
 8835SOL     OW27098   0.532   5.625   0.868  0.3853  0.3995  0.4013
 8835SOL    HW127099   0.567   5.654   0.952 -1.4262  0.8051  1.0303
 8835SOL    HW227100   0.591   5.555   0.840  1.6618  1.0266  1.4468
 8836SOL     OW27101   1.922   6.943   3.112  0.0147 -0.2697 -0.5647
 8836SOL    HW127102   2.013   6.963   3.091 -0.2092  0.5699 -0.7352
 8836SOL    HW227103   1.923   6.922   3.205  0.0510  1.8297 -0.0692
 8837SOL     OW27104   6.293   1.029   1.858  0.2513 -0.4680 -0.0665
 8837SOL    HW127105   6.209   0.990   1.834  0.6478 -0.8948 -0.8201
 8837SOL    HW227106   6.302   1.104   1.800 -0.0079  0.0888  0.6172
 8838SOL     OW27107   7.198   3.704   3.225  0.2197 -0.5356  0.0974
 8838SOL    HW127108   7.171   3.616   3.251 -0.6471 -0.3008 -0.0113
 8838SOL    HW227109   7.148   3.763   3.282  0.1299 -0.0890 -0.4332
 8839SOL     OW27110   4.514   3.692   6.110 -0.3943  0.0431  0.0121
 8839SOL    HW127111   4.490   3.773   6.065  1.3908  0.4978 -0.1940
 8839SOL    HW227112   4.570   3.646   6.047  0.4618 -0.2611  0.9864
 8840SOL     OW27113   3.865   3.843   0.578 -0.7241  0.2455  0.0016
 8840SOL    HW127114   3.887   3.804   0.494 -1.1405  3.7985 -1.8469
 8840SOL    HW227115   3.786   3.796   0.606 -1.1777 -0.2796 -2.0789
 8841SOL     OW27116   4.720   3.215   5.983  0.5748  0.3658 -0.3400
 8841SOL    HW127117   4.686   3.198   6.071  2.8366  0.5484  0.5889
 8841SOL    HW227118   4.706   3.133   5.936  1.1820 -0.3978  0.7871
 8842SOL     OW27119   1.459   6.614   2.458 -0.6702  0.3045 -0.7249
 8842SOL    HW127120   1.483   6.701   2.425 -0.4525 -0.4301 -2.5529
 8842SOL    HW227121   1.503   6.608   2.543 -3.0922  3.1361  0.8299
 8843SOL     OW27122   0.053   0.943   1.646  0.5197 -0.2613  0.5990
 8843SOL    HW127123   0.044   0.933   1.551 -1.4239 -0.1531  0.7380
 8843SOL    HW227124   0.047   0.854   1.680  0.5097 -0.2323  0.6716
 8844SOL     OW27125   3.805   0.004   1.036 -0.1506  0.1525  0.6432
 8844SOL    HW127126   3.837   0.006   1.126  0.6461  1.2661  0.3433
 8844SOL    HW227127   3.840  -0.077   1.000 -0.3464 -0.2248  1.2799
 8845SOL     OW27128   6.736   4.658   2.415 -0.1815 -0.0016  0.1943
 8845SOL    HW127129   6.688   4.713   2.476  0.6554  0.9629 -0.0128
 8845SOL    HW227130   6.772   4.718   2.350  1.0795 -0.7336  0.1921
 8846SOL     OW27131   2.167   0.485   1.808 -0.0472 -0.1505  0.3278
 8846SOL    HW127132   2.098   0.499   1.744  1.8006  2.4827 -1.1545
 8846SOL    HW227133   2.217   0.411   1.774 -0.6836 -0.4983  0.1467
 8847SOL     OW27134   4.003   6.875   0.243 -0.4570  0.3742 -0.5058
 8847SOL    HW127135   4.002   6.836   0.155  0.8901  0.1474 -0.4298
 8847SOL    HW227136   3.972   6.964   0.229  0.0400  0.4376 -1.2726
 8848SOL     OW27137   0.066   2.285   3.251 -0.0178 -0.4149 -0.1916
 8848SOL    HW127138  -0.013   2.272   3.198  0.7992  0.7073 -1.7441
 8848SOL    HW227139   0.123   2.339   3.196  0.9069  0.7140  1.8156
 8849SOL     OW27140   2.292   2.268   4.277 -0.4423  0.2029  0.2829
 8849SOL    HW127141   2.311   2.299   4.366  3.5674 -0.4840 -0.2543
 8849SOL    HW227142   2.256   2.179   4.290 -2.1472  0.9993  1.2708
 8850SOL     OW27143   0.825   1.123   1.955 -0.5212  0.6329  0.0249
 8850SOL    HW127144   0.916   1.150   1.970 -0.2004  0.3078 -1.3025
 8850SOL    HW227145   0.798   1.085   2.039  0.1329  1.9186  0.8346
 8851SOL     OW27146   1.451   5.233   6.083 -0.1904  0.2530 -0.2834
 8851SOL    HW127147   1.474   5.300   6.018  1.6962  0.1036  0.1875
 8851SOL    HW227148   1.355   5.234   6.085 -0.2256  2.3437 -0.9038
 8852SOL     OW27149   4.676   4.425   6.282 -0.6336 -0.4137 -0.3692
 8852SOL    HW127150   4.643   4.387   6.364 -1.1209 -0.9434 -0.8049
 8852SOL    HW227151   4.756   4.472   6.308 -0.0119 -1.7414  0.1890
 8853SOL     OW27152   3.132   0.773   2.210 -0.1033  0.2403  0.5480
 8853SOL    HW127153   3.166   0.845   2.263 -1.0810  1.3202 -0.2704
 8853SOL    HW227154   3.039   0.795   2.196  0.1703  0.0379 -1.6979
 8854SOL     OW27155   3.565   3.293   2.804 -0.1460 -0.0972 -0.5152
 8854SOL    HW127156   3.562   3.204   2.769  2.2002 -1.1846  1.8650
 8854SOL    HW227157   3.613   3.343   2.738  2.4945 -1.6632  0.1415
 8855SOL     OW27158   2.649   5.963   5.758 -0.4711  0.1393  0.0300
 8855SOL    HW127159   2.591   5.996   5.689 -2.0014  0.2144  1.3511
 8855SOL    HW227160   2.613   5.877   5.781  0.9333 -0.5538 -0.3138
 8856SOL     OW27161   6.935   3.405   2.075  0.2829  0.3797 -0.0940
 8856SOL    HW127162   6.875   3.472   2.043  1.0270  0.6649 -0.9457
 8856SOL    HW227163   6.971   3.441   2.156  0.9674  1.1958 -0.7445
 8857SOL     OW27164   3.749   4.330   1.407 -0.1552 -0.3498  0.5280
 8857SOL    HW127165   3.662   4.313   1.444 -0.6501  0.0150 -0.4551
 8857SOL    HW227166   3.779   4.244   1.376 -1.0221 -0.1377 -0.9416
 8858SOL     OW27167   1.763   4.703   3.694 -0.9413  0.5462  0.0041
 8858SOL    HW127168   1.738   4.787   3.654 -0.3971 -0.2062 -1.9845
 8858SOL    HW227169   1.718   4.637   3.642  0.1744 -0.5016  0.3321
 8859SOL     OW27170   6.190   1.641   3.287  0.3481 -0.0728  0.2545
 8859SOL    HW127171   6.254   1.711   3.289  0.1826  0.0717  0.5415
 8859SOL    HW227172   6.241   1.561   3.274  0.5017  0.1418 -0.4652
 8860SOL     OW27173   3.594   3.110   1.213  0.6040 -0.0761  0.3417
 8860SOL    HW127174   3.562   3.188   1.168  1.7489 -0.0542 -0.4544
 8860SOL    HW227175   3.516   3.072   1.253  0.1886  2.0744  1.6711
 8861SOL     OW27176   1.643   6.757   0.686  0.2031  0.7101  0.2466
 8861SOL    HW127177   1.732   6.725   0.698  0.8092  1.6525 -1.6061
 8861SOL    HW227178   1.593   6.679   0.662  0.7225  0.3411  0.3473
 8862SOL     OW27179   2.999   7.034   4.203  0.6269 -0.1458 -0.0253
 8862SOL    HW127180   2.991   7.057   4.295 -2.7017  1.9791 -0.7375
 8862SOL    HW227181   3.067   7.093   4.169  0.7064  0.2079  0.7474
 8863SOL     OW27182   4.378   4.800   5.450 -0.0630  0.1349  0.7143
 8863SOL    HW127183   4.412   4.718   5.415 -4.7930 -1.3773 -0.6680
 8863SOL    HW227184   4.344   4.777   5.536 -0.7099  0.8235  0.6453
 8864SOL     OW27185   1.899   1.658   7.011 -0.0942  0.0927 -0.7402
 8864SOL    HW127186   1.855   1.733   6.972 -1.4274 -0.1766  0.2186
 8864SOL    HW227187   1.847   1.637   7.088  1.3763 -0.6174  0.0820
 8865SOL     OW27188   0.692   4.416   3.347  0.4934  0.2054  0.0842
 8865SOL    HW127189   0.752   4.481   3.383  2.9941 -1.4609 -0.8964
 8865SOL    HW227190   0.681   4.442   3.256  0.7079 -0.1535 -0.0473
 8866SOL     OW27191   0.863   0.113   3.414  0.0676 -0.2568 -0.2891
 8866SOL    HW127192   0.830   0.043   3.358 -1.7407  0.1584  0.2283
 8866SOL    HW227193   0.865   0.076   3.502 -1.9500  0.6454  0.1685
 8867SOL     OW27194   5.298   6.556   6.232 -0.3096  0.0395 -0.6928
 8867SOL    HW127195   5.381   6.514   6.211 -0.5861 -1.0050  0.2747
 8867SOL    HW227196   5.307   6.645   6.197  1.4061  0.1010 -0.1462
 8868SOL     OW27197   2.856   5.708   2.545  0.0445  0.3006 -0.5940
 8868SOL    HW127198   2.916   5.636   2.527  0.0641  0.6854 -2.0940
 8868SOL    HW227199   2.912   5.782   2.568  0.0288 -0.1073  0.8149
 8869SOL     OW27200   3.774   6.123   5.243 -0.6462 -0.0529  0.4781
 8869SOL    HW127201   3.845   6.185   5.224 -1.1861  0.5622  0.4457
 8869SOL    HW227202   3.698   6.179   5.262 -1.5806 -0.7088 -1.2429
 8870SOL     OW27203   4.682   4.211   0.043  0.3735 -0.0831  0.7419
 8870SOL    HW127204   4.626   4.149  -0.004  0.9363 -0.5317  0.6617
 8870SOL    HW227205   4.726   4.261  -0.026 -0.8923  1.1490  0.8077
 8871SOL     OW27206   0.502   2.277   1.080 -0.2671  0.2551 -0.1460
 8871SOL    HW127207   0.577   2.249   1.028 -1.6167  0.7088 -2.3982
 8871SOL    HW227208   0.524   2.252   1.170  2.3896  0.0395 -0.8310
 8872SOL     OW27209   2.805   3.079   1.611  0.6670 -0.0721  0.1677
 8872SOL    HW127210   2.836   3.010   1.670 -0.2646  0.0022  0.7662
 8872SOL    HW227211   2.845   3.159   1.645  0.1728 -0.0367  0.6839
 8873SOL     OW27212   0.722   3.204   4.253  0.0586 -0.6235 -0.4886
 8873SOL    HW127213   0.630   3.182   4.269 -0.4226  0.2542 -2.0405
 8873SOL    HW227214   0.730   3.295   4.282  0.3928 -0.6220 -0.5886
 8874SOL     OW27215   6.205   3.469   2.644  0.4748  0.1747  0.4974
 8874SOL    HW127216   6.300   3.476   2.633  0.8282 -1.0360  2.4386
 8874SOL    HW227217   6.169   3.499   2.561  2.6024 -0.4771 -0.7124
 8875SOL     OW27218   6.001   3.798   5.230 -0.0280  0.0222 -0.5117
 8875SOL    HW127219   6.079   3.823   5.280 -1.1413  1.4043  0.5883
 8875SOL    HW227220   5.966   3.721   5.276 -0.5835  0.7894  0.3597
 8876SOL     OW27221   5.787   1.455   6.642 -0.5821 -0.6654 -0.5665
 8876SOL    HW127222   5.877   1.437   6.667 -0.9919 -0.3982  1.2065
 8876SOL    HW227223   5.754   1.513   6.711 -1.7922  0.0783 -1.7400
 8877SOL     OW27224   6.586   0.364   3.802 -0.3081 -0.8932 -0.5612
 8877SOL    HW127225   6.653   0.408   3.854  0.5909 -2.5065 -0.3234
 8877SOL    HW227226   6.519   0.431   3.788  1.1130  0.6080 -0.3878
 8878SOL     OW27227   4.308   2.388   6.867  0.0121 -0.0136 -0.1271
 8878SOL    HW127228   4.348   2.419   6.948  0.3514 -0.5259 -0.0963
 8878SOL    HW227229   4.230   2.340   6.896 -0.1743  0.2806 -0.1386
 8879SOL     OW27230   2.545   2.040   1.120  0.0511  0.5204 -0.1747
 8879SOL    HW127231   2.458   2.005   1.142  0.0574  0.4275 -0.2933
 8879SOL    HW227232   2.544   2.046   1.024  0.1121  0.6872 -0.1649
 8880SOL     OW27233   2.444   3.219   3.793  0.6376  0.4156  0.6844
 8880SOL    HW127234   2.406   3.231   3.707  0.4680 -1.9560  0.3966
 8880SOL    HW227235   2.376   3.248   3.854  0.1137  0.4793  0.0711
 8881SOL     OW27236   3.209   2.521   5.171  0.3769  0.1939 -0.0490
 8881SOL    HW127237   3.221   2.548   5.262 -0.3839 -0.3556  0.2153
 8881SOL    HW227238   3.282   2.461   5.153  0.7914  0.6629  0.0497
 8882SOL     OW27239   2.299   3.427   1.199 -0.0488 -0.0797 -0.4908
 8882SOL    HW127240   2.365   3.456   1.263  0.5488 -0.4710 -0.9254
 8882SOL    HW227241   2.284   3.504   1.144  0.4313 -0.1455 -0.7151
 8883SOL     OW27242   0.902   7.017   6.083 -0.5995  0.4425  0.3885
 8883SOL    HW127243   0.906   7.094   6.140 -0.6807  0.3247  0.5526
 8883SOL    HW227244   0.830   7.036   6.023 -0.8360  0.3508  0.6402
 8884SOL     OW27245   2.317   5.479   0.972 -0.2933  0.1419  0.4143
 8884SOL    HW127246   2.381   5.550   0.966 -0.5273  0.4515  1.4187
 8884SOL    HW227247   2.367   5.400   0.954 -0.5141  0.7406 -3.2769
 8885SOL     OW27248   2.000   4.493   3.190 -0.4024  0.5858 -0.1156
 8885SOL    HW127249   1.954   4.422   3.146 -0.4408  0.7618 -0.3620
 8885SOL    HW227250   2.090   4.461   3.200 -0.3990  0.5365 -0.3027
 8886SOL     OW27251   3.056   5.105   2.135  0.2623 -0.1066  0.0610
 8886SOL    HW127252   3.017   5.180   2.179  1.5487  0.9195 -0.5123
 8886SOL    HW227253   2.999   5.088   2.060 -0.0912  0.2325  0.2544
 8887SOL     OW27254   6.221   6.267   2.003  0.3551  0.0517  0.0806
 8887SOL    HW127255   6.197   6.340   1.946  1.5983 -0.4788 -1.1532
 8887SOL    HW227256   6.312   6.246   1.979  0.7273 -0.5132  1.9074
 8888SOL     OW27257   6.480   5.186   6.932 -0.1440 -0.2907 -0.4109
 8888SOL    HW127258   6.554   5.152   6.880  0.6618  0.8013  0.0072
 8888SOL    HW227259   6.404   5.137   6.900  0.9719 -2.4433  0.1234
 8889SOL     OW27260   6.024   3.333   5.384  0.1190  0.3151 -0.3759
 8889SOL    HW127261   6.094   3.332   5.448 -0.6614 -0.4136  0.4811
 8889SOL    HW227262   5.985   3.420   5.392  0.4707  0.4663 -0.3420
 8890SOL     OW27263   4.124   6.322   7.056  0.4486  0.0432 -0.2540
 8890SOL    HW127264   4.172   6.401   7.082  0.6070  0.0558 -0.5744
 8890SOL    HW227265   4.175   6.250   7.092 -1.1455  0.1670  2.3703
 8891SOL     OW27266   1.261   5.211   7.044 -0.1760  0.0915  0.0041
 8891SOL    HW127267   1.181   5.211   7.097  0.7813  0.4502  1.4768
 8891SOL    HW227268   1.241   5.154   6.970 -2.2560  1.2336 -0.3487
 8892SOL     OW27269   1.297   1.408   4.485  0.3909 -0.2668  0.3635
 8892SOL    HW127270   1.246   1.480   4.449  0.3606 -0.0065  0.9303
 8892SOL    HW227271   1.317   1.353   4.409 -1.0890 -0.5927  0.1881
 8893SOL     OW27272   4.254   1.086   2.698 -0.0079  0.3583  0.2671
 8893SOL    HW127273   4.341   1.048   2.685 -0.0579  0.1296  0.5927
 8893SOL    HW227274   4.216   1.090   2.611  0.0023 -0.3388  0.2243
 8894SOL     OW27275   2.172   1.899   2.827 -0.1529 -0.2962  0.0219
 8894SOL    HW127276   2.262   1.930   2.825  0.0544 -0.9279 -0.7819
 8894SOL    HW227277   2.172   1.826   2.889  0.1440 -1.0705 -0.8885
 8895SOL     OW27278   0.579   1.021   6.446  0.0246  0.2564  0.2244
 8895SOL    HW127279   0.644   1.088   6.426  0.5250 -0.4441 -0.5611
 8895SOL    HW227280   0.497   1.069   6.457  0.2866  0.9606 -0.7808
 8896SOL     OW27281   6.018   5.528   4.434  0.0395 -0.0242 -0.1249
 8896SOL    HW127282   6.048   5.511   4.523  1.4113 -0.2124 -0.6167
 8896SOL    HW227283   6.010   5.442   4.394 -0.9909  0.0311 -0.0682
 8897SOL     OW27284   6.767   2.009   5.385  0.1167  0.1987  0.0306
 8897SOL    HW127285   6.690   1.953   5.396  0.3170  0.0080  0.4718
 8897SOL    HW227286   6.791   1.997   5.293  0.0703 -0.3272  0.0839
 8898SOL     OW27287   3.651   6.817   3.642  0.6635  0.2919 -0.2949
 8898SOL    HW127288   3.622   6.733   3.606 -1.7447  1.1797 -0.5145
 8898SOL    HW227289   3.713   6.793   3.711 -1.3114 -1.7798  0.8488
 8899SOL     OW27290   1.816   0.502   4.787 -0.6877 -0.0286  0.0712
 8899SOL    HW127291   1.893   0.556   4.807 -0.2646  0.1862 -2.0864
 8899SOL    HW227292   1.742   0.562   4.798 -0.8047 -0.8534  4.5613
 8900SOL     OW27293   1.329   5.769   1.510  0.3326 -0.2258 -0.2714
 8900SOL    HW127294   1.345   5.720   1.429 -2.0251  1.1314 -1.6023
 8900SOL    HW227295   1.238   5.750   1.533  0.5586  0.4905  1.3204
 8901SOL     OW27296   2.906   4.073   2.891  0.2505 -0.0029  0.1316
 8901SOL    HW127297   2.925   4.003   2.828  1.4751 -0.5288  1.0417
 8901SOL    HW227298   2.983   4.130   2.887 -0.2398  0.6604  0.2123
 8902SOL     OW27299   5.831   6.438   0.238 -0.3187  0.1030 -0.2474
 8902SOL    HW127300   5.739   6.445   0.213 -0.2217  1.0386 -0.3722
 8902SOL    HW227301   5.833   6.462   0.330 -0.3816 -1.2421  0.1043
 8903SOL     OW27302   0.031   6.260   2.753 -0.5851  0.5868 -0.8670
 8903SOL    HW127303  -0.014   6.343   2.741 -0.6997  0.7584  0.7038
 8903SOL    HW227304   0.122   6.285   2.771 -0.7167  0.3948  0.0771
 8904SOL     OW27305   0.550   6.173   2.898 -0.1235  0.6012  0.4543
 8904SOL    HW127306   0.566   6.251   2.952 -0.1798 -0.3917  1.9243
 8904SOL    HW227307   0.573   6.099   2.954  0.5326 -0.4385 -1.1474
 8905SOL     OW27308   0.853   0.163   6.753 -0.0528 -0.2899 -0.0812
 8905SOL    HW127309   0.764   0.128   6.760 -0.5471  0.5915 -1.5881
 8905SOL    HW227310   0.840   0.256   6.732  1.1964 -0.4039 -1.4877
 8906SOL     OW27311   5.969   0.761   3.504 -0.2257  0.5734 -0.1591
 8906SOL    HW127312   6.000   0.851   3.492  0.3245  0.2815 -0.9471
 8906SOL    HW227313   5.939   0.734   3.417 -0.4981  0.0357  0.1020
 8907SOL     OW27314   2.384   1.021   0.953 -0.1378 -0.0109  0.3822
 8907SOL    HW127315   2.296   1.057   0.966 -0.6302 -1.7935  2.3338
 8907SOL    HW227316   2.423   1.021   1.041  1.0659 -1.1443 -0.1282
 8908SOL     OW27317   4.440   3.612   3.104  0.0984  0.4553  0.3833
 8908SOL    HW127318   4.357   3.565   3.098 -0.0778  0.8672 -0.4090
 8908SOL    HW227319   4.507   3.543   3.095 -0.1264 -0.0839  2.5264
 8909SOL     OW27320   0.755   2.248   0.887 -0.4521  0.0132 -0.3838
 8909SOL    HW127321   0.851   2.249   0.882 -0.3137  1.1269  1.9014
 8909SOL    HW227322   0.729   2.174   0.831  1.8185 -1.2227  0.1198
 8910SOL     OW27323   0.079   0.853   2.471 -0.1719 -0.9949  0.2361
 8910SOL    HW127324   0.024   0.880   2.545  0.6910 -0.3201  0.6378
 8910SOL    HW227325   0.040   0.770   2.442 -1.8018 -0.1986  0.0869
 8911SOL     OW27326   0.766   2.990   3.065 -0.0940  0.2196  0.0035
 8911SOL    HW127327   0.671   2.990   3.078 -0.7015 -0.4980 -3.7383
 8911SOL    HW227328   0.795   2.906   3.098 -0.7556  0.4686  1.2308
 8912SOL     OW27329   4.330   0.803   5.835 -0.3597  0.0456  0.4893
 8912SOL    HW127330   4.376   0.812   5.918  1.5059 -0.4150 -0.4631
 8912SOL    HW227331   4.337   0.889   5.794 -2.7304  0.7606  1.5051
 8913SOL     OW27332   1.025   5.635   6.372  0.3319  0.3516 -0.0403
 8913SOL    HW127333   1.023   5.667   6.462  0.0487 -0.9905  0.4361
 8913SOL    HW227334   0.937   5.603   6.355  0.1563  1.3384 -1.0772
 8914SOL     OW27335   1.164   2.775   1.084  0.5575  0.8049 -0.1977
 8914SOL    HW127336   1.150   2.721   1.162  2.0389  0.1090 -0.4120
 8914SOL    HW227337   1.081   2.823   1.073 -0.0179  0.1475  1.2027
 8915SOL     OW27338   1.223   3.169   2.990 -0.5725  0.4076  0.2195
 8915SOL    HW127339   1.201   3.134   3.076 -0.4078  0.0955  0.1353
 8915SOL    HW227340   1.140   3.168   2.942 -0.4961 -0.2052  0.0989
 8916SOL     OW27341   5.698   5.735   7.056 -0.5682  0.2170  0.5392
 8916SOL    HW127342   5.735   5.722   7.143  0.0257  1.1962  0.4497
 8916SOL    HW227343   5.772   5.767   7.004 -0.1728 -3.2498 -1.1000
 8917SOL     OW27344   4.740   4.830   7.079  0.1636 -0.0655 -0.5513
 8917SOL    HW127345   4.798   4.771   7.127 -0.0954  0.4048  0.3547
 8917SOL    HW227346   4.669   4.773   7.048  0.3668 -0.3825 -0.4388
 8918SOL     OW27347   1.244   3.223   5.125  0.3896 -0.3357  0.0220
 8918SOL    HW127348   1.265   3.316   5.111 -2.6490  0.6112  1.2117
 8918SOL    HW227349   1.148   3.221   5.124  0.3952 -3.1769  1.9873
 8919SOL     OW27350   4.594   1.714   6.520 -0.3044 -0.0319 -0.0113
 8919SOL    HW127351   4.640   1.733   6.601 -1.0270  1.7644  0.0223
 8919SOL    HW227352   4.579   1.620   6.521  1.6780 -0.3533  0.8564
 8920SOL     OW27353   0.737   4.777   4.817  0.0056 -0.3719  0.0163
 8920SOL    HW127354   0.779   4.716   4.757  0.6098 -0.6908  0.7553
 8920SOL    HW227355   0.808   4.831   4.850 -0.3625 -0.0110  0.2299
 8921SOL     OW27356   6.652   1.605   3.147  0.7288  0.0422 -0.3881
 8921SOL    HW127357   6.698   1.642   3.222  0.5288 -0.2453 -0.1264
 8921SOL    HW227358   6.563   1.640   3.154  0.7416  0.1105 -0.5571
 8922SOL     OW27359   3.760   6.943   3.421  0.0323 -0.0286 -0.1105
 8922SOL    HW127360   3.721   6.900   3.498 -0.5087  0.1975 -0.2525
 8922SOL    HW227361   3.710   7.024   3.412 -0.1006 -0.1935 -0.8808
 8923SOL     OW27362   0.401   6.695   5.637  0.3838  0.6948 -0.0675
 8923SOL    HW127363   0.309   6.682   5.661  0.9565 -0.8566  1.3985
 8923SOL    HW227364   0.450   6.637   5.696  2.2079  0.5039 -1.6978
 8924SOL     OW27365   3.689   2.336   6.490  0.7385  0.0191  0.5027
 8924SOL    HW127366   3.680   2.251   6.446  0.2958  0.3397 -0.0417
 8924SOL    HW227367   3.779   2.363   6.471  0.3026  0.5322 -0.9216
 8925SOL     OW27368   6.131   6.156   0.156 -0.0684  0.1642  0.0548
 8925SOL    HW127369   6.047   6.142   0.201  0.5123 -3.4198  0.1945
 8925SOL    HW227370   6.106   6.179   0.066 -1.1966  1.7483  0.7466
 8926SOL     OW27371   5.307   3.791   1.597 -0.5758  0.1612  0.2680
 8926SOL    HW127372   5.294   3.882   1.569 -2.1430  0.6568  2.5298
 8926SOL    HW227373   5.379   3.795   1.660  0.3061 -0.4002 -0.6795
 8927SOL     OW27374   4.116   5.038   2.474 -0.5014  0.1362  0.2220
 8927SOL    HW127375   4.065   4.986   2.536 -2.3141  1.4025 -0.1774
 8927SOL    HW227376   4.111   4.989   2.392 -0.9429  0.1709  0.2261
 8928SOL     OW27377   5.008   4.883   4.954  0.4465 -0.3435 -0.2320
 8928SOL    HW127378   4.986   4.896   4.862 -0.3671 -1.2083 -0.1628
 8928SOL    HW227379   5.104   4.881   4.956  0.5175  1.2484 -0.8305
 8929SOL     OW27380   6.850   6.860   2.207  0.2561 -0.5096  0.2194
 8929SOL    HW127381   6.826   6.806   2.282 -2.4332  1.2744  0.7120
 8929SOL    HW227382   6.926   6.910   2.236 -0.5280 -0.1294  1.6551
 8930SOL     OW27383   4.580   3.689   5.426 -0.0455  0.0924  0.6346
 8930SOL    HW127384   4.592   3.615   5.366 -2.1692 -0.0705  0.3861
 8930SOL    HW227385   4.615   3.764   5.378  0.8178 -0.5056  0.3153
 8931SOL     OW27386   6.243   6.525   4.387  0.9241 -0.4454  0.0357
 8931SOL    HW127387   6.233   6.441   4.431 -1.3595 -0.3450 -0.2407
 8931SOL    HW227388   6.189   6.518   4.309  1.8023  0.8101 -0.7095
 8932SOL     OW27389   1.792   2.282   1.140 -0.1586 -0.0245 -0.3413
 8932SOL    HW127390   1.813   2.344   1.070 -0.3459 -0.0385 -0.4112
 8932SOL    HW227391   1.821   2.197   1.107  1.3177  0.2173  0.2996
 8933SOL     OW27392   1.956   6.001   1.810  0.3127  0.1092  0.2424
 8933SOL    HW127393   1.924   6.007   1.720  2.4908 -0.1725 -0.5779
 8933SOL    HW227394   1.960   6.093   1.839  0.1526  0.2427 -0.1468
 8934SOL     OW27395   6.392   7.235   1.258 -0.3091  0.5563 -0.2555
 8934SOL    HW127396   6.466   7.174   1.258  0.2632  1.2522 -0.8591
 8934SOL    HW227397   6.428   7.318   1.286 -1.5717  0.0893  3.0065
 8935SOL     OW27398   4.649   7.020   3.043 -0.3132  0.3113 -0.4057
 8935SOL    HW127399   4.682   6.938   3.079 -1.6244  0.7160  1.8758
 8935SOL    HW227400   4.571   6.995   2.993  0.9735 -0.1444 -2.2378
 8936SOL     OW27401   6.188   6.015   0.728 -0.7722 -0.4411 -0.0228
 8936SOL    HW127402   6.128   5.989   0.798  0.1412  0.1642  1.0029
 8936SOL    HW227403   6.275   5.992   0.761 -0.3037  0.1446 -0.8257
 8937SOL     OW27404   0.866   1.978   5.412 -0.0634 -0.3134 -0.0304
 8937SOL    HW127405   0.931   1.913   5.439 -2.3504 -2.6311  0.0441
 8937SOL    HW227406   0.798   1.974   5.478 -0.2503  2.2538  0.0008
 8938SOL     OW27407   4.324   4.780   6.880  0.1696 -0.2370  0.4752
 8938SOL    HW127408   4.333   4.701   6.827 -0.5304  0.1073 -0.1705
 8938SOL    HW227409   4.361   4.756   6.965  1.8851 -0.5989 -0.3580
 8939SOL     OW27410   6.132   3.635   3.002  0.4928 -0.3725 -0.1537
 8939SOL    HW127411   6.107   3.720   2.965 -1.0718 -0.7071  0.1046
 8939SOL    HW227412   6.185   3.657   3.078 -2.2205  0.4393  1.5522
 8940SOL     OW27413   6.815   1.100   4.591 -0.3284 -0.8742  0.0264
 8940SOL    HW127414   6.782   1.178   4.634 -0.6528 -0.6142 -0.6776
 8940SOL    HW227415   6.891   1.074   4.643  0.1120  0.2229 -0.0431
 8941SOL     OW27416   3.062   2.724   0.518  0.4336  0.0836  0.0857
 8941SOL    HW127417   3.047   2.758   0.606 -0.9054  0.2667 -0.1999
 8941SOL    HW227418   2.989   2.758   0.467 -0.1715 -2.1185 -0.5326
 8942SOL     OW27419   0.005   3.172   0.795 -0.4463 -0.1168  0.0678
 8942SOL    HW127420   0.067   3.116   0.747 -1.1142 -1.2232  0.4936
 8942SOL    HW227421   0.018   3.259   0.756  0.1599 -0.6743 -1.0265
 8943SOL     OW27422   5.003   6.102   1.424  0.3912  0.9043  0.1889
 8943SOL    HW127423   4.958   6.163   1.366  0.3005  0.0794 -0.6031
 8943SOL    HW227424   5.040   6.036   1.367  1.1525  0.6254  0.9833
 8944SOL     OW27425   3.249   4.141   1.537 -0.0122 -0.6542 -0.6157
 8944SOL    HW127426   3.224   4.176   1.622 -0.9236 -0.0278 -1.1291
 8944SOL    HW227427   3.166   4.118   1.495  0.5392 -3.3051 -0.3578
 8945SOL     OW27428   4.243   3.405   2.152  0.6375 -0.4391 -0.2862
 8945SOL    HW127429   4.266   3.480   2.207  0.0473 -0.7682  0.4370
 8945SOL    HW227430   4.155   3.425   2.120  0.7252 -0.5409 -0.5925
 8946SOL     OW27431   4.440   1.650   1.762 -0.2986 -0.4013  0.1913
 8946SOL    HW127432   4.522   1.609   1.736 -0.0388  0.1173  0.1729
 8946SOL    HW227433   4.393   1.582   1.810 -0.9156 -1.4604 -1.8658
 8947SOL     OW27434   3.863   6.392   2.866 -0.1936 -0.2086  0.3868
 8947SOL    HW127435   3.782   6.358   2.904  0.3002  0.4895  2.1203
 8947SOL    HW227436   3.835   6.470   2.818 -0.4416  0.6005  1.7992
 8948SOL     OW27437   4.138   2.894   0.567 -0.2473 -0.0666 -0.2935
 8948SOL    HW127438   4.169   2.807   0.592 -0.3713 -0.3970 -1.2770
 8948SOL    HW227439   4.086   2.923   0.641 -0.1610 -0.8113  0.0612
 8949SOL     OW27440   5.190   6.867   1.511 -0.1676  0.7369  0.6650
 8949SOL    HW127441   5.209   6.842   1.421 -0.5513  1.8381  0.2748
 8949SOL    HW227442   5.179   6.783   1.557  2.1355  0.1150  0.1589
 8950SOL     OW27443   3.963   3.203   1.759  0.0793  1.0222  0.2611
 8950SOL    HW127444   3.914   3.123   1.742 -0.0104  1.6572 -2.7937
 8950SOL    HW227445   4.026   3.180   1.827  0.6141 -1.8325 -1.1750
 8951SOL     OW27446   1.608   4.287   5.986  0.2109 -0.4404 -0.2473
 8951SOL    HW127447   1.685   4.329   6.025  0.5995 -0.1680 -1.3044
 8951SOL    HW227448   1.636   4.198   5.967 -0.2286 -0.8172  0.8273
 8952SOL     OW27449   4.429   3.976   3.906  0.0783  0.0233 -0.1672
 8952SOL    HW127450   4.496   3.916   3.938  0.9510  1.3267  0.4788
 8952SOL    HW227451   4.368   3.986   3.979 -0.5777 -0.7939 -0.5939
 8953SOL     OW27452   4.710   0.404   7.176 -0.0938  0.0147 -0.2142
 8953SOL    HW127453   4.786   0.461   7.167 -1.9828  2.6717 -0.1304
 8953SOL    HW227454   4.706   0.384   7.269  0.1476  0.3935 -0.1218
 8954SOL     OW27455   4.607   1.747   3.492 -0.1509 -0.2314  0.6652
 8954SOL    HW127456   4.601   1.842   3.486 -0.0022 -0.2555  0.1434
 8954SOL    HW227457   4.517   1.717   3.503 -0.4585 -0.1997 -1.5939
 8955SOL     OW27458   1.653   3.955   0.357 -0.3635  0.3789  0.3227
 8955SOL    HW127459   1.711   3.891   0.398 -0.0739 -0.7977 -1.8453
 8955SOL    HW227460   1.588   3.975   0.424  0.4241 -1.0395  1.5483
 8956SOL     OW27461   7.062   0.341   7.196  0.7453  0.0777 -0.4568
 8956SOL    HW127462   7.112   0.370   7.272 -0.6405 -0.0666  0.5130
 8956SOL    HW227463   7.029   0.421   7.156  1.1915  0.1315 -0.7249
 8957SOL     OW27464   2.862   6.850   5.306  0.3455 -0.3233 -0.1620
 8957SOL    HW127465   2.940   6.890   5.267 -1.4232  1.3119 -2.1576
 8957SOL    HW227466   2.802   6.923   5.319 -0.8567 -1.5617  1.3535
 8958SOL     OW27467   3.997   2.484   4.081 -0.4705 -0.6728  0.0383
 8958SOL    HW127468   3.929   2.417   4.088 -1.3231  0.1670 -0.2751
 8958SOL    HW227469   3.970   2.553   4.141  0.5393 -0.7007  0.5422
 8959SOL     OW27470   0.153   5.472   2.388  0.2021 -0.3581  0.0704
 8959SOL    HW127471   0.221   5.412   2.420  0.4890  0.4878  1.0621
 8959SOL    HW227472   0.078   5.415   2.370  1.1786 -1.3183 -1.1307
 8960SOL     OW27473   2.642   6.903   3.553 -0.3590 -0.0717  0.0508
 8960SOL    HW127474   2.607   6.969   3.613  0.7195 -0.7071  1.4301
 8960SOL    HW227475   2.648   6.824   3.607 -0.2837 -0.9057 -1.1795
 8961SOL     OW27476   0.209   6.903   2.318  0.4613  1.0526 -0.0730
 8961SOL    HW127477   0.185   6.841   2.388  1.6389  2.0067  1.1932
 8961SOL    HW227478   0.268   6.853   2.262  0.2762  0.5888  0.1373
 8962SOL     OW27479   0.971   4.957   5.001  0.1400 -0.4080  0.4414
 8962SOL    HW127480   1.056   4.912   5.007  0.8168  0.8182  0.3315
 8962SOL    HW227481   0.964   4.983   4.909  0.7483  1.5410  0.9129
 8963SOL     OW27482   1.977   4.617   3.568 -0.3367  0.4801  0.1607
 8963SOL    HW127483   1.959   4.655   3.481 -1.5509  0.7173  0.5073
 8963SOL    HW227484   1.906   4.649   3.623 -1.4901 -2.3936  0.4379
 8964SOL     OW27485   6.633   6.196   6.448 -0.8409  0.3270 -0.3549
 8964SOL    HW127486   6.582   6.278   6.451  0.9974  1.4705  0.2414
 8964SOL    HW227487   6.651   6.183   6.355 -1.3805  0.4327 -0.4804
 8965SOL     OW27488   6.997   7.107   4.413  0.1779  0.4013 -1.0291
 8965SOL    HW127489   7.028   7.048   4.343  0.2636 -1.5730  0.6045
 8965SOL    HW227490   6.908   7.077   4.432  0.8174 -0.3198  0.9599
 8966SOL     OW27491   0.545   2.631   4.400  0.6457  0.8798 -0.2287
 8966SOL    HW127492   0.599   2.552   4.401  0.6068  0.8454 -0.9933
 8966SOL    HW227493   0.456   2.600   4.382  0.8271  1.2153 -1.7200
 8967SOL     OW27494   6.984   5.163   4.914 -0.2497 -0.5591  0.1872
 8967SOL    HW127495   6.895   5.192   4.896  0.2396  0.5971 -0.4122
 8967SOL    HW227496   7.035   5.192   4.839  1.1843  1.3258  1.8345
 8968SOL     OW27497   0.154   2.396   6.735 -0.5822  0.0894 -0.4083
 8968SOL    HW127498   0.197   2.408   6.650  0.2183 -1.8953 -0.3039
 8968SOL    HW227499   0.195   2.462   6.792  1.0716 -0.6034 -0.7814
 8969SOL     OW27500   6.988   3.638   3.464 -0.1120  0.2110 -0.3850
 8969SOL    HW127501   7.038   3.655   3.543 -3.1167  0.8715  1.4711
 8969SOL    HW227502   7.025   3.558   3.428  1.8149  0.3388  1.2516
 8970SOL     OW27503   6.334   5.389   4.189 -0.0832 -0.8828  0.2147
 8970SOL    HW127504   6.361   5.396   4.097  1.2309  0.7620  0.7057
 8970SOL    HW227505   6.411   5.416   4.239 -0.6272 -2.2176  1.8371
 8971SOL     OW27506   5.273   6.530   0.889  0.2195 -0.2072  0.1748
 8971SOL    HW127507   5.180   6.508   0.886  0.0001  0.5189  1.2940
 8971SOL    HW227508   5.278   6.619   0.853  0.5960 -0.5332 -0.6130
 8972SOL     OW27509   0.700   6.361   0.807  0.4622 -0.3883 -0.5168
 8972SOL    HW127510   0.679   6.452   0.787 -0.2145 -0.3737  0.2142
 8972SOL    HW227511   0.776   6.366   0.865  1.0063 -0.3331 -1.2310
 8973SOL     OW27512   1.602   3.799   6.553  0.0084  0.1703  0.1421
 8973SOL    HW127513   1.673   3.765   6.498 -0.8294 -2.7824  0.7856
 8973SOL    HW227514   1.645   3.859   6.614  1.2500  1.9148 -2.3546
 8974SOL     OW27515   0.039   3.397   0.661  0.4371  0.5071 -0.1914
 8974SOL    HW127516  -0.013   3.473   0.635 -0.4711 -0.0594 -0.0776
 8974SOL    HW227517   0.116   3.433   0.704  0.2571  1.3716 -0.5892
 8975SOL     OW27518   5.985   0.363   1.761  0.4125  0.0457  0.3476
 8975SOL    HW127519   5.895   0.338   1.739  0.2892 -0.3147  1.2385
 8975SOL    HW227520   6.003   0.438   1.704 -0.8475  0.8306  0.9391
 8976SOL     OW27521   0.774   6.055   6.451  0.1912 -0.3914 -0.2030
 8976SOL    HW127522   0.695   6.069   6.503  0.4531 -0.2897  0.1704
 8976SOL    HW227523   0.767   6.117   6.378  0.2605  0.0961  0.2066
 8977SOL     OW27524   3.079   3.236   7.239  0.2925  0.1437 -0.1358
 8977SOL    HW127525   3.139   3.162   7.246  1.2424  0.8320 -0.8363
 8977SOL    HW227526   3.028   3.218   7.160 -0.8971 -0.7706  0.8241
 8978SOL     OW27527   3.927   5.319   1.504 -0.3282  0.0780 -0.1056
 8978SOL    HW127528   3.831   5.320   1.507 -0.4155 -0.9687 -1.6851
 8978SOL    HW227529   3.947   5.289   1.416  1.4511 -0.4638  0.4672
 8979SOL     OW27530   1.023   2.245   0.763  0.5069 -0.4301 -0.3899
 8979SOL    HW127531   1.016   2.308   0.691 -0.4357 -0.6473 -0.4935
 8979SOL    HW227532   1.076   2.290   0.829 -0.8242  0.8023 -0.1260
 8980SOL     OW27533   6.926   2.270   0.011  0.3219 -0.0073 -0.7651
 8980SOL    HW127534   6.939   2.205   0.080 -2.3495  0.4091  0.1635
 8980SOL    HW227535   6.993   2.337   0.029 -0.5412  0.2492  1.6243
 8981SOL     OW27536   0.783   3.232   5.748  0.1492 -0.1041 -0.2011
 8981SOL    HW127537   0.781   3.176   5.670  1.7267 -1.2078  0.5377
 8981SOL    HW227538   0.698   3.277   5.747 -0.6883 -1.6534 -1.4194
 8982SOL     OW27539   6.927   2.415   2.220 -0.6065  0.0839  0.4843
 8982SOL    HW127540   6.992   2.345   2.217 -0.0161  0.6269  0.3520
 8982SOL    HW227541   6.861   2.384   2.281 -0.5383 -0.7509  0.1337
 8983SOL     OW27542   7.100   1.196   6.289  0.1273  0.1655 -0.2957
 8983SOL    HW127543   7.027   1.144   6.254  0.7044 -0.3494 -0.7669
 8983SOL    HW227544   7.170   1.184   6.224  0.7568  0.3273  0.3500
 8984SOL     OW27545   1.690   3.269   5.341  0.0527 -0.2386 -0.3713
 8984SOL    HW127546   1.684   3.298   5.250  1.4040  0.8401 -0.1431
 8984SOL    HW227547   1.682   3.174   5.337  1.2188 -0.3020 -1.7450
 8985SOL     OW27548   1.856   4.516   5.551 -0.2961  0.0242 -0.0932
 8985SOL    HW127549   1.833   4.543   5.640  0.2346  0.8380 -0.1940
 8985SOL    HW227550   1.952   4.519   5.550 -0.2391 -1.4604 -0.2454
 8986SOL     OW27551   5.599   5.161   6.337 -0.1407  0.1935  0.4886
 8986SOL    HW127552   5.608   5.256   6.332  2.6246 -0.0303  0.5562
 8986SOL    HW227553   5.551   5.146   6.418 -1.4258  1.5540  0.0004
 8987SOL     OW27554   0.707   0.945   0.201  0.3164  0.2788  0.2750
 8987SOL    HW127555   0.731   0.853   0.209  0.4654  0.3550  0.7473
 8987SOL    HW227556   0.629   0.946   0.146 -0.7454 -0.2842  1.7446
 8988SOL     OW27557   6.135   6.500   5.953  0.0731 -0.5279 -0.0532
 8988SOL    HW127558   6.187   6.545   6.020 -2.1433 -0.7136  1.8679
 8988SOL    HW227559   6.196   6.438   5.913  1.5851 -0.0661  1.4755
 8989SOL     OW27560   1.482   1.514   6.771  0.4147  0.6059 -0.7636
 8989SOL    HW127561   1.419   1.473   6.830  0.1268 -0.1198 -1.5485
 8989SOL    HW227562   1.442   1.597   6.747  1.4500  1.8287  1.6202
 8990SOL     OW27563   5.857   0.244   1.316  0.3790 -0.0498  0.2286
 8990SOL    HW127564   5.795   0.293   1.262  0.9605 -1.2450 -1.5958
 8990SOL    HW227565   5.824   0.154   1.316  1.4519 -0.4526  0.2335
 8991SOL     OW27566   1.017   4.630   0.626 -0.4050 -0.5354  0.2643
 8991SOL    HW127567   0.961   4.635   0.549 -1.1766 -0.3115  0.8383
 8991SOL    HW227568   1.093   4.684   0.604 -0.9884  0.1692 -0.0353
 8992SOL     OW27569   3.897   3.248   2.909 -0.6668  0.1134  0.1499
 8992SOL    HW127570   3.856   3.161   2.913 -0.2064 -0.1585 -0.8404
 8992SOL    HW227571   3.921   3.258   2.817  2.2594 -0.1078  0.8499
 8993SOL     OW27572   3.208   3.788   0.509  0.1881  0.6878 -0.6864
 8993SOL    HW127573   3.162   3.865   0.542 -0.5789  0.1689 -0.5227
 8993SOL    HW227574   3.295   3.820   0.486 -0.0454  1.5512 -0.3960
 8994SOL     OW27575   2.861   2.195   1.436 -0.2687 -0.0269 -0.2410
 8994SOL    HW127576   2.768   2.191   1.458 -0.4376 -0.7307 -1.0583
 8994SOL    HW227577   2.892   2.105   1.446  0.5006  0.3311  0.7383
 8995SOL     OW27578   1.048   1.095   3.605 -0.4299  0.2612  0.3938
 8995SOL    HW127579   1.008   1.108   3.691 -0.6179  0.6959  0.2382
 8995SOL    HW227580   1.108   1.021   3.618 -0.8566 -0.0230  0.7635
 8996SOL     OW27581   3.771   2.019   0.714  0.2705  0.1051  0.3942
 8996SOL    HW127582   3.821   1.968   0.777 -0.5090  0.8141  1.6062
 8996SOL    HW227583   3.721   1.954   0.665  0.9079 -0.4491  0.4643
 8997SOL     OW27584   0.665   1.780   6.276  0.4195  0.9066 -0.8306
 8997SOL    HW127585   0.657   1.824   6.192  0.2205  1.0019 -0.7631
 8997SOL    HW227586   0.649   1.687   6.256 -0.7900  1.0792 -0.7186
 8998SOL     OW27587   6.383   7.168   0.836 -0.1082  0.4506 -0.3802
 8998SOL    HW127588   6.353   7.205   0.753  0.9779  0.4513 -0.7826
 8998SOL    HW227589   6.469   7.207   0.849 -1.0635  1.9396  1.7061
 8999SOL     OW27590   6.971   0.677   1.045 -0.1361  0.0577 -0.2845
 8999SOL    HW127591   7.031   0.702   0.975  0.6821 -0.1482  0.3261
 8999SOL    HW227592   6.927   0.759   1.070  0.7553  0.4403  0.0564
 9000SOL     OW27593   1.249   4.194   1.986 -0.7510 -0.5855 -0.0750
 9000SOL    HW127594   1.191   4.147   2.045  0.0295 -0.3940  0.8528
 9000SOL    HW227595   1.328   4.141   1.982  0.2222  0.7330  1.1601
 9001SOL     OW27596   6.001   6.511   2.104 -0.0695  0.1339 -0.2415
 9001SOL    HW127597   6.051   6.471   2.032 -1.2916 -0.1451 -0.9447
 9001SOL    HW227598   5.956   6.585   2.064 -1.3148 -0.4479  0.0776
 9002SOL     OW27599   1.408   1.381   2.219  0.1190  0.7080  0.9199
 9002SOL    HW127600   1.385   1.413   2.307  2.1161  1.4595  1.2005
 9002SOL    HW227601   1.413   1.286   2.229  1.2354  0.8505  1.8614
 9003SOL     OW27602   0.254   0.787   2.774  0.0550  0.0233 -0.2797
 9003SOL    HW127603   0.253   0.867   2.826  1.6397 -0.0045 -0.1579
 9003SOL    HW227604   0.180   0.736   2.806  0.9187  0.0666  1.8753
 9004SOL     OW27605   6.419   5.328   4.878  0.6481  0.3996  0.1993
 9004SOL    HW127606   6.473   5.287   4.811  1.6238  1.6944  0.1786
 9004SOL    HW227607   6.390   5.256   4.933  1.2717 -0.4660 -0.5981
 9005SOL     OW27608   3.973   6.730   6.358 -0.4347  0.5307  0.2778
 9005SOL    HW127609   3.921   6.716   6.437 -1.1699  0.7949 -0.1578
 9005SOL    HW227610   4.060   6.696   6.380 -0.9115 -0.3303  0.8464
 9006SOL     OW27611   3.318   3.382   0.683 -0.0903  0.4418  0.4442
 9006SOL    HW127612   3.257   3.350   0.617  0.3202 -1.9915  1.2018
 9006SOL    HW227613   3.262   3.421   0.750 -0.6249  0.9770 -0.3044
 9007SOL     OW27614   6.186   5.445   5.197  0.5484 -1.0445  0.2488
 9007SOL    HW127615   6.221   5.462   5.284 -1.0634  0.4446  0.6491
 9007SOL    HW227616   6.094   5.472   5.203  0.7695  0.4316 -2.2901
 9008SOL     OW27617   4.274   2.632   2.941 -0.1061  0.2416 -0.8701
 9008SOL    HW127618   4.302   2.638   3.032  0.4448 -0.7956 -0.9642
 9008SOL    HW227619   4.263   2.723   2.913 -1.0324  0.5556  0.4547
 9009SOL     OW27620   2.727   0.844   5.200  0.2911 -0.1281  0.6217
 9009SOL    HW127621   2.666   0.776   5.173 -1.3019  1.0151  1.2383
 9009SOL    HW227622   2.715   0.850   5.295  0.2749  1.1360  0.5436
 9010SOL     OW27623   2.247   3.158   6.330  0.3176 -0.1397  0.4667
 9010SOL    HW127624   2.271   3.175   6.421  2.5383  0.7738 -0.2658
 9010SOL    HW227625   2.225   3.245   6.295  0.0035 -0.4138 -0.0243
 9011SOL     OW27626   6.346   4.813   5.743 -0.3937  0.1287  0.2836
 9011SOL    HW127627   6.372   4.844   5.830  1.5141  0.5532 -0.4272
 9011SOL    HW227628   6.283   4.879   5.712  1.5067  1.8186 -0.0529
 9012SOL     OW27629   3.132   6.172   1.154 -0.1762  0.4043 -0.0736
 9012SOL    HW127630   3.079   6.244   1.189 -0.3955 -0.0382  0.5002
 9012SOL    HW227631   3.218   6.185   1.193  0.1795  1.1806 -1.0825
 9013SOL     OW27632   6.914   3.513   2.957  0.2017  0.1516 -0.5317
 9013SOL    HW127633   6.966   3.590   2.932  0.5745  0.0909  0.0573
 9013SOL    HW227634   6.836   3.549   2.998 -0.0181  0.2316 -1.0097
 9014SOL     OW27635   0.765   1.800   0.569  0.5371 -0.2079 -0.5696
 9014SOL    HW127636   0.674   1.803   0.600  1.6745 -0.6631  3.1323
 9014SOL    HW227637   0.779   1.708   0.546 -0.0224 -0.0644 -1.5206
 9015SOL     OW27638   4.441   1.444   2.170  0.1249  0.3233  0.0466
 9015SOL    HW127639   4.511   1.383   2.146  0.5040  0.2620  1.2892
 9015SOL    HW227640   4.408   1.476   2.086 -0.6279 -2.1815 -0.6365
 9016SOL     OW27641   5.666   1.922   7.123  0.6038 -0.3235 -0.1129
 9016SOL    HW127642   5.705   1.982   7.060  1.1093  1.3038  1.7123
 9016SOL    HW227643   5.739   1.867   7.152  0.8269  0.4110  0.7160
 9017SOL     OW27644   4.581   6.376   2.302  0.3602 -0.4108  0.4345
 9017SOL    HW127645   4.625   6.385   2.386 -2.1473 -0.6759  1.8520
 9017SOL    HW227646   4.522   6.451   2.297  0.6034 -0.3006 -1.1786
 9018SOL     OW27647   6.422   4.223   6.132  0.3150 -0.3359 -1.0158
 9018SOL    HW127648   6.400   4.135   6.160 -0.0814  0.1279  0.1488
 9018SOL    HW227649   6.457   4.266   6.210 -0.4995  0.8676 -1.2866
 9019SOL     OW27650   6.377   1.363   5.473  0.1279  0.1397 -0.4176
 9019SOL    HW127651   6.398   1.444   5.520  0.4481 -0.7891  1.0652
 9019SOL    HW227652   6.462   1.324   5.452 -0.0478 -0.7987  0.6063
 9020SOL     OW27653   2.293   0.120   2.881 -0.1642  0.7891 -0.4514
 9020SOL    HW127654   2.200   0.108   2.896 -0.2120  0.5438 -0.9196
 9020SOL    HW227655   2.335   0.081   2.958 -0.3582 -1.6481 -1.5187
 9021SOL     OW27656   6.185   2.468   3.411 -0.1024  0.7311 -0.2836
 9021SOL    HW127657   6.274   2.496   3.429 -0.0757 -0.7186  2.0614
 9021SOL    HW227658   6.135   2.550   3.404  1.3265  1.5388 -1.2958
 9022SOL     OW27659   3.321   4.137   4.788 -0.4597  0.1087 -0.2200
 9022SOL    HW127660   3.399   4.139   4.733  0.4388  0.3235  1.0335
 9022SOL    HW227661   3.290   4.228   4.789  0.2962  0.3726  0.6773
 9023SOL     OW27662   5.345   2.261   6.948  0.0109  0.7963  0.5699
 9023SOL    HW127663   5.413   2.278   6.884  0.0952  0.0098  0.4381
 9023SOL    HW227664   5.263   2.281   6.902  0.1205  1.1913  0.5441
 9024SOL     OW27665   4.247   6.907   0.006 -0.0414 -0.1729 -0.3663
 9024SOL    HW127666   4.314   6.855   0.050 -1.0345 -0.3348  0.9664
 9024SOL    HW227667   4.175   6.846  -0.009 -0.2176  0.1993 -1.0799
 9025SOL     OW27668   4.245   2.466   1.329 -0.5333  0.4155  0.1577
 9025SOL    HW127669   4.269   2.386   1.375 -1.5469 -0.9042 -1.5503
 9025SOL    HW227670   4.182   2.509   1.386  0.3975  0.2614  1.3183
 9026SOL     OW27671   3.954   2.206   4.897  0.3332  0.8197  0.4663
 9026SOL    HW127672   4.016   2.263   4.851 -2.5152  2.0760 -1.9643
 9026SOL    HW227673   3.891   2.266   4.936 -2.7272 -0.5242 -2.1555
 9027SOL     OW27674   2.348   1.691   7.161 -0.1269  0.3689  0.3090
 9027SOL    HW127675   2.415   1.654   7.219 -2.4347 -1.8069  1.6964
 9027SOL    HW227676   2.270   1.639   7.180 -1.1595  0.1154 -4.2291
 9028SOL     OW27677   4.485   2.903   4.459 -0.0693  0.3509 -0.1956
 9028SOL    HW127678   4.486   2.840   4.387 -0.6953  0.8441 -0.6395
 9028SOL    HW227679   4.479   2.848   4.538  1.9023 -0.2330 -0.4414
 9029SOL     OW27680   0.381   7.087   6.279 -0.3696  0.5044 -0.5361
 9029SOL    HW127681   0.359   7.014   6.220  2.2535  0.1163 -1.0796
 9029SOL    HW227682   0.391   7.045   6.365  0.0461  0.3901 -0.6383
 9030SOL     OW27683   7.074   4.143   3.032  1.1025 -0.2072  0.3835
 9030SOL    HW127684   7.129   4.172   2.959  0.7555  0.9156  0.5667
 9030SOL    HW227685   6.990   4.187   3.017  1.2261  0.5249  1.8012
 9031SOL     OW27686   6.639   5.073   3.492 -0.3013  0.1417 -0.1671
 9031SOL    HW127687   6.674   4.996   3.446 -1.1033  0.0719 -0.6729
 9031SOL    HW227688   6.647   5.051   3.585  2.4250  0.7596 -0.2148
 9032SOL     OW27689   0.639   1.450   3.867  0.0428  0.0900 -0.7211
 9032SOL    HW127690   0.719   1.419   3.908  0.8862 -0.2629 -2.5955
 9032SOL    HW227691   0.608   1.375   3.815 -0.9129  0.5675 -0.8556
 9033SOL     OW27692   6.534   5.612   6.938 -0.4342  0.1623 -0.7203
 9033SOL    HW127693   6.458   5.650   6.981 -0.5838  0.0132 -0.8547
 9033SOL    HW227694   6.602   5.679   6.947 -0.2083 -0.2132  0.4937
 9034SOL     OW27695   4.489   2.853   6.470  0.0051  0.0904 -0.1829
 9034SOL    HW127696   4.483   2.763   6.439  3.1775 -0.3245  0.2278
 9034SOL    HW227697   4.531   2.900   6.398 -1.1017  1.1232 -0.1646
 9035SOL     OW27698   0.436   4.607   1.525 -0.1594  0.0320  0.3370
 9035SOL    HW127699   0.501   4.671   1.554  0.6997 -1.0157  0.7792
 9035SOL    HW227700   0.480   4.559   1.454 -0.8726  0.0893 -0.1445
 9036SOL     OW27701   3.970   0.594   1.804  0.3968 -0.6735 -0.2130
 9036SOL    HW127702   3.973   0.502   1.831  0.0973 -0.4264  0.6940
 9036SOL    HW227703   4.023   0.640   1.869 -1.3171  0.1041  0.6669
 9037SOL     OW27704   4.017   0.775   3.407 -0.1088  0.0998 -0.2042
 9037SOL    HW127705   4.112   0.782   3.416 -0.0116  0.7052 -1.5438
 9037SOL    HW227706   4.003   0.685   3.376  0.0312  0.0110 -0.0093
 9038SOL     OW27707   6.429   5.626   3.795 -1.1882 -0.4885  0.5752
 9038SOL    HW127708   6.467   5.670   3.719 -0.1658 -0.9456  0.8003
 9038SOL    HW227709   6.339   5.658   3.800 -0.9156  0.4046 -0.1510
 9039SOL     OW27710   3.840   1.867   3.877 -0.5732  0.3533  0.0769
 9039SOL    HW127711   3.774   1.806   3.910  0.1802  1.2634  3.4865
 9039SOL    HW227712   3.921   1.840   3.921  0.5988  1.4205 -1.3798
 9040SOL     OW27713   5.410   0.464   4.344  0.0744  0.2585  0.0481
 9040SOL    HW127714   5.401   0.542   4.400 -2.6150  1.6889 -2.2273
 9040SOL    HW227715   5.323   0.423   4.348  0.7779 -1.3075 -0.6909
 9041SOL     OW27716   0.954   0.572   6.013  0.2809  0.2888 -0.0218
 9041SOL    HW127717   0.929   0.604   5.926  0.1039 -3.1003 -1.2624
 9041SOL    HW227718   1.027   0.512   5.996 -0.1341 -0.8414  2.1228
 9042SOL     OW27719   1.175   4.454   4.540 -0.2421 -0.2763 -0.3479
 9042SOL    HW127720   1.259   4.498   4.527 -0.2752 -0.6505 -1.9677
 9042SOL    HW227721   1.123   4.479   4.464 -0.9979 -1.4052 -0.2189
 9043SOL     OW27722   1.934   3.033   5.931  0.0533 -0.2949 -0.2711
 9043SOL    HW127723   1.873   2.963   5.908 -0.8991 -0.1221  1.6316
 9043SOL    HW227724   2.009   3.018   5.874 -1.1791 -1.3527 -1.6635
 9044SOL     OW27725   1.180   0.060   4.883  0.2357 -0.1927  0.0029
 9044SOL    HW127726   1.145   0.020   4.963  0.4432 -0.9269 -0.2666
 9044SOL    HW227727   1.204   0.149   4.909 -1.3628  0.1687  0.3042
 9045SOL     OW27728   1.908   1.612   2.940 -0.0526 -0.0138 -0.0274
 9045SOL    HW127729   1.928   1.705   2.937  0.6480 -0.1307  0.7129
 9045SOL    HW227730   1.961   1.578   3.012  1.1094 -1.3157 -1.4329
 9046SOL     OW27731   4.828   3.209   2.038  0.2765  0.2496 -0.6240
 9046SOL    HW127732   4.859   3.238   1.952  2.0569 -1.8726 -0.7484
 9046SOL    HW227733   4.901   3.228   2.098 -0.4612  0.5398  0.1995
 9047SOL     OW27734   0.593   0.137   0.894  0.0746 -0.1404  0.7322
 9047SOL    HW127735   0.599   0.141   0.989 -3.0275 -0.7482  1.0036
 9047SOL    HW227736   0.630   0.051   0.871  0.4852 -0.1476  1.3935
 9048SOL     OW27737   6.932   2.939   6.019  0.3773 -0.2621 -0.2611
 9048SOL    HW127738   6.972   2.894   6.093 -0.9384 -0.5626  0.2843
 9048SOL    HW227739   6.839   2.921   6.027  0.0170  1.1339 -1.0191
 9049SOL     OW27740   2.166   4.425   2.820 -0.3800 -0.1040  0.1266
 9049SOL    HW127741   2.075   4.432   2.847 -0.2890  0.3931  0.3094
 9049SOL    HW227742   2.204   4.362   2.881 -0.0226  1.4849  1.5795
 9050SOL     OW27743   5.936   0.172   0.236  0.2229 -0.6192 -0.7046
 9050SOL    HW127744   5.878   0.239   0.271  0.7135 -0.4625 -0.1825
 9050SOL    HW227745   5.996   0.220   0.179  1.8729 -0.3005  1.2619
 9051SOL     OW27746   3.019   1.171   5.768 -0.4579 -0.7277 -0.0152
 9051SOL    HW127747   2.967   1.225   5.708  0.3611 -1.3005 -1.2415
 9051SOL    HW227748   3.108   1.206   5.762 -0.1335 -1.5479 -0.0264
 9052SOL     OW27749   3.739   0.517   0.301  0.2089 -0.3480  0.7011
 9052SOL    HW127750   3.725   0.575   0.227  2.1276 -1.6564 -0.7390
 9052SOL    HW227751   3.780   0.572   0.368 -0.9495  0.6842  0.5897
 9053SOL     OW27752   3.406   4.244   3.622 -0.9470 -0.5660  0.3297
 9053SOL    HW127753   3.360   4.269   3.542 -0.7612 -1.3859 -0.0475
 9053SOL    HW227754   3.460   4.320   3.645  0.0492 -0.8220 -1.1002
 9054SOL     OW27755   3.087   0.933   7.200  0.0007 -0.6911 -0.3842
 9054SOL    HW127756   3.122   0.856   7.157 -0.4094 -0.5082 -1.0607
 9054SOL    HW227757   3.105   1.005   7.139  0.3087 -0.2686  0.2023
 9055SOL     OW27758   5.449   5.705   2.618 -0.4659 -0.2850  0.5295
 9055SOL    HW127759   5.413   5.655   2.545  0.8727  1.0619 -1.0876
 9055SOL    HW227760   5.478   5.638   2.681 -2.4726 -1.4382  0.2683
 9056SOL     OW27761   5.320   1.126   1.880  0.6602  0.2666 -0.5531
 9056SOL    HW127762   5.380   1.187   1.837  1.8031  0.1976  0.8903
 9056SOL    HW227763   5.305   1.058   1.815  1.2437  0.8816 -1.3448
 9057SOL     OW27764   2.764   3.306   1.265 -0.0786 -0.1863  0.1525
 9057SOL    HW127765   2.795   3.216   1.273 -0.0760 -0.0015  2.9570
 9057SOL    HW227766   2.780   3.344   1.352  0.0229  2.5418 -1.0115
 9058SOL     OW27767   2.978   4.148   3.593  0.0667 -0.3120 -0.6631
 9058SOL    HW127768   2.982   4.110   3.505  0.7457 -0.3148 -0.6335
 9058SOL    HW227769   2.895   4.196   3.594  0.3150  0.1505 -1.4977
 9059SOL     OW27770   5.199   0.746   7.009 -0.4502  0.6059 -0.4936
 9059SOL    HW127771   5.110   0.777   7.027 -0.0144  2.7988 -1.9348
 9059SOL    HW227772   5.252   0.780   7.080 -0.4797  0.6597 -0.4977
 9060SOL     OW27773   4.655   2.904   0.792  0.0239 -0.2802 -0.1055
 9060SOL    HW127774   4.622   2.991   0.813 -0.6500 -0.4231 -0.5528
 9060SOL    HW227775   4.577   2.848   0.791  0.4897 -0.9351  0.4370
 9061SOL     OW27776   0.712   1.713   2.674 -0.1154  0.0790 -0.2722
 9061SOL    HW127777   0.722   1.618   2.682  1.6200  0.1967 -0.8365
 9061SOL    HW227778   0.785   1.749   2.725  0.6558  1.0560 -2.0397
 9062SOL     OW27779   1.033   2.967   2.936 -0.2331 -0.1950 -0.2941
 9062SOL    HW127780   0.941   2.971   2.962 -0.3073 -2.0591 -0.2249
 9062SOL    HW227781   1.031   2.947   2.843  0.0934 -1.8150  0.0291
 9063SOL     OW27782   2.507   5.531   4.205 -0.2722  0.4675  0.1928
 9063SOL    HW127783   2.493   5.593   4.276  0.7363  2.3731 -1.2334
 9063SOL    HW227784   2.601   5.533   4.189 -0.6893  1.5194 -2.4425
 9064SOL     OW27785   3.539   0.708   3.768  0.6274  0.3626 -0.1900
 9064SOL    HW127786   3.468   0.758   3.809  0.1970 -1.3705  1.2314
 9064SOL    HW227787   3.600   0.775   3.737 -0.6894  1.8221  0.2829
 9065SOL     OW27788   0.324   1.071   4.334 -0.1806 -0.1820 -0.2772
 9065SOL    HW127789   0.323   1.127   4.412 -1.1158  0.8395 -1.0033
 9065SOL    HW227790   0.386   1.001   4.356 -1.5929 -0.7717  1.9744
 9066SOL     OW27791   6.288   3.270   0.456 -0.1799  0.1873 -0.0549
 9066SOL    HW127792   6.299   3.175   0.456 -1.1134  0.0758  0.4608
 9066SOL    HW227793   6.207   3.285   0.406 -0.8584  0.5983  1.1321
 9067SOL     OW27794   0.154   4.801   3.275  0.0480 -0.0343  0.6886
 9067SOL    HW127795   0.094   4.736   3.312 -0.3621  0.0644  0.1885
 9067SOL    HW227796   0.146   4.790   3.181 -1.4047  2.0000  0.5478
 9068SOL     OW27797   2.109   2.814   4.317 -0.1874 -0.0153  0.2332
 9068SOL    HW127798   2.158   2.817   4.235  1.2637  1.5215  1.1442
 9068SOL    HW227799   2.171   2.777   4.380 -0.7040  0.5070  1.0456
 9069SOL     OW27800   6.398   0.021   4.929  0.3396 -0.0140 -0.0426
 9069SOL    HW127801   6.465  -0.024   4.877  1.3343  1.9056 -0.4513
 9069SOL    HW227802   6.424   0.005   5.020  0.3760 -0.7037 -0.1662
 9070SOL     OW27803   4.340   6.259   3.049  0.0721  0.2246 -0.7405
 9070SOL    HW127804   4.262   6.289   3.003 -0.0821 -0.5558 -0.9893
 9070SOL    HW227805   4.388   6.208   2.984  1.4999  1.8574 -1.0302
 9071SOL     OW27806   4.788   1.836   3.722 -0.0624 -0.1502  0.2879
 9071SOL    HW127807   4.875   1.870   3.705  0.7047 -1.6944  1.0411
 9071SOL    HW227808   4.798   1.741   3.721 -1.1715 -0.3497  3.0868
 9072SOL     OW27809   0.509   3.159   5.106 -0.1179 -0.0835 -0.4607
 9072SOL    HW127810   0.539   3.095   5.170 -1.1324  0.4871  0.6038
 9072SOL    HW227811   0.430   3.121   5.069 -0.2986  0.2039 -0.3738
 9073SOL     OW27812   1.148   5.231   5.749 -0.4092  0.1085 -0.2360
 9073SOL    HW127813   1.079   5.209   5.686 -0.2678 -1.8065  0.2391
 9073SOL    HW227814   1.140   5.325   5.762 -2.9028 -0.0815 -0.2409
 9074SOL     OW27815   5.794   0.139   5.764  0.1217  0.2314  0.7384
 9074SOL    HW127816   5.868   0.107   5.817 -0.7742 -1.6735  0.9048
 9074SOL    HW227817   5.766   0.219   5.809  1.3631  0.3660  1.3165
 9075SOL     OW27818   3.891   7.240   2.967  0.0649  0.0727  0.4889
 9075SOL    HW127819   3.984   7.258   2.981  0.1867 -0.2394  0.0907
 9075SOL    HW227820   3.849   7.261   3.051  0.3187  1.4404  0.2823
 9076SOL     OW27821   5.618   5.844   6.040  0.0621 -0.0733  0.3258
 9076SOL    HW127822   5.536   5.806   6.009 -1.2539  1.7891  1.4154
 9076SOL    HW227823   5.650   5.896   5.967  0.6851 -1.3861 -0.3605
 9077SOL     OW27824   2.981   1.659   6.545 -0.1609  0.6161 -0.2551
 9077SOL    HW127825   2.939   1.745   6.548 -0.5017  0.4296  0.5010
 9077SOL    HW227826   3.075   1.678   6.540 -0.2073  1.0355  0.3883
 9078SOL     OW27827   7.164   7.152   5.784  0.1476  0.6135  0.5220
 9078SOL    HW127828   7.217   7.175   5.708 -1.5857 -0.7183 -1.1420
 9078SOL    HW227829   7.227   7.118   5.848  1.3303 -0.8387 -1.3626
 9079SOL     OW27830   0.950   7.081   0.815 -0.3471 -0.5159 -0.1890
 9079SOL    HW127831   0.967   6.994   0.780 -0.7541 -1.2290  1.3458
 9079SOL    HW227832   0.997   7.141   0.756 -1.3657 -1.6358 -2.1724
 9080SOL     OW27833   0.306   4.256   0.557  0.4877 -0.6636 -0.8353
 9080SOL    HW127834   0.211   4.262   0.548  0.5400 -0.5103 -1.3143
 9080SOL    HW227835   0.331   4.182   0.502  0.5014 -1.5573  0.3609
 9081SOL     OW27836   1.658   3.958   1.033  0.1638 -0.3277  0.1221
 9081SOL    HW127837   1.613   4.023   0.979 -0.5384 -1.3677 -0.5740
 9081SOL    HW227838   1.730   3.927   0.978  0.3019 -0.3579  0.3207
 9082SOL     OW27839   4.067   5.766   6.235 -0.0836  0.2109 -0.2119
 9082SOL    HW127840   4.019   5.718   6.168  0.4963 -2.7625  1.4155
 9082SOL    HW227841   4.157   5.767   6.203  0.1674 -1.0853  0.4250
 9083SOL     OW27842   2.631   1.320   4.782  0.2439  0.0791  0.2914
 9083SOL    HW127843   2.671   1.295   4.698 -2.1702  1.3869 -1.2945
 9083SOL    HW227844   2.631   1.239   4.833 -0.0400 -1.2430 -1.7372
 9084SOL     OW27845   6.618   1.284   2.679  0.2350  0.4936 -0.3536
 9084SOL    HW127846   6.599   1.211   2.620 -1.8071  2.3088 -2.0299
 9084SOL    HW227847   6.605   1.248   2.767  2.8577 -2.1419 -0.9540
 9085SOL     OW27848   6.971   2.594   1.691 -0.5612  0.1060  0.0868
 9085SOL    HW127849   6.974   2.559   1.780  0.6300  1.0356  0.4364
 9085SOL    HW227850   7.008   2.682   1.700  3.0692 -1.1214 -1.9368
 9086SOL     OW27851   6.628   3.024   3.696  0.2603 -0.1016 -0.2999
 9086SOL    HW127852   6.558   2.961   3.683  0.2736 -0.0873 -0.4381
 9086SOL    HW227853   6.662   3.041   3.609 -0.2114  0.6316 -0.3531
 9087SOL     OW27854   5.332   6.468   1.157 -0.6223 -0.0268  0.2091
 9087SOL    HW127855   5.262   6.404   1.144  1.3158 -2.1266 -0.2654
 9087SOL    HW227856   5.362   6.489   1.068 -1.2215  1.5057  0.3678
 9088SOL     OW27857   4.178   1.858   3.933  0.5470 -0.0397 -0.0359
 9088SOL    HW127858   4.235   1.804   3.878  1.3688  0.3738  0.4090
 9088SOL    HW227859   4.185   1.946   3.896  0.8710  0.1797  0.5496
 9089SOL     OW27860   5.068   5.106   5.874 -0.1675 -0.0870  0.1052
 9089SOL    HW127861   5.146   5.160   5.864  0.1311 -0.7492 -1.3284
 9089SOL    HW227862   5.033   5.098   5.785 -0.3461 -2.0514  0.3404
 9090SOL     OW27863   5.462   6.207   6.612 -0.4229 -0.2308 -0.4116
 9090SOL    HW127864   5.373   6.204   6.648 -0.6588 -1.0390 -1.0489
 9090SOL    HW227865   5.490   6.116   6.610  0.6709  0.0845  0.3829
 9091SOL     OW27866   3.132   5.363   3.556  0.3363 -0.1982 -0.0541
 9091SOL    HW127867   3.050   5.412   3.561 -0.7643 -1.6920 -2.6951
 9091SOL    HW227868   3.118   5.286   3.612  0.4813  0.3040  0.6709
 9092SOL     OW27869   6.764   0.687   3.402 -0.2487  0.5961  0.1002
 9092SOL    HW127870   6.806   0.650   3.480  0.5753  3.0169  0.8258
 9092SOL    HW227871   6.680   0.720   3.433 -0.4427  0.4769 -0.2946
 9093SOL     OW27872   1.003   2.340   2.602 -0.0783  0.7812 -0.3201
 9093SOL    HW127873   1.032   2.350   2.512 -2.5386 -0.3510 -1.2866
 9093SOL    HW227874   1.083   2.342   2.654  1.7267 -2.3452 -2.8571
 9094SOL     OW27875   3.216   2.680   6.220  0.0224 -0.3360  0.6594
 9094SOL    HW127876   3.166   2.719   6.292  1.5706  0.5884  1.2653
 9094SOL    HW227877   3.230   2.752   6.158  1.2114 -0.3939  0.8467
 9095SOL     OW27878   0.722   0.382   6.652  0.6222  0.1873 -0.4521
 9095SOL    HW127879   0.721   0.399   6.558  4.1394  1.9581 -0.2248
 9095SOL    HW227880   0.684   0.461   6.691 -1.1994 -0.7062 -0.3649
 9096SOL     OW27881   2.097   4.816   5.770  0.0261 -0.0785 -0.4693
 9096SOL    HW127882   2.157   4.780   5.835 -1.2167  0.5432  1.0588
 9096SOL    HW227883   2.016   4.766   5.783 -1.3272  2.3963  0.8425
 9097SOL     OW27884   3.334   0.169   4.486  0.2649  0.2278 -0.0805
 9097SOL    HW127885   3.414   0.153   4.437  0.8203  0.3178  0.7850
 9097SOL    HW227886   3.327   0.264   4.490  0.5444  0.2225  0.5356
 9098SOL     OW27887   7.090   6.417   1.664 -0.2978  0.1816 -0.0179
 9098SOL    HW127888   7.040   6.397   1.584 -0.1538 -1.3949  0.2607
 9098SOL    HW227889   7.089   6.512   1.670 -3.5965  0.1558  0.2072
 9099SOL     OW27890   3.636   1.675   2.404  0.0073  0.0362 -0.0257
 9099SOL    HW127891   3.649   1.768   2.385 -0.7281  0.5070  1.7243
 9099SOL    HW227892   3.723   1.643   2.427  0.3293  0.1857 -0.9826
 9100SOL     OW27893   3.240   1.846   3.710  0.1435 -0.4911  0.2636
 9100SOL    HW127894   3.184   1.810   3.641 -0.0958  0.6354 -0.1375
 9100SOL    HW227895   3.190   1.832   3.790  0.5274 -2.0222  0.2525
 9101SOL     OW27896   5.942   3.462   6.199  0.2538  0.2871  0.2344
 9101SOL    HW127897   6.000   3.422   6.264  1.0820 -0.0900 -0.7296
 9101SOL    HW227898   5.949   3.405   6.122 -0.5946  0.8194 -0.2431
 9102SOL     OW27899   0.871   0.179   0.385  0.3750 -0.6748 -0.7416
 9102SOL    HW127900   0.959   0.156   0.415  0.0382 -0.9767  0.0467
 9102SOL    HW227901   0.862   0.272   0.408 -0.1563 -1.0898  0.8293
 9103SOL     OW27902   3.433   4.991   2.656  0.3279  0.4721  0.1745
 9103SOL    HW127903   3.476   5.030   2.732  0.3572  0.4406  0.1736
 9103SOL    HW227904   3.495   4.925   2.625 -0.1199 -0.2057  0.7195
 9104SOL     OW27905   2.274   6.807   4.798  0.0261 -0.5177 -0.6050
 9104SOL    HW127906   2.324   6.843   4.871  0.3832 -0.9079 -0.6497
 9104SOL    HW227907   2.219   6.740   4.837 -1.6796  1.0277 -0.3020
 9105SOL     OW27908   1.967   2.596   2.160  0.1993 -0.4519 -0.3847
 9105SOL    HW127909   2.058   2.569   2.156  0.2911 -0.2736  0.3181
 9105SOL    HW227910   1.929   2.541   2.229  0.3322  1.0086  0.8853
 9106SOL     OW27911   3.471   5.926   1.719 -0.2004  0.7481  0.7462
 9106SOL    HW127912   3.508   5.987   1.784 -2.1144  1.8480  0.8580
 9106SOL    HW227913   3.396   5.974   1.682 -1.8576 -1.6034  0.9593
 9107SOL     OW27914   1.574   0.922   3.107 -0.3538 -0.7445  0.0595
 9107SOL    HW127915   1.497   0.867   3.098  0.2200 -1.4133 -0.8399
 9107SOL    HW227916   1.611   0.927   3.019  0.7839 -0.6694  0.5281
 9108SOL     OW27917   3.386   6.230   2.840 -0.2226  0.8055  0.9287
 9108SOL    HW127918   3.300   6.271   2.830  0.4118  2.0426  0.5686
 9108SOL    HW227919   3.446   6.288   2.793  0.2495 -2.0837 -2.2852
 9109SOL     OW27920   0.406   3.651   2.373 -0.1123  0.6243  0.7026
 9109SOL    HW127921   0.416   3.558   2.353 -1.3842  0.8362 -1.0911
 9109SOL    HW227922   0.487   3.676   2.416  0.6865 -1.0641  0.1964
 9110SOL     OW27923   1.479   4.446   5.352  1.0800  0.0935  0.2639
 9110SOL    HW127924   1.421   4.447   5.427 -2.8544  0.6016 -2.6168
 9110SOL    HW227925   1.522   4.532   5.354 -0.8731  1.0808  0.5629
 9111SOL     OW27926   1.703   0.622   6.381  0.0904  0.1562  0.3600
 9111SOL    HW127927   1.651   0.700   6.400 -0.5185  0.1000 -1.0087
 9111SOL    HW227928   1.773   0.624   6.446 -0.6252  1.1684  1.1295
 9112SOL     OW27929   1.848   4.385   2.260  0.1428  0.4307 -0.0550
 9112SOL    HW127930   1.924   4.330   2.244 -0.6399 -1.0585  1.2155
 9112SOL    HW227931   1.825   4.420   2.174  1.4352 -0.1950 -0.6588
 9113SOL     OW27932   3.832   5.872   1.352  0.4599 -0.0503 -0.2619
 9113SOL    HW127933   3.827   5.795   1.409  2.0534  0.5544  0.7059
 9113SOL    HW227934   3.752   5.921   1.371 -0.0588 -0.9181 -0.1332
 9114SOL     OW27935   0.216   6.833   4.984 -0.3405  0.1147 -0.1516
 9114SOL    HW127936   0.311   6.846   4.978 -0.0744 -0.6657  1.9211
 9114SOL    HW227937   0.179   6.909   4.938  1.2729  1.8125  1.2483
 9115SOL     OW27938   4.110   1.520   3.252 -0.0429  0.1002  0.1150
 9115SOL    HW127939   4.188   1.479   3.288 -1.1699 -1.7700  0.5056
 9115SOL    HW227940   4.037   1.468   3.287 -1.3551  0.5767 -1.8345
 9116SOL     OW27941   5.716   2.867   5.177 -0.7334  0.3847 -0.0346
 9116SOL    HW127942   5.662   2.789   5.189 -0.6921  0.1803 -1.1260
 9116SOL    HW227943   5.759   2.880   5.262  0.1567 -1.4482 -0.1857
 9117SOL     OW27944   1.143   5.475   1.175 -0.7207  0.3501  0.5290
 9117SOL    HW127945   1.095   5.557   1.186  0.7437  1.1855  0.7469
 9117SOL    HW227946   1.217   5.482   1.235  0.6847 -0.1806 -1.1160
 9118SOL     OW27947   6.942   5.966   6.909 -0.1598  0.3236 -0.1269
 9118SOL    HW127948   7.009   5.903   6.936  0.2811  1.2180  0.9097
 9118SOL    HW227949   6.988   6.026   6.850 -0.1585  0.6700  0.2258
 9119SOL     OW27950   1.402   5.200   2.533  0.2624  0.0388  0.6697
 9119SOL    HW127951   1.347   5.278   2.540  0.3563 -0.0336  2.5135
 9119SOL    HW227952   1.476   5.227   2.478  0.0975  1.1345  0.9786
 9120SOL     OW27953   7.059   1.902   1.287  0.0932  0.0012  0.2914
 9120SOL    HW127954   6.987   1.927   1.229  1.5745  1.0681 -1.1514
 9120SOL    HW227955   7.138   1.925   1.237  1.4285 -1.6684  1.6005
 9121SOL     OW27956   5.113   6.457   4.060 -0.2946 -0.5829 -0.4573
 9121SOL    HW127957   5.157   6.542   4.058 -2.6682  0.7390  1.1176
 9121SOL    HW227958   5.056   6.458   3.983 -2.2300  0.3576  0.9521
 9122SOL     OW27959   7.130   6.491   7.062  0.0807 -0.1401  0.0656
 9122SOL    HW127960   7.084   6.497   7.146 -0.8908  2.5447 -0.5977
 9122SOL    HW227961   7.064   6.456   7.002 -0.4637  1.6434 -0.4066
 9123SOL     OW27962   4.624   6.010   3.998 -0.0609 -0.0740  0.3344
 9123SOL    HW127963   4.568   6.086   4.012  1.1276  1.1651 -1.4253
 9123SOL    HW227964   4.570   5.949   3.947 -0.4507  0.3324  0.2587
 9124SOL     OW27965   4.078   7.034   0.676  0.1540  0.2361  0.6775
 9124SOL    HW127966   4.069   6.951   0.724  1.2848  0.1199  0.7014
 9124SOL    HW227967   4.149   7.018   0.613  0.0656  1.0402  0.3664
 9125SOL     OW27968   1.376   7.071   0.833 -0.5259  1.0539 -0.5422
 9125SOL    HW127969   1.444   7.136   0.820 -1.4670  2.5261  1.6909
 9125SOL    HW227970   1.311   7.114   0.889 -1.3049 -1.6849  0.7520
 9126SOL     OW27971   3.972   4.987   3.483 -0.3591 -0.1166  0.2696
 9126SOL    HW127972   4.061   5.020   3.473 -0.3952 -0.1846 -0.3073
 9126SOL    HW227973   3.941   4.974   3.393 -1.0239  0.0999  0.4664
 9127SOL     OW27974   2.121   4.861   5.257  0.1098  0.1015 -0.3244
 9127SOL    HW127975   2.169   4.941   5.235 -0.7877  0.7664  0.1409
 9127SOL    HW227976   2.038   4.891   5.293  0.3258 -1.0105  1.1679
 9128SOL     OW27977   1.793   7.059   4.178 -0.1076 -0.4326  0.4665
 9128SOL    HW127978   1.727   7.122   4.148 -1.1978 -1.9088 -0.3212
 9128SOL    HW227979   1.743   6.994   4.227  1.0280 -0.5992  1.4079
 9129SOL     OW27980   3.318   5.211   6.706  0.2857 -0.9297  0.3019
 9129SOL    HW127981   3.385   5.146   6.727 -1.1392 -2.2447  0.8686
 9129SOL    HW227982   3.241   5.159   6.681 -0.8273  0.5386  0.6383
 9130SOL     OW27983   5.694   5.998   3.982 -0.0857  0.2318  0.0491
 9130SOL    HW127984   5.630   6.031   4.046 -0.3150 -0.3955  0.1461
 9130SOL    HW227985   5.751   6.073   3.965 -0.0121  0.4010  1.0021
 9131SOL     OW27986   1.877   3.960   4.626 -0.3829  0.8266  0.3173
 9131SOL    HW127987   1.821   4.034   4.648 -1.0159  0.4615 -0.0306
 9131SOL    HW227988   1.963   3.999   4.608 -0.3286  1.3138  1.5769
 9132SOL     OW27989   1.896   5.448   5.513  0.6257  0.1543 -0.0674
 9132SOL    HW127990   1.875   5.357   5.534  1.0042  0.2694  0.8270
 9132SOL    HW227991   1.975   5.467   5.564 -0.7500  1.7076  1.5346
 9133SOL     OW27992   5.689   1.373   2.818 -0.0300 -0.4652  0.4035
 9133SOL    HW127993   5.679   1.285   2.781  1.0166 -0.7887  0.8753
 9133SOL    HW227994   5.695   1.431   2.742  0.3545 -0.9202  0.0898
 9134SOL     OW27995   6.836   5.394   1.362  0.6696 -0.5589  0.2863
 9134SOL    HW127996   6.862   5.485   1.377  0.8675 -0.4087 -0.8519
 9134SOL    HW227997   6.746   5.401   1.329  0.4814 -0.8188  0.7442
 9135SOL     OW27998   2.838   2.375   1.683  0.2026 -0.1403  0.0269
 9135SOL    HW127999   2.858   2.318   1.608  2.7347  2.7837 -1.6227
 9135SOL    HW228000   2.923   2.395   1.721 -0.6487  2.3761  0.6610
 9136SOL     OW28001   3.537   3.459   6.026  0.0421  0.5818  0.3754
 9136SOL    HW128002   3.488   3.397   5.971  1.4774  0.9151 -1.3381
 9136SOL    HW228003   3.530   3.423   6.114  0.1041 -1.5677 -0.4470
 9137SOL     OW28004   2.427   5.720   3.285 -0.2329 -0.0698 -0.2900
 9137SOL    HW128005   2.425   5.664   3.208 -3.5596 -0.3894 -0.0430
 9137SOL    HW228006   2.495   5.682   3.341 -0.8142 -2.4457 -1.1426
 9138SOL     OW28007   5.185   3.565   6.201 -0.3871 -0.0402 -0.2565
 9138SOL    HW128008   5.166   3.472   6.207  2.7277 -0.7360 -0.1495
 9138SOL    HW228009   5.280   3.570   6.208 -0.4062  3.0555 -1.5677
 9139SOL     OW28010   5.380   3.945   7.034  0.2386  0.0119  0.2169
 9139SOL    HW128011   5.433   3.903   7.102  1.9535  1.0814 -0.4328
 9139SOL    HW228012   5.409   3.904   6.952  0.1459  0.6992 -0.1656
 9140SOL     OW28013   3.227   0.482   2.674 -0.3354  0.1462  0.0231
 9140SOL    HW128014   3.226   0.539   2.597 -1.0819 -0.5541 -0.4963
 9140SOL    HW228015   3.135   0.465   2.693 -0.1315 -0.5558  0.4189
 9141SOL     OW28016   5.222   5.460   3.136 -0.0598  0.3173 -0.3146
 9141SOL    HW128017   5.138   5.422   3.111  0.1433  0.7028 -1.6470
 9141SOL    HW228018   5.270   5.388   3.177 -0.4453 -0.3247 -0.9793
 9142SOL     OW28019   3.975   3.505   0.965 -0.1860 -0.0170  0.1411
 9142SOL    HW128020   3.942   3.573   1.023  0.0621  0.4073 -0.2140
 9142SOL    HW228021   3.968   3.424   1.017  0.0174  0.3533  0.7537
 9143SOL     OW28022   6.718   1.735   3.624  0.2398 -0.2644  0.6778
 9143SOL    HW128023   6.622   1.734   3.635 -0.1178 -1.1435 -2.2856
 9143SOL    HW228024   6.751   1.738   3.714 -2.5720  1.3960  1.7476
 9144SOL     OW28025   5.146   6.430   4.489 -0.1916 -0.9516 -0.0330
 9144SOL    HW128026   5.079   6.434   4.421  0.6875 -0.0889 -0.8561
 9144SOL    HW228027   5.202   6.357   4.462  1.5079  0.8584 -1.5120
 9145SOL     OW28028   6.871   7.213   1.953 -0.6755  0.0828 -0.3618
 9145SOL    HW128029   6.950   7.261   1.929 -0.0102 -1.1772 -0.7505
 9145SOL    HW228030   6.884   7.126   1.916 -1.3431 -0.7538  1.2934
 9146SOL     OW28031   7.026   4.116   6.575 -0.7369 -0.1537  0.0810
 9146SOL    HW128032   7.036   4.022   6.561  1.1394 -0.2455  1.7416
 9146SOL    HW228033   7.092   4.157   6.519 -0.9582  0.1147  0.0134
 9147SOL     OW28034   4.046   0.238   3.163 -0.0437 -0.8459  0.3153
 9147SOL    HW128035   3.977   0.176   3.185  0.2764 -1.2582  0.1590
 9147SOL    HW228036   4.100   0.192   3.098  1.0823 -0.9897  1.3321
 9148SOL     OW28037   5.663   1.720   2.330  0.3447 -0.3163 -0.0055
 9148SOL    HW128038   5.641   1.813   2.331  0.5567 -0.2498 -0.9387
 9148SOL    HW228039   5.579   1.675   2.333  0.1706 -0.0793 -1.3476
 9149SOL     OW28040   3.823   1.589   3.464 -0.0710  0.0585  0.1034
 9149SOL    HW128041   3.903   1.550   3.500 -0.3532 -0.8264 -0.2146
 9149SOL    HW228042   3.812   1.671   3.512 -0.2454 -0.9381  1.8067
 9150SOL     OW28043   4.284   6.365   1.789 -0.2606  0.2652  0.2743
 9150SOL    HW128044   4.362   6.330   1.746  1.4153  1.4121  2.2941
 9150SOL    HW228045   4.217   6.298   1.776  1.0062 -0.6787 -1.6012
 9151SOL     OW28046   2.854   3.773   5.063 -0.3315 -0.0993  0.0283
 9151SOL    HW128047   2.760   3.791   5.068 -0.2316  0.6336 -0.5801
 9151SOL    HW228048   2.859   3.685   5.027 -0.7804  0.4795 -1.5056
 9152SOL     OW28049   4.667   0.792   5.600 -0.0433  0.2560 -0.3095
 9152SOL    HW128050   4.606   0.737   5.649 -0.3100  1.4168  0.6883
 9152SOL    HW228051   4.676   0.748   5.516  1.4709 -2.4892  1.2122
 9153SOL     OW28052   2.989   0.305   4.741  0.5057  0.1805 -0.2369
 9153SOL    HW128053   2.989   0.377   4.803  0.6422 -1.9480  2.3510
 9153SOL    HW228054   3.079   0.272   4.742  0.3382 -0.3203 -1.0359
 9154SOL     OW28055   4.224   0.992   2.215  0.5578 -0.0283 -0.2357
 9154SOL    HW128056   4.248   1.018   2.126 -2.7206 -0.5185 -1.3044
 9154SOL    HW228057   4.214   1.074   2.262  1.6866  0.2449 -0.4441
 9155SOL     OW28058   3.793   2.241   2.691 -0.1837  0.3763  0.3210
 9155SOL    HW128059   3.843   2.295   2.630 -1.7459 -0.2212 -1.5563
 9155SOL    HW228060   3.821   2.270   2.778  2.9667  0.4116 -0.6654
 9156SOL     OW28061   7.005   2.475   4.742 -0.4053  0.1179  0.2113
 9156SOL    HW128062   7.063   2.482   4.666  0.0989 -1.9956  0.3883
 9156SOL    HW228063   6.950   2.399   4.725  1.2729 -1.8243  2.9661
 9157SOL     OW28064   6.053   5.337   7.251 -0.1001  0.2293 -0.5680
 9157SOL    HW128065   6.141   5.312   7.223 -0.8471 -1.1488 -1.7846
 9157SOL    HW228066   6.010   5.366   7.170 -0.7704  0.8474  0.0066
 9158SOL     OW28067   5.479   0.562   5.833  0.0162  0.2873 -0.0827
 9158SOL    HW128068   5.453   0.512   5.756 -2.3752 -0.1084  0.9512
 9158SOL    HW228069   5.460   0.653   5.810 -2.8640 -0.0365  0.8312
 9159SOL     OW28070   4.516   1.153   3.186  0.3468  0.3780  0.3585
 9159SOL    HW128071   4.479   1.130   3.271  1.1570 -1.4629  0.2499
 9159SOL    HW228072   4.609   1.168   3.204  0.3649  0.7663 -0.0604
 9160SOL     OW28073   4.423   3.198   4.407  0.0182  0.2039  0.0050
 9160SOL    HW128074   4.454   3.109   4.394  0.0794 -0.0727  1.8283
 9160SOL    HW228075   4.424   3.210   4.502 -3.4361  0.9466 -0.0068
 9161SOL     OW28076   5.168   7.017   2.868  0.4501  0.0082 -0.1458
 9161SOL    HW128077   5.162   6.941   2.810  0.7583 -1.4400  1.6662
 9161SOL    HW228078   5.255   7.010   2.908 -0.3564  0.0725  1.6669
 9162SOL     OW28079   0.701   3.681   2.107 -0.4974  0.6258  0.4277
 9162SOL    HW128080   0.730   3.636   2.187 -3.1164 -0.6756  0.6817
 9162SOL    HW228081   0.651   3.615   2.059 -0.5665  1.9672 -1.3916
 9163SOL     OW28082   2.794   1.985   2.048  0.2673 -0.2392 -0.0655
 9163SOL    HW128083   2.829   2.056   1.994 -0.2726 -0.6764 -1.0183
 9163SOL    HW228084   2.702   1.978   2.021  0.1144 -0.7711  0.5841
 9164SOL     OW28085   6.682   6.994   3.035  0.5597  0.5390 -0.4704
 9164SOL    HW128086   6.650   7.075   2.996 -0.2347  0.7498  0.5905
 9164SOL    HW228087   6.770   7.014   3.066  0.4834  0.9073 -0.4970
 9165SOL     OW28088   5.229   5.576   0.062 -0.5980  0.2113 -0.3872
 9165SOL    HW128089   5.251   5.569   0.155  0.1720 -3.2585 -0.7750
 9165SOL    HW228090   5.301   5.627   0.024  1.2891 -1.9423  0.2145
 9166SOL     OW28091   1.924   1.747   4.379  0.1833 -0.1930 -0.0977
 9166SOL    HW128092   1.943   1.831   4.421 -0.2529 -1.1424  2.0564
 9166SOL    HW228093   1.834   1.728   4.404  0.7886 -2.0430  0.7535
 9167SOL     OW28094   0.711   2.281   4.559  0.6362  0.0714  0.2053
 9167SOL    HW128095   0.650   2.213   4.587  0.1591  0.9531  1.3378
 9167SOL    HW228096   0.720   2.267   4.465  0.2721 -1.3351  0.3604
 9168SOL     OW28097   1.569   2.458   4.347 -1.1004 -0.2878 -0.2016
 9168SOL    HW128098   1.547   2.367   4.328  0.8232 -0.3685 -2.2300
 9168SOL    HW228099   1.624   2.453   4.426 -2.8814 -0.6492  1.0440
 9169SOL     OW28100   1.336   3.179   6.730 -0.3549  0.2591  0.1164
 9169SOL    HW128101   1.335   3.224   6.646 -1.0137  0.9349  0.4843
 9169SOL    HW228102   1.272   3.109   6.721 -0.2569  0.1887 -0.0262
 9170SOL     OW28103   6.560   0.993   2.571  0.5682 -0.2690  0.3804
 9170SOL    HW128104   6.557   0.918   2.630 -1.6480 -1.2036 -0.8478
 9170SOL    HW228105   6.468   1.019   2.561  0.9129  0.0646 -2.3541
 9171SOL     OW28106   0.919   3.824   2.764 -0.1779  0.6391 -0.0073
 9171SOL    HW128107   0.879   3.889   2.706 -0.5031  0.3479 -0.1078
 9171SOL    HW228108   0.846   3.780   2.806 -0.0644 -1.2475 -1.6636
 9172SOL     OW28109   1.355   4.075   6.580 -0.6454 -0.5703  0.1435
 9172SOL    HW128110   1.439   4.120   6.568 -0.7243 -0.2848  0.6344
 9172SOL    HW228111   1.294   4.145   6.604 -0.7733 -0.9383  0.8941
 9173SOL     OW28112   7.224   0.401   0.454  0.4011  0.4335  0.5055
 9173SOL    HW128113   7.291   0.342   0.419 -0.8184 -0.1860 -0.8306
 9173SOL    HW228114   7.255   0.423   0.542  1.3790 -1.3774  0.6272
 9174SOL     OW28115   6.727   5.125   2.019  0.3132  0.5594 -0.0444
 9174SOL    HW128116   6.680   5.204   1.992 -1.0600 -0.4076 -0.5662
 9174SOL    HW228117   6.705   5.060   1.952  1.4939 -0.2371  0.3279
 9175SOL     OW28118   0.142   0.221   6.078 -0.0721 -0.6710  0.4243
 9175SOL    HW128119   0.213   0.273   6.039 -1.2061  1.8859  1.6645
 9175SOL    HW228120   0.185   0.169   6.146  0.8749 -0.4419  0.0074
 9176SOL     OW28121   6.181   6.498   1.840  0.4766  0.4906 -0.1757
 9176SOL    HW128122   6.191   6.441   1.764  1.8211 -0.8416  0.9782
 9176SOL    HW228123   6.164   6.585   1.803 -0.4240 -0.4264 -1.9597
 9177SOL     OW28124   6.021   6.250   5.730 -0.3281 -0.5751  0.0375
 9177SOL    HW128125   5.988   6.160   5.726  0.5250 -0.8787 -0.0978
 9177SOL    HW228126   5.945   6.303   5.706 -0.9133 -1.2358  0.3847
 9178SOL     OW28127   1.414   2.991   7.243 -0.6083  0.0220  0.6274
 9178SOL    HW128128   1.394   2.945   7.162 -0.0183  0.8770 -0.0176
 9178SOL    HW228129   1.476   3.060   7.217  0.5069 -0.4393  1.9980
 9179SOL     OW28130   3.855   5.793   5.808 -0.3010 -0.2863 -0.6427
 9179SOL    HW128131   3.891   5.878   5.833 -0.7096 -0.3100  0.0058
 9179SOL    HW228132   3.812   5.809   5.724  1.2362 -0.2571 -1.4558
 9180SOL     OW28133   7.224   0.266   5.871 -0.4144  0.0452  0.1231
 9180SOL    HW128134   7.177   0.191   5.908  0.5300 -0.0622  1.1316
 9180SOL    HW228135   7.315   0.252   5.897  0.3809 -0.3392 -2.7388
 9181SOL     OW28136   0.565   6.104   0.130  0.3069 -0.1035 -0.3569
 9181SOL    HW128137   0.534   6.034   0.188  0.8444 -0.6781 -0.7494
 9181SOL    HW228138   0.660   6.101   0.138  0.4073 -0.4381 -1.5499
 9182SOL     OW28139   4.045   3.526   7.187 -0.4854  0.3300 -0.4330
 9182SOL    HW128140   4.070   3.517   7.279  0.2196 -0.9158 -0.7353
 9182SOL    HW228141   3.988   3.451   7.171 -5.1792  3.5047  0.4623
 9183SOL     OW28142   5.977   6.442   3.140  0.5281  0.0133 -0.1882
 9183SOL    HW128143   5.918   6.511   3.107 -1.3432 -1.4716 -0.0424
 9183SOL    HW228144   5.968   6.371   3.077  1.8932 -0.3828  0.0555
 9184SOL     OW28145   3.656   3.038   1.641  0.2249  0.2099  0.2173
 9184SOL    HW128146   3.730   2.994   1.683 -0.1810 -0.6942 -0.0062
 9184SOL    HW228147   3.607   3.076   1.713  0.5258  0.2104  0.4228
 9185SOL     OW28148   0.381   2.913   0.856  0.3998 -0.1351  0.1289
 9185SOL    HW128149   0.337   2.977   0.800  1.0119 -1.2720 -1.6876
 9185SOL    HW228150   0.450   2.963   0.899 -0.1955  0.7930  0.0349
 9186SOL     OW28151   4.151   3.786   5.393  0.1186  0.1216  0.7116
 9186SOL    HW128152   4.213   3.749   5.330  0.3886  1.7045  0.0386
 9186SOL    HW228153   4.090   3.714   5.412  0.1316 -0.4201 -1.2280
 9187SOL     OW28154   0.648   1.867   1.367  0.2338 -0.1810 -0.5625
 9187SOL    HW128155   0.564   1.897   1.403  0.7099  0.5042 -0.0053
 9187SOL    HW228156   0.673   1.793   1.421  1.3838  1.3963  1.1327
 9188SOL     OW28157   1.424   5.962   2.434  0.2460  0.0986 -0.4067
 9188SOL    HW128158   1.487   5.922   2.374  1.5764  1.1551  0.2457
 9188SOL    HW228159   1.477   5.992   2.508 -1.0199  1.0354  0.1450
 9189SOL     OW28160   0.280   5.059   6.142  0.1488  0.0442  0.4884
 9189SOL    HW128161   0.303   5.131   6.200 -0.3275 -0.6279  1.5315
 9189SOL    HW228162   0.313   5.086   6.056  0.4020  1.2769  0.9599
 9190SOL     OW28163   7.090   2.431   3.423 -0.5106  0.1000 -0.1441
 9190SOL    HW128164   7.034   2.353   3.420 -0.5200  0.1044 -0.0691
 9190SOL    HW228165   7.162   2.410   3.364 -1.1620  0.5323 -1.1058
 9191SOL     OW28166   5.112   3.769   4.119 -0.7203  0.5350  0.2606
 9191SOL    HW128167   5.121   3.743   4.210  0.3523 -0.5761 -0.1359
 9191SOL    HW228168   5.079   3.859   4.122 -0.0471  0.7487  1.7493
 9192SOL     OW28169   4.871   3.186   4.385 -0.6128 -0.1644  0.5231
 9192SOL    HW128170   4.807   3.125   4.422  0.8038 -0.7687  2.0507
 9192SOL    HW228171   4.901   3.238   4.460  0.4882  0.2911 -0.2153
 9193SOL     OW28172   0.958   1.208   6.754 -0.0411  0.1910 -0.1819
 9193SOL    HW128173   1.004   1.162   6.824  0.0813 -1.5908 -1.3828
 9193SOL    HW228174   0.866   1.202   6.779  0.0445  0.0444  0.1055
 9194SOL     OW28175   5.588   3.259   6.750  0.8604 -0.2284 -0.2926
 9194SOL    HW128176   5.498   3.290   6.762  1.4953  1.3304  0.4904
 9194SOL    HW228177   5.618   3.239   6.839  0.9537 -1.7581 -0.6489
 9195SOL     OW28178   3.178   5.290   4.399  0.2347  0.1559 -0.3322
 9195SOL    HW128179   3.211   5.362   4.346 -0.3226  1.5612  1.1670
 9195SOL    HW228180   3.096   5.265   4.357 -0.7411  1.9633  0.3905
 9196SOL     OW28181   0.549   0.608   4.513 -0.2582  0.2812 -0.5605
 9196SOL    HW128182   0.491   0.548   4.560  1.2650 -0.8934 -0.1684
 9196SOL    HW228183   0.576   0.560   4.435 -1.9940  1.8698 -2.2018
 9197SOL     OW28184   4.470   3.803   2.087  0.1907 -0.7752  0.1284
 9197SOL    HW128185   4.471   3.740   2.160  1.2118  0.6807  1.3930
 9197SOL    HW228186   4.379   3.832   2.083  0.0621 -1.0926  0.6235
 9198SOL     OW28187   1.454   6.892   3.745  0.2279 -0.2947 -0.6295
 9198SOL    HW128188   1.544   6.859   3.743 -0.1355 -1.2314 -2.0761
 9198SOL    HW228189   1.399   6.814   3.742 -0.6384  0.2493  0.8336
 9199SOL     OW28190   5.590   2.339   1.094 -0.1714  0.0889  0.0788
 9199SOL    HW128191   5.517   2.364   1.150  0.9497  0.4718  1.3933
 9199SOL    HW228192   5.565   2.254   1.058 -1.6155  0.5895 -0.1231
 9200SOL     OW28193   6.242   4.878   5.384  0.0538 -0.0628  0.2286
 9200SOL    HW128194   6.218   4.843   5.469 -1.8269  0.2964 -0.1413
 9200SOL    HW228195   6.189   4.957   5.375  0.9696  0.4425 -0.8617
 9201SOL     OW28196   1.242   6.046   4.060 -0.1791 -0.0276 -0.2009
 9201SOL    HW128197   1.318   6.044   4.118 -0.3565  2.0016  0.1407
 9201SOL    HW228198   1.177   5.992   4.104 -0.8402  2.6704  2.3327
 9202SOL     OW28199   3.352   3.359   5.767 -0.3657  0.0414 -0.0866
 9202SOL    HW128200   3.437   3.358   5.723  0.6272  2.3759  1.6935
 9202SOL    HW228201   3.297   3.415   5.713  0.4644  1.8514  0.9250
 9203SOL     OW28202   6.768   5.445   2.197  0.0391  0.2433  0.5056
 9203SOL    HW128203   6.682   5.485   2.208 -0.2067 -0.4852  1.2620
 9203SOL    HW228204   6.776   5.431   2.103 -0.8543 -0.1005  0.4816
 9204SOL     OW28205   2.525   5.942   0.501  0.5946  0.2041  0.3178
 9204SOL    HW128206   2.534   6.037   0.492  2.4481 -0.1300 -1.9603
 9204SOL    HW228207   2.431   5.927   0.506  0.0995  1.9310 -2.6800
 9205SOL     OW28208   0.429   0.090   4.742  0.6012  0.2193 -0.0132
 9205SOL    HW128209   0.460   0.168   4.787 -1.0124  0.8547  0.0292
 9205SOL    HW228210   0.488   0.021   4.771  1.6484  1.2840  0.4532
 9206SOL     OW28211   3.900   4.321   2.854  0.5483  0.2976 -0.0758
 9206SOL    HW128212   3.868   4.410   2.866 -0.1555 -0.0059  0.3070
 9206SOL    HW228213   3.995   4.328   2.866  0.5691  1.1131 -0.7486
 9207SOL     OW28214   7.102   6.458   4.395 -0.0726 -0.1148 -0.1964
 9207SOL    HW128215   7.043   6.418   4.459  0.0804  0.2521  0.1756
 9207SOL    HW228216   7.140   6.533   4.441  0.7602 -0.4085 -0.3970
 9208SOL     OW28217   0.334   1.419   5.743 -0.3881 -0.4577 -0.0129
 9208SOL    HW128218   0.259   1.433   5.685 -1.2176 -0.9243  0.9362
 9208SOL    HW228219   0.358   1.506   5.774  0.7558 -0.0590 -1.8765
 9209SOL     OW28220   3.956   4.720   0.951 -0.1708  0.3507  0.8506
 9209SOL    HW128221   4.004   4.657   1.005 -0.6424 -1.6156 -0.9267
 9209SOL    HW228222   3.876   4.673   0.926 -1.7336  2.5885  1.5391
 9210SOL     OW28223   6.680   1.549   4.392 -0.0685  0.0077 -0.2111
 9210SOL    HW128224   6.635   1.481   4.443  0.5517  0.5648  1.0956
 9210SOL    HW228225   6.771   1.519   4.388  0.1762  0.6738  0.2447
 9211SOL     OW28226   5.957   6.887   4.796 -0.0675 -0.2467 -0.0692
 9211SOL    HW128227   6.042   6.927   4.777 -0.3429  0.8883  1.0574
 9211SOL    HW228228   5.977   6.793   4.804  0.9333 -0.0944 -0.6374
 9212SOL     OW28229   5.044   0.404   6.248 -0.0502  0.1563 -0.1010
 9212SOL    HW128230   5.039   0.446   6.163 -0.1061 -0.6567 -0.5016
 9212SOL    HW228231   4.961   0.426   6.291  0.2316  1.0610 -0.0177
 9213SOL     OW28232   3.497   3.187   4.778  0.4320  0.3130 -0.0710
 9213SOL    HW128233   3.456   3.222   4.699  0.9097  2.3122  0.5343
 9213SOL    HW228234   3.435   3.208   4.848  1.0225  0.5215  0.3887
 9214SOL     OW28235   4.036   0.799   2.963 -0.3747 -0.0953  0.1453
 9214SOL    HW128236   4.030   0.797   2.867 -0.8918 -0.7304  0.1919
 9214SOL    HW228237   4.029   0.892   2.985  2.3693  0.3480 -0.6029
 9215SOL     OW28238   5.409   4.240   5.543 -0.0225 -0.2950 -0.8170
 9215SOL    HW128239   5.472   4.269   5.477  0.7030 -0.1939 -0.0881
 9215SOL    HW228240   5.380   4.321   5.585  0.4483 -0.4501 -0.1827
 9216SOL     OW28241   1.998   2.183   5.965  0.0163 -0.1579 -0.9919
 9216SOL    HW128242   1.938   2.248   5.929 -0.2150 -0.7749 -1.7346
 9216SOL    HW228243   1.957   2.156   6.048 -0.4871 -0.2156 -1.2577
 9217SOL     OW28244   4.334   3.673   5.242 -0.0208  0.3408 -0.2292
 9217SOL    HW128245   4.372   3.598   5.198  2.3326  1.1304  0.4014
 9217SOL    HW228246   4.400   3.700   5.306 -1.6667  1.7071  0.9599
 9218SOL     OW28247   0.832   6.771   2.339 -0.7454 -0.7100 -0.4124
 9218SOL    HW128248   0.801   6.726   2.261  1.3456 -0.2240 -1.5563
 9218SOL    HW228249   0.901   6.714   2.374 -1.7994 -1.0314  1.2230
 9219SOL     OW28250   3.745   5.023   4.299 -0.2263  0.6109  0.1811
 9219SOL    HW128251   3.797   5.088   4.346 -0.2066 -0.8702  2.2864
 9219SOL    HW228252   3.806   4.987   4.234  1.1764 -0.5635  2.1098
 9220SOL     OW28253   6.470   3.663   4.693  0.2588  0.5230 -0.1194
 9220SOL    HW128254   6.400   3.672   4.759  0.5643 -0.2418  0.3225
 9220SOL    HW228255   6.435   3.600   4.630 -0.4035  1.9455 -1.2062
 9221SOL     OW28256   4.234   0.713   2.724 -0.1843 -0.0579  0.0938
 9221SOL    HW128257   4.316   0.664   2.717  0.1394  0.1856  1.8431
 9221SOL    HW228258   4.261   0.805   2.723 -0.7167  0.0890 -2.3506
 9222SOL     OW28259   3.730   6.888   2.196  0.2112 -0.5144 -0.0978
 9222SOL    HW128260   3.726   6.835   2.276 -0.1904 -0.0786  0.1750
 9222SOL    HW228261   3.819   6.874   2.163  0.2746 -0.9546  0.2456
 9223SOL     OW28262   0.227   4.813   2.357  0.3508 -0.1709 -0.1925
 9223SOL    HW128263   0.314   4.780   2.337  0.1443 -1.4809  0.9464
 9223SOL    HW228264   0.242   4.896   2.402  0.9241  0.6643 -1.8897
 9224SOL     OW28265   0.235   6.394   2.499  0.1199  0.0507 -0.5491
 9224SOL    HW128266   0.230   6.404   2.594  0.6881  0.7685 -0.5924
 9224SOL    HW228267   0.144   6.391   2.470 -0.0736 -1.5004  0.1495
 9225SOL     OW28268   5.275   6.586   1.703 -0.2260  0.0628 -0.1427
 9225SOL    HW128269   5.219   6.562   1.630  1.0085 -1.3832 -0.6409
 9225SOL    HW228270   5.362   6.556   1.677  0.2803 -0.1846  1.7896
 9226SOL     OW28271   4.793   3.932   4.661 -0.4146 -0.0606  0.2144
 9226SOL    HW128272   4.837   3.928   4.745 -0.7442  0.6194  0.4276
 9226SOL    HW228273   4.714   3.878   4.672 -0.2465 -0.3115  0.2041
 9227SOL     OW28274   4.281   6.246   3.762 -0.2405  0.3473 -0.1386
 9227SOL    HW128275   4.311   6.283   3.679 -1.4231  1.4201 -0.1068
 9227SOL    HW228276   4.270   6.153   3.745 -3.8654  1.0919 -2.2168
 9228SOL     OW28277   4.546   6.176   1.172 -0.6155  0.2619  0.4948
 9228SOL    HW128278   4.604   6.103   1.151 -1.1912 -0.0371 -0.0655
 9228SOL    HW228279   4.460   6.148   1.141 -1.0085  0.8131  1.0851
 9229SOL     OW28280   6.435   5.816   1.298 -0.5807  0.4320 -0.7261
 9229SOL    HW128281   6.507   5.865   1.259  0.5595 -1.0241 -0.5136
 9229SOL    HW228282   6.364   5.822   1.234 -0.2829  1.8853 -0.9371
 9230SOL     OW28283   3.684   2.192   0.386 -0.0691 -0.0862  0.1177
 9230SOL    HW128284   3.748   2.257   0.416 -1.5110  0.6664  1.6676
 9230SOL    HW228285   3.718   2.108   0.416  0.7455  0.1914 -0.0351
 9231SOL     OW28286   5.125   6.723   3.585  0.2148 -0.6109  0.2528
 9231SOL    HW128287   5.120   6.792   3.519 -0.6965 -1.0369 -0.1291
 9231SOL    HW228288   5.218   6.702   3.590  0.5174  0.7900  0.5252
 9232SOL     OW28289   3.194   0.293   5.502  0.4256 -0.0636 -0.0394
 9232SOL    HW128290   3.146   0.369   5.470 -0.4971 -0.8534 -0.5505
 9232SOL    HW228291   3.217   0.245   5.422  0.8649 -0.4032  0.2915
 9233SOL     OW28292   6.833   0.167   2.788 -0.4515 -0.1413  0.0506
 9233SOL    HW128293   6.782   0.247   2.785  0.2513  0.2969 -0.3451
 9233SOL    HW228294   6.887   0.170   2.709 -0.0040 -0.7233  0.3278
 9234SOL     OW28295   6.505   3.559   5.058 -0.2805  0.1072  0.0998
 9234SOL    HW128296   6.533   3.504   5.132 -0.3798 -1.1511 -0.7832
 9234SOL    HW228297   6.573   3.626   5.051  0.2126 -0.3193  0.7358
 9235SOL     OW28298   5.061   5.974   6.675 -0.2212 -0.9978  0.6427
 9235SOL    HW128299   5.118   5.927   6.614  0.0367 -2.4175  1.9202
 9235SOL    HW228300   5.119   6.031   6.725 -0.4711  0.3677 -0.6044
 9236SOL     OW28301   5.892   3.545   2.896 -0.6164  0.0094 -0.0324
 9236SOL    HW128302   5.976   3.546   2.943 -1.5051  0.4524  1.5824
 9236SOL    HW228303   5.841   3.477   2.939 -1.1370 -0.1710 -0.9257
 9237SOL     OW28304   1.700   1.855   0.216  0.0342 -0.5995 -0.2306
 9237SOL    HW128305   1.748   1.822   0.292  0.2815 -0.6329 -0.4030
 9237SOL    HW228306   1.750   1.931   0.187 -0.3005 -0.3237 -0.0934
 9238SOL     OW28307   5.255   4.894   0.394  0.2398 -0.4988  0.1381
 9238SOL    HW128308   5.322   4.825   0.400  1.2287  0.3312 -1.1332
 9238SOL    HW228309   5.301   4.975   0.415 -0.6229 -0.0542  0.3412
 9239SOL     OW28310   6.569   2.714   1.342  0.6407 -0.1751 -0.0056
 9239SOL    HW128311   6.535   2.797   1.377 -0.1678 -1.0944  1.4141
 9239SOL    HW228312   6.657   2.708   1.379  0.4820 -0.2344  0.3656
 9240SOL     OW28313   0.807   2.848   2.027 -0.1093  0.0031 -0.2549
 9240SOL    HW128314   0.771   2.761   2.009 -0.5644  0.0635  0.3353
 9240SOL    HW228315   0.784   2.865   2.119 -1.5769  1.4970 -0.8727
 9241SOL     OW28316   2.284   3.302   4.421  0.1442 -0.1279 -0.2064
 9241SOL    HW128317   2.211   3.346   4.464 -0.5034 -1.7196  0.3715
 9241SOL    HW228318   2.249   3.276   4.335  0.8885  1.5001 -1.0146
 9242SOL     OW28319   4.413   0.956   6.356  0.4810  0.0700 -0.1578
 9242SOL    HW128320   4.318   0.956   6.368  0.5649  0.2289  0.5599
 9242SOL    HW228321   4.439   0.865   6.372  0.5904  0.2769  0.9469
 9243SOL     OW28322   3.068   4.888   0.543 -0.0319  0.2758 -0.5064
 9243SOL    HW128323   3.128   4.813   0.539 -0.6908 -0.2387 -0.9951
 9243SOL    HW228324   3.106   4.946   0.609 -0.4983 -1.3514  1.2273
 9244SOL     OW28325   0.611   4.654   5.023  0.4893 -0.0842 -0.1991
 9244SOL    HW128326   0.693   4.649   5.072  0.7013  1.7371 -0.3140
 9244SOL    HW228327   0.631   4.711   4.949 -0.9927  0.7688  0.0353
 9245SOL     OW28328   2.541   2.498   0.906 -0.4837 -0.0474 -0.3531
 9245SOL    HW128329   2.532   2.552   0.984 -1.5398  2.4576 -2.1103
 9245SOL    HW228330   2.460   2.447   0.902 -0.5753  0.0710 -0.0051
 9246SOL     OW28331   2.069   5.729   6.015 -0.2876  0.5099  0.2368
 9246SOL    HW128332   2.153   5.723   5.970 -0.5854 -0.0621 -0.2352
 9246SOL    HW228333   2.008   5.761   5.949 -0.3599  1.3146  0.6846
 9247SOL     OW28334   4.500   4.959   3.890  0.0364  0.4925  0.3114
 9247SOL    HW128335   4.574   4.994   3.939  0.3322 -1.1044  1.0398
 9247SOL    HW228336   4.512   4.993   3.801  2.7033 -1.2038 -0.0577
 9248SOL     OW28337   5.685   4.283   1.704 -0.2932 -0.0277  0.0646
 9248SOL    HW128338   5.661   4.195   1.732 -0.3794 -0.0968 -0.2177
 9248SOL    HW228339   5.748   4.313   1.769 -0.4017 -0.2277  0.2629
 9249SOL     OW28340   5.355   0.596   6.248  0.3138  0.1530 -0.1434
 9249SOL    HW128341   5.317   0.525   6.196  0.7328  0.6869 -1.1993
 9249SOL    HW228342   5.297   0.670   6.233 -0.3543 -0.0790  1.2901
 9250SOL     OW28343   5.207   4.445   5.107  1.0829 -0.4395  0.0668
 9250SOL    HW128344   5.239   4.530   5.136  2.2113 -1.1386  0.9559
 9250SOL    HW228345   5.121   4.437   5.147  0.4269  0.8141 -1.0722
 9251SOL     OW28346   2.999   0.128   3.827  0.3641 -0.3741  0.0170
 9251SOL    HW128347   2.912   0.141   3.790  0.3759 -0.6136 -0.0920
 9251SOL    HW228348   3.059   0.138   3.753  0.2770 -2.6460 -0.3831
 9252SOL     OW28349   0.814   0.553   3.492  0.0887  0.7113 -0.2827
 9252SOL    HW128350   0.719   0.566   3.500  0.2325  2.0125 -0.4799
 9252SOL    HW228351   0.852   0.633   3.529  1.0211  1.6309 -3.0953
 9253SOL     OW28352   0.879   4.636   2.852  0.1214 -0.3525  0.0783
 9253SOL    HW128353   0.964   4.641   2.808  0.3203  1.1398  0.6138
 9253SOL    HW228354   0.856   4.727   2.870 -1.7311 -0.7451 -0.3051
 9254SOL     OW28355   7.057   3.781   1.252  1.0520  0.4148  0.8328
 9254SOL    HW128356   7.072   3.858   1.198 -0.2581  0.6359  0.7587
 9254SOL    HW228357   7.112   3.794   1.329  2.5938  0.3085 -0.2263
 9255SOL     OW28358   0.658   4.022   6.738  0.3364  0.2402 -0.0774
 9255SOL    HW128359   0.635   4.114   6.723 -0.4376  0.0701  0.0120
 9255SOL    HW228360   0.730   4.005   6.678  1.4425  1.3062  0.9289
 9256SOL     OW28361   1.859   4.735   6.911 -0.1214  0.0010 -0.0599
 9256SOL    HW128362   1.858   4.817   6.861 -1.8532  1.0720  1.6663
 9256SOL    HW228363   1.767   4.707   6.912  0.5111 -2.2211 -0.9838
 9257SOL     OW28364   5.694   1.993   3.408  0.3553  0.3779  0.0235
 9257SOL    HW128365   5.746   1.914   3.426  0.6899  0.1246 -1.8840
 9257SOL    HW228366   5.738   2.062   3.457  0.2269 -0.5615  1.5011
 9258SOL     OW28367   3.091   4.103   4.485  0.2725 -0.0318 -0.6785
 9258SOL    HW128368   3.066   4.120   4.575 -0.4560  2.1220 -1.2613
 9258SOL    HW228369   3.045   4.022   4.462 -0.7960  0.2584  0.3991
 9259SOL     OW28370   5.745   1.529   0.556 -0.0311 -0.5081 -0.5026
 9259SOL    HW128371   5.782   1.476   0.486 -0.0182 -1.6719  0.3696
 9259SOL    HW228372   5.798   1.509   0.633 -1.9349 -1.5910  0.5749
 9260SOL     OW28373   4.414   3.428   5.049 -0.3222 -0.3282 -0.2328
 9260SOL    HW128374   4.367   3.391   4.974 -1.9670  0.5080  0.3654
 9260SOL    HW228375   4.464   3.501   5.013 -1.5220  0.4000 -0.4196
 9261SOL     OW28376   0.719   2.797   3.252  0.2598 -0.1517 -0.3618
 9261SOL    HW128377   0.640   2.833   3.293 -1.5093 -2.0465 -1.9235
 9261SOL    HW228378   0.689   2.714   3.213  2.5954 -0.0221 -2.5746
 9262SOL     OW28379   0.661   3.695   7.195 -0.9049  0.6076 -0.0365
 9262SOL    HW128380   0.685   3.730   7.108 -0.7159  2.6677  0.8076
 9262SOL    HW228381   0.704   3.755   7.256  0.9736 -2.2397  1.5048
 9263SOL     OW28382   6.290   1.076   0.128 -0.0039  0.0297  0.6402
 9263SOL    HW128383   6.371   1.033   0.158 -0.2087 -1.0231 -0.2550
 9263SOL    HW228384   6.319   1.160   0.092  0.9617 -1.1155 -1.3632
 9264SOL     OW28385   1.342   4.385   1.143  0.1018 -0.2849  0.6800
 9264SOL    HW128386   1.436   4.371   1.138  0.3319  1.3083  0.2487
 9264SOL    HW228387   1.326   4.413   1.234  0.2062  0.4793  0.4690
 9265SOL     OW28388   6.084   7.165   5.671  0.3846  0.0745 -0.2569
 9265SOL    HW128389   6.052   7.167   5.761 -0.1442  1.2603 -0.4615
 9265SOL    HW228390   6.042   7.088   5.632  2.4396 -1.8019  1.1604
 9266SOL     OW28391   2.166   4.133   6.416  0.0101 -0.6283 -0.2041
 9266SOL    HW128392   2.078   4.127   6.453 -0.1616  0.9084 -0.3087
 9266SOL    HW228393   2.218   4.171   6.487 -0.4237  2.7939 -1.6275
 9267SOL     OW28394   5.774   0.381   0.306 -0.3060  0.0807  0.6489
 9267SOL    HW128395   5.787   0.472   0.280  2.2081 -0.4349 -0.0654
 9267SOL    HW228396   5.698   0.383   0.364  1.4221  3.0634  2.9324
 9268SOL     OW28397   0.362   6.833   2.080 -0.4628  0.4158  0.4797
 9268SOL    HW128398   0.332   6.905   2.024  0.6960  0.0911 -0.5857
 9268SOL    HW228399   0.325   6.754   2.040  0.0827  0.2160  0.3625
 9269SOL     OW28400   0.884   6.591   1.651  0.9717  0.1534 -0.1170
 9269SOL    HW128401   0.844   6.553   1.729 -0.9191 -0.2488 -1.2486
 9269SOL    HW228402   0.816   6.584   1.583  2.6847  0.1713 -1.8933
 9270SOL     OW28403   4.353   6.682   3.613  0.5043 -0.0876  0.0467
 9270SOL    HW128404   4.440   6.711   3.643  0.4153 -0.3997  0.6229
 9270SOL    HW228405   4.304   6.668   3.694 -0.8531  2.3830 -0.2993
 9271SOL     OW28406   7.115   6.590   2.074  0.1415  0.1745  0.3400
 9271SOL    HW128407   7.054   6.612   2.003  0.4240 -1.3318 -0.4042
 9271SOL    HW228408   7.101   6.496   2.090  1.7252 -0.0365  0.6569
 9272SOL     OW28409   3.299   2.069   2.345 -0.3487  0.3213  0.0137
 9272SOL    HW128410   3.356   2.018   2.403  1.6801 -0.3707 -2.4928
 9272SOL    HW228411   3.251   2.003   2.295 -0.4853  0.8812 -0.6027
 9273SOL     OW28412   5.389   0.641   5.374 -0.1714  0.0311 -0.2694
 9273SOL    HW128413   5.325   0.711   5.357  2.6150  2.9583  0.8011
 9273SOL    HW228414   5.387   0.587   5.295 -2.0556  1.6101 -1.3357
 9274SOL     OW28415   2.409   1.844   2.623 -0.1716 -0.1241  0.0952
 9274SOL    HW128416   2.333   1.885   2.582  0.3178  1.2295  0.5225
 9274SOL    HW228417   2.424   1.896   2.702  1.0911 -0.5009  0.1107
 9275SOL     OW28418   0.141   5.316   2.952 -0.0392  0.2571  0.4077
 9275SOL    HW128419   0.150   5.286   2.862  1.2478  1.2650  0.1862
 9275SOL    HW228420   0.127   5.410   2.944  4.4043  1.1101  1.3896
 9276SOL     OW28421   2.456   4.193   5.633  0.5194 -0.2852 -0.2445
 9276SOL    HW128422   2.467   4.117   5.691  0.5052 -1.1569 -1.3702
 9276SOL    HW228423   2.528   4.186   5.571  0.2655  0.3925 -0.6118
 9277SOL     OW28424   5.887   7.046   2.095 -0.1106 -0.1386 -0.0127
 9277SOL    HW128425   5.961   7.079   2.043 -0.5980 -0.6366 -1.0292
 9277SOL    HW228426   5.811   7.090   2.059 -0.3041  0.4428  1.1017
 9278SOL     OW28427   4.993   0.459   3.625  0.7711  0.1490  0.3465
 9278SOL    HW128428   5.015   0.540   3.671  0.4408  0.7130 -0.4857
 9278SOL    HW228429   5.059   0.452   3.556  0.8408 -0.3310  0.4570
 9279SOL     OW28430   1.791   2.892   0.198  0.2954  0.1177 -0.9638
 9279SOL    HW128431   1.700   2.918   0.210  0.3018  0.3992 -1.4915
 9279SOL    HW228432   1.842   2.970   0.219  0.5296 -0.6490  1.3576
 9280SOL     OW28433   4.521   5.733   4.889  0.3247  0.0516  0.7134
 9280SOL    HW128434   4.471   5.814   4.874  1.4536  1.2562  3.1384
 9280SOL    HW228435   4.591   5.737   4.824 -0.2942  0.4446  0.0558
 9281SOL     OW28436   2.967   2.399   2.167  0.5051  0.1019  0.5551
 9281SOL    HW128437   2.889   2.360   2.208  1.1750 -1.9390 -0.0666
 9281SOL    HW228438   2.994   2.468   2.227 -0.8168 -0.2767  1.5969
 9282SOL     OW28439   1.148   1.079   6.910 -0.3876 -0.4237 -0.0875
 9282SOL    HW128440   1.135   0.997   6.956  0.4076  1.0179  2.7944
 9282SOL    HW228441   1.236   1.107   6.934 -0.5751  1.1774 -1.1605
 9283SOL     OW28442   3.924   1.528   4.180 -0.1709 -0.0788 -0.1824
 9283SOL    HW128443   3.976   1.608   4.184 -0.7121  0.2102  1.5317
 9283SOL    HW228444   3.966   1.469   4.242  0.4502 -1.2879 -1.7113
 9284SOL     OW28445   0.016   3.014   6.323  0.0490  0.1908 -0.3529
 9284SOL    HW128446   0.096   3.043   6.366 -0.0591  1.8629 -1.2471
 9284SOL    HW228447   0.007   3.071   6.247 -3.3358  1.8068  1.0982
 9285SOL     OW28448   1.608   4.841   1.458  0.0327  0.1027  0.3704
 9285SOL    HW128449   1.606   4.769   1.395 -1.5738  1.3931 -1.1105
 9285SOL    HW228450   1.548   4.815   1.527 -0.3103 -0.1169 -0.0125
 9286SOL     OW28451   5.551   0.917   3.226 -0.5757 -0.5180  0.4451
 9286SOL    HW128452   5.567   0.997   3.177  0.7952 -0.6045  0.7432
 9286SOL    HW228453   5.536   0.850   3.159 -2.4778  0.1115  0.2020
 9287SOL     OW28454   2.227   3.242   1.467 -0.0085 -0.0337  0.3687
 9287SOL    HW128455   2.160   3.309   1.478 -0.2480 -0.2228  0.0459
 9287SOL    HW228456   2.188   3.178   1.407  0.6374  0.1037 -0.2057
 9288SOL     OW28457   3.103   1.916   1.525 -0.0985 -0.4102 -0.0476
 9288SOL    HW128458   3.134   1.864   1.600  0.2101  0.0435  0.1481
 9288SOL    HW228459   3.058   1.990   1.566  1.1899  0.5166 -0.2871
 9289SOL     OW28460   4.770   2.058   2.517 -0.4251  0.1923  0.3498
 9289SOL    HW128461   4.862   2.067   2.544  0.3176 -3.7707 -0.6580
 9289SOL    HW228462   4.724   2.122   2.571  2.8759  2.1457  1.0347
 9290SOL     OW28463   3.930   2.395   0.480  0.8800 -0.8155 -0.0972
 9290SOL    HW128464   3.898   2.422   0.566 -0.9145  0.1989 -1.0601
 9290SOL    HW228465   4.004   2.337   0.499  0.7205 -0.3270  2.1150
 9291SOL     OW28466   4.737   7.042   2.263 -0.5486  0.4353  0.1643
 9291SOL    HW128467   4.697   6.958   2.240  0.7942  0.0904 -0.9396
 9291SOL    HW228468   4.764   7.031   2.354  2.9591 -1.6801 -1.0355
 9292SOL     OW28469   1.532   3.852   3.143 -0.1870  0.1594 -0.2781
 9292SOL    HW128470   1.439   3.876   3.144  0.0889  1.2558 -0.5459
 9292SOL    HW228471   1.578   3.934   3.126  0.7577 -0.6230 -1.5821
 9293SOL     OW28472   0.186   4.300   2.134 -0.3975  0.0962  0.1208
 9293SOL    HW128473   0.144   4.270   2.053 -1.3543 -0.2243  0.7266
 9293SOL    HW228474   0.275   4.265   2.130 -0.7187 -0.6627 -0.3776
 9294SOL     OW28475   1.965   3.124   3.218 -0.1815 -0.4098  0.3228
 9294SOL    HW128476   2.054   3.138   3.187  0.1405 -0.4749  1.1835
 9294SOL    HW228477   1.922   3.209   3.206  0.8728  0.4984  2.6637
 9295SOL     OW28478   1.670   1.379   4.213  0.3328 -0.3030 -0.4575
 9295SOL    HW128479   1.739   1.313   4.205  0.7002  0.0719 -0.4117
 9295SOL    HW228480   1.710   1.459   4.178 -0.8374 -0.6089 -2.6147
 9296SOL     OW28481   5.755   1.664   5.582  0.3234 -0.1478 -0.0938
 9296SOL    HW128482   5.668   1.659   5.622  1.0014 -2.1400  1.2092
 9296SOL    HW228483   5.745   1.615   5.499 -0.2661  1.2756 -0.8841
 9297SOL     OW28484   6.757   2.366   3.244 -0.1003  0.2072 -0.2264
 9297SOL    HW128485   6.795   2.454   3.238  1.5249 -0.4583  0.0762
 9297SOL    HW228486   6.694   2.373   3.316  1.3041  0.6835  0.9893
 9298SOL     OW28487   5.486   4.197   4.770 -0.2526  0.0098 -0.2843
 9298SOL    HW128488   5.426   4.155   4.708 -0.4602  0.4208 -0.3657
 9298SOL    HW228489   5.502   4.131   4.837 -0.8234 -0.0866 -0.2478
 9299SOL     OW28490   7.257   7.102   6.841  0.2484 -0.5552  0.4424
 9299SOL    HW128491   7.322   7.142   6.783  0.5387 -0.8854  0.5366
 9299SOL    HW228492   7.211   7.176   6.880  1.8096 -0.2683  1.7868
 9300SOL     OW28493   1.730   6.518   6.799  0.1277  0.5810 -0.4904
 9300SOL    HW128494   1.814   6.473   6.800 -0.0862  0.1808 -0.0725
 9300SOL    HW228495   1.700   6.511   6.708  0.6981  1.0190 -0.7133
 9301SOL     OW28496   2.392   0.375   2.873  0.1520 -0.0962 -0.3250
 9301SOL    HW128497   2.349   0.293   2.845  0.4623 -0.1793 -0.5705
 9301SOL    HW228498   2.337   0.409   2.943  0.0368 -0.5361 -0.2009
 9302SOL     OW28499   7.071   2.809   6.726  0.0730  0.3831 -0.3627
 9302SOL    HW128500   7.070   2.771   6.638  1.0033  2.0223 -1.1085
 9302SOL    HW228501   7.158   2.848   6.734  0.3550 -0.6301  1.6840
 9303SOL     OW28502   1.659   0.611   1.065  0.0903  0.3494  0.2570
 9303SOL    HW128503   1.700   0.525   1.073 -0.9840 -0.0677  1.6139
 9303SOL    HW228504   1.597   0.614   1.138 -1.5849  1.3265 -1.1692
 9304SOL     OW28505   0.973   6.659   0.405 -0.1480 -0.4477  0.0579
 9304SOL    HW128506   0.933   6.572   0.401 -0.8342 -0.2880  2.4160
 9304SOL    HW228507   1.007   6.665   0.494  0.5320  1.4235 -0.3097
 9305SOL     OW28508   6.475   1.897   3.561  0.1415  0.0825  0.1165
 9305SOL    HW128509   6.468   1.985   3.524 -1.5839  0.0903  0.4375
 9305SOL    HW228510   6.488   1.910   3.655  0.5745  0.0073  0.0671
 9306SOL     OW28511   5.542   2.287   3.772 -0.7188  0.3025 -0.4084
 9306SOL    HW128512   5.547   2.332   3.856 -1.4580 -0.8168  0.2443
 9306SOL    HW228513   5.632   2.259   3.755 -0.3344  1.6104 -0.6057
 9307SOL     OW28514   4.907   7.213   0.601 -0.0048 -0.0986 -0.7199
 9307SOL    HW128515   4.906   7.210   0.696 -0.8105 -1.6161 -0.7556
 9307SOL    HW228516   4.832   7.268   0.578 -0.3237 -0.4321 -0.4872
 9308SOL     OW28517   2.696   3.536   6.699 -0.3232  0.3058 -0.1011
 9308SOL    HW128518   2.709   3.450   6.740 -1.4027 -0.3475 -1.1258
 9308SOL    HW228519   2.776   3.584   6.721 -0.4109 -0.3783  1.8970
 9309SOL     OW28520   5.192   7.020   0.708 -0.0258 -0.5357  0.4737
 9309SOL    HW128521   5.257   7.036   0.639 -1.0203 -1.3093 -0.6615
 9309SOL    HW228522   5.244   6.999   0.785  1.1033 -0.1276 -0.1588
 9310SOL     OW28523   2.497   3.956   0.883  0.2853 -0.1247 -0.1602
 9310SOL    HW128524   2.531   3.884   0.936  0.9511  1.4054  1.5423
 9310SOL    HW228525   2.473   4.024   0.947 -2.1828  0.4066 -1.5873
 9311SOL     OW28526   4.376   1.845   0.963  0.1552  0.3755  0.2069
 9311SOL    HW128527   4.334   1.791   0.896 -0.6406  0.2238  0.8172
 9311SOL    HW228528   4.305   1.868   1.022  1.2012 -1.0506  2.0519
 9312SOL     OW28529   1.967   0.766   5.000 -0.1270 -0.0164 -0.5935
 9312SOL    HW128530   2.008   0.711   4.933 -0.7117 -1.1217 -0.0447
 9312SOL    HW228531   1.933   0.841   4.951  2.0069  0.6298 -1.1369
 9313SOL     OW28532   5.111   4.869   4.407 -0.5817 -0.6442  0.4782
 9313SOL    HW128533   5.109   4.911   4.321  1.6315 -1.0079  0.2218
 9313SOL    HW228534   5.124   4.776   4.388 -2.2428 -1.0340  1.1557
 9314SOL     OW28535   4.069   4.538   1.111 -0.3209  0.2343 -0.0349
 9314SOL    HW128536   4.153   4.538   1.156 -0.6517 -1.2513  0.6099
 9314SOL    HW228537   4.005   4.517   1.179 -0.9747 -0.6499 -0.9102
 9315SOL     OW28538   4.653   0.744   1.339 -0.2956 -0.0380  0.5618
 9315SOL    HW128539   4.571   0.761   1.385  0.5786  1.1087  1.7219
 9315SOL    HW228540   4.627   0.730   1.248 -1.5468  2.9144  0.4291
 9316SOL     OW28541   7.170   0.367   6.181 -0.0608  0.7821 -0.0673
 9316SOL    HW128542   7.169   0.371   6.277 -3.2115 -0.4165  0.0069
 9316SOL    HW228543   7.242   0.309   6.160  1.5274  2.1107  1.4947
 9317SOL     OW28544   0.037   2.423   5.693 -0.3185  0.4895  0.4799
 9317SOL    HW128545   0.078   2.349   5.647  1.4247  1.4365  0.4891
 9317SOL    HW228546   0.010   2.482   5.623  1.9961  1.7554  0.6331
 9318SOL     OW28547   5.799   1.738   3.667  0.7416  0.1748  0.3664
 9318SOL    HW128548   5.877   1.693   3.636  1.1024 -0.3257  1.9928
 9318SOL    HW228549   5.831   1.816   3.711  0.2402  0.6774 -0.1322
 9319SOL     OW28550   4.956   2.684   4.940 -0.0026  0.0978 -0.5079
 9319SOL    HW128551   4.950   2.779   4.930  1.7777  0.2118 -0.5908
 9319SOL    HW228552   4.898   2.650   4.872 -1.7165  1.1209  0.3985
 9320SOL     OW28553   2.496   3.039   3.598 -0.3979 -0.4799  0.3538
 9320SOL    HW128554   2.534   3.073   3.679  1.6022  0.6070 -1.0086
 9320SOL    HW228555   2.571   3.019   3.542 -1.6662 -3.4087 -0.4047
 9321SOL     OW28556   3.562   4.728   2.679 -0.1080  0.0250  0.4350
 9321SOL    HW128557   3.499   4.686   2.738 -1.9022  2.4431  0.3305
 9321SOL    HW228558   3.553   4.680   2.597 -0.7184 -0.6383  0.8808
 9322SOL     OW28559   3.276   2.515   6.584  0.3795  0.5804  0.3564
 9322SOL    HW128560   3.250   2.484   6.671  3.6089  1.7461  1.8193
 9322SOL    HW228561   3.261   2.441   6.526 -0.3376 -0.7433  2.1942
 9323SOL     OW28562   7.094   6.118   6.723  0.2050  0.1449  0.1240
 9323SOL    HW128563   7.078   6.136   6.630  0.9570  0.1906  0.0026
 9323SOL    HW228564   7.189   6.108   6.730  0.1173 -0.2722  0.8142
 9324SOL     OW28565   0.663   4.784   3.876 -0.3484 -0.8759  0.2741
 9324SOL    HW128566   0.630   4.837   3.803 -0.9554 -1.0480  0.4242
 9324SOL    HW228567   0.672   4.696   3.839  1.7618 -0.4547 -0.3067
 9325SOL     OW28568   5.453   2.905   5.968 -0.3100  0.0994 -0.2969
 9325SOL    HW128569   5.449   2.814   5.937  4.5778 -0.1199 -0.5486
 9325SOL    HW228570   5.493   2.900   6.055 -0.6244  1.9801 -0.0105
 9326SOL     OW28571   5.925   5.330   1.247  0.1952 -0.1292 -0.3566
 9326SOL    HW128572   6.002   5.386   1.239 -0.9036  1.6593  1.2027
 9326SOL    HW228573   5.957   5.252   1.292  1.1388  0.5094  0.0975
 9327SOL     OW28574   3.203   2.103   5.081 -0.4350  0.0820 -0.0593
 9327SOL    HW128575   3.214   2.146   4.996 -2.1398 -0.6288 -0.6622
 9327SOL    HW228576   3.241   2.164   5.143  0.7576  0.6539 -1.3240
 9328SOL     OW28577   6.935   1.468   5.223 -0.6650  0.1585 -0.3828
 9328SOL    HW128578   6.900   1.544   5.176 -0.4574  0.7885  0.4744
 9328SOL    HW228579   6.920   1.488   5.316  1.7015  0.3021 -0.0080
 9329SOL     OW28580   7.057   3.515   2.297  0.2275 -0.2551  0.4573
 9329SOL    HW128581   7.126   3.575   2.269 -0.2844  0.2165  0.2029
 9329SOL    HW228582   7.104   3.439   2.332  0.8735 -0.0219  0.1003
 9330SOL     OW28583   5.445   6.059   0.160  0.2918  0.2132 -0.3495
 9330SOL    HW128584   5.540   6.052   0.159  0.2998  0.2182  0.1825
 9330SOL    HW228585   5.419   6.023   0.245 -0.3668 -2.0835 -1.4672
 9331SOL     OW28586   4.580   6.645   3.782  0.2119 -0.0185 -0.2933
 9331SOL    HW128587   4.520   6.581   3.821 -1.7841  1.3266 -1.0389
 9331SOL    HW228588   4.601   6.704   3.853  0.9490 -0.6950  0.0576
 9332SOL     OW28589   3.126   5.601   3.110 -0.3669 -0.2722 -0.2031
 9332SOL    HW128590   3.085   5.581   3.026 -1.3500 -1.5095  0.5545
 9332SOL    HW228591   3.093   5.534   3.170  0.8564  0.1734  1.0144
 9333SOL     OW28592   3.530   6.270   5.806  0.8873 -0.0824  0.2979
 9333SOL    HW128593   3.553   6.281   5.899  0.2596 -0.7854  0.5407
 9333SOL    HW228594   3.450   6.218   5.808 -1.0914  2.8592 -0.5126
 9334SOL     OW28595   5.351   0.642   6.622 -0.8568 -0.4686  0.4659
 9334SOL    HW128596   5.288   0.613   6.689 -0.5302 -1.1615  0.4737
 9334SOL    HW228597   5.304   0.710   6.573 -1.3899 -0.5392  0.8725
 9335SOL     OW28598   7.036   4.920   0.185 -0.0742  0.0327 -0.4070
 9335SOL    HW128599   6.996   4.834   0.170 -0.7773  0.3696 -0.4932
 9335SOL    HW228600   7.130   4.904   0.182 -0.1999 -0.9048  0.4842
 9336SOL     OW28601   5.463   3.038   5.471 -0.4976  0.8125  0.4547
 9336SOL    HW128602   5.540   2.999   5.511 -1.7584 -1.8791  0.3483
 9336SOL    HW228603   5.491   3.063   5.383  0.1201 -0.6519  0.2280
 9337SOL     OW28604   4.113   0.918   0.525 -0.3865 -0.2682  0.1685
 9337SOL    HW128605   4.061   0.972   0.466  0.6727 -0.7807 -1.2737
 9337SOL    HW228606   4.066   0.835   0.530 -0.0668 -0.4950 -0.5879
 9338SOL     OW28607   7.061   0.052   3.610  0.0792  0.5828  0.2268
 9338SOL    HW128608   7.142   0.033   3.563 -0.4734  0.5171 -0.6981
 9338SOL    HW228609   6.995   0.066   3.542 -0.5947  1.0824  0.9601
 9339SOL     OW28610   4.692   6.660   5.470  0.1609  0.0680 -0.5377
 9339SOL    HW128611   4.620   6.706   5.425 -1.0263 -1.6868 -0.4769
 9339SOL    HW228612   4.682   6.569   5.443  2.3586 -0.2060 -0.4798
 9340SOL     OW28613   6.999   4.420   3.768  0.2302  0.0119  0.1344
 9340SOL    HW128614   7.062   4.424   3.841 -0.1463 -0.4529  0.4917
 9340SOL    HW228615   7.050   4.445   3.691  0.5960  0.6469  0.5829
 9341SOL     OW28616   4.854   7.007   4.245 -0.4186  0.2343  0.2112
 9341SOL    HW128617   4.896   6.936   4.197 -1.3678 -0.8662  0.9940
 9341SOL    HW228618   4.918   7.078   4.243  1.7852 -1.6068  1.9121
 9342SOL     OW28619   7.003   7.009   1.060 -0.0488 -0.0729  0.7021
 9342SOL    HW128620   6.949   6.973   0.990  0.4103  1.2888 -0.3793
 9342SOL    HW228621   7.091   7.011   1.024  0.3447 -0.1794  1.6444
 9343SOL     OW28622   6.516   6.650   1.246  0.5797 -0.1277  0.0780
 9343SOL    HW128623   6.468   6.651   1.328 -0.4372 -1.4528 -0.4984
 9343SOL    HW228624   6.536   6.558   1.229  1.1535  0.1660 -0.9493
 9344SOL     OW28625   7.183   1.679   2.308  0.5326 -0.2080 -0.0210
 9344SOL    HW128626   7.193   1.661   2.214  0.4634  0.0254 -0.0747
 9344SOL    HW228627   7.229   1.608   2.351 -1.9861 -2.0195 -0.1847
 9345SOL     OW28628   3.041   3.000   6.952  0.0450  0.1062 -0.1172
 9345SOL    HW128629   2.995   3.071   6.996 -0.4786  0.2212 -0.8396
 9345SOL    HW228630   2.981   2.971   6.884  0.2638 -1.0190  0.1645
 9346SOL     OW28631   0.083   0.579   4.829 -0.4945  0.2864  0.3994
 9346SOL    HW128632   0.142   0.653   4.844 -1.6220  1.7621 -2.0302
 9346SOL    HW228633   0.139   0.511   4.792  0.0624  0.9806 -0.0546
 9347SOL     OW28634   4.189   1.633   1.638  0.1078 -0.0986  0.1032
 9347SOL    HW128635   4.189   1.623   1.543  0.2565  0.6638  0.0236
 9347SOL    HW228636   4.266   1.687   1.656  0.5409 -0.9102  0.7236
 9348SOL     OW28637   2.600   4.076   1.780  0.3807 -0.1687 -0.1971
 9348SOL    HW128638   2.679   4.024   1.794 -0.0605 -0.7340  0.2292
 9348SOL    HW228639   2.624   4.138   1.711  0.8629 -1.0215 -0.7984
 9349SOL     OW28640   3.329   5.966   2.056  0.2709 -0.1426 -0.3713
 9349SOL    HW128641   3.360   5.879   2.081 -1.3346 -0.0874  1.8992
 9349SOL    HW228642   3.307   6.009   2.138  1.3509  2.5660 -1.4381
 9350SOL     OW28643   4.391   6.210   4.532  0.4466 -0.0949 -0.0421
 9350SOL    HW128644   4.430   6.296   4.518 -0.5828  0.4020  0.1030
 9350SOL    HW228645   4.314   6.227   4.586  0.1535 -1.0905 -0.1389
 9351SOL     OW28646   4.587   5.609   6.096 -0.9737  0.1465 -0.2319
 9351SOL    HW128647   4.666   5.655   6.068 -2.2654  1.9811 -0.9598
 9351SOL    HW228648   4.571   5.640   6.185  0.3761 -1.9791  0.8093
 9352SOL     OW28649   3.556   3.721   6.314 -0.4881 -0.1203 -0.2600
 9352SOL    HW128650   3.569   3.731   6.220  0.9897  0.7113  0.0085
 9352SOL    HW228651   3.464   3.744   6.328 -0.5184  0.5036 -1.4098
 9353SOL     OW28652   5.554   3.610   0.158  0.0102  0.1352  0.2693
 9353SOL    HW128653   5.466   3.609   0.196  1.0880  1.8998  2.9727
 9353SOL    HW228654   5.602   3.543   0.208  0.4224 -0.2624 -0.6527
 9354SOL     OW28655   2.943   3.660   0.538  0.0479 -0.2091  1.2116
 9354SOL    HW128656   3.036   3.636   0.530 -0.2287 -1.2836  1.2917
 9354SOL    HW228657   2.935   3.739   0.484  1.1996  0.3913  1.8956
 9355SOL     OW28658   5.541   0.239   4.544  0.0779 -0.0731 -0.1087
 9355SOL    HW128659   5.486   0.274   4.614 -0.4183  1.2456 -1.1422
 9355SOL    HW228660   5.491   0.165   4.509  0.7740 -1.3596  1.5630
 9356SOL     OW28661   5.267   5.244   5.244  0.0477 -0.5307 -0.2349
 9356SOL    HW128662   5.189   5.252   5.298 -0.3289 -2.4430 -0.4789
 9356SOL    HW228663   5.239   5.273   5.157 -0.1559 -0.3792 -0.1180
 9357SOL     OW28664   5.009   4.448   2.412  0.1542  0.9679  0.1413
 9357SOL    HW128665   4.981   4.483   2.327  1.4745  0.1664 -0.6529
 9357SOL    HW228666   5.054   4.366   2.390  0.0674  0.4976  1.6640
 9358SOL     OW28667   2.018   2.267   4.622  0.1608  0.1679 -0.3282
 9358SOL    HW128668   2.028   2.361   4.633 -1.6892  0.1963  1.2919
 9358SOL    HW228669   2.086   2.229   4.679 -0.6460  0.5215  0.9049
 9359SOL     OW28670   5.835   0.139   1.045  0.2408 -0.2968  0.4052
 9359SOL    HW128671   5.898   0.124   1.115  1.5139  1.9538 -0.1784
 9359SOL    HW228672   5.816   0.233   1.051 -1.2567 -0.5051 -0.9009
 9360SOL     OW28673   5.280   4.737   2.129  0.0787 -0.9662 -0.7947
 9360SOL    HW128674   5.205   4.789   2.160 -0.3360 -2.3023  0.4768
 9360SOL    HW228675   5.355   4.775   2.175 -0.3784 -2.1947  1.0354
 9361SOL     OW28676   5.461   7.147   3.720  0.3452 -0.3180  0.0745
 9361SOL    HW128677   5.500   7.071   3.677  0.9390  0.6184 -1.0748
 9361SOL    HW228678   5.395   7.178   3.658 -0.3958 -0.3307  0.8569
 9362SOL     OW28679   5.038   5.500   7.113  0.3752 -0.3139 -0.8155
 9362SOL    HW128680   5.109   5.541   7.063  2.1383 -0.2155  1.6560
 9362SOL    HW228681   5.066   5.508   7.205 -2.1152 -1.6633  0.1034
 9363SOL     OW28682   6.034   6.958   3.652  0.4152 -0.2157 -0.1593
 9363SOL    HW128683   6.013   7.043   3.613  1.1110  1.6113  3.2952
 9363SOL    HW228684   6.112   6.929   3.604 -1.1288 -0.0459 -2.8977
 9364SOL     OW28685   3.745   1.629   3.975 -1.1705 -0.1245 -0.5572
 9364SOL    HW128686   3.776   1.600   4.061 -2.6234  0.7003  0.2724
 9364SOL    HW228687   3.650   1.632   3.984 -1.3376 -0.2409 -2.2735
 9365SOL     OW28688   2.313   1.423   6.497  0.3438 -0.0502  0.0995
 9365SOL    HW128689   2.389   1.365   6.494  0.8181  0.5065  0.9247
 9365SOL    HW228690   2.271   1.402   6.580 -0.5536 -0.5374 -0.4762
 9366SOL     OW28691   1.210   4.800   4.979 -0.1565 -0.2127  0.5408
 9366SOL    HW128692   1.245   4.771   5.063 -1.0027  0.4540  1.1323
 9366SOL    HW228693   1.173   4.721   4.940 -0.2160 -0.4297  1.0299
 9367SOL     OW28694   0.176   2.748   5.057  0.1166 -0.2612  0.2222
 9367SOL    HW128695   0.110   2.684   5.030  1.5982 -1.5845 -0.2931
 9367SOL    HW228696   0.208   2.716   5.141  0.1671  0.3333  0.4328
 9368SOL     OW28697   1.354   4.685   2.568 -0.3505  0.1265  0.1525
 9368SOL    HW128698   1.265   4.719   2.579 -0.2466  0.3848  0.2101
 9368SOL    HW228699   1.386   4.726   2.487  1.0790  3.0635  2.0978
 9369SOL     OW28700   4.918   4.289   7.152  0.3685 -0.2490  0.6265
 9369SOL    HW128701   4.962   4.221   7.101  0.5778  0.5016 -0.2068
 9369SOL    HW228702   4.939   4.268   7.244  2.6785  0.2300  0.2409
 9370SOL     OW28703   3.037   4.388   3.721 -0.9130 -0.2366 -0.2024
 9370SOL    HW128704   3.071   4.299   3.728 -1.4433 -0.3211  1.5155
 9370SOL    HW228705   3.025   4.402   3.627  0.4768 -1.4710 -0.5781
 9371SOL     OW28706   3.739   4.558   2.941 -0.2701 -0.5513  0.1405
 9371SOL    HW128707   3.714   4.619   3.010  0.4592 -2.2432  1.9428
 9371SOL    HW228708   3.665   4.498   2.933 -0.1119 -0.7135 -0.1450
 9372SOL     OW28709   6.697   0.517   5.194  0.3741  0.7862  0.2388
 9372SOL    HW128710   6.709   0.583   5.125 -0.7718 -1.0533 -1.7587
 9372SOL    HW228711   6.769   0.456   5.181  1.2261  1.4025  1.8738
 9373SOL     OW28712   6.293   1.125   3.770 -0.8022 -0.8605  0.1645
 9373SOL    HW128713   6.209   1.092   3.803 -1.5130  1.3718  0.6967
 9373SOL    HW228714   6.272   1.155   3.681  0.2270 -3.3068 -0.9653
 9374SOL     OW28715   4.826   4.620   5.964  0.8373 -0.6822  0.1307
 9374SOL    HW128716   4.759   4.653   5.905  0.9390 -1.6670 -0.5406
 9374SOL    HW228717   4.877   4.698   5.988 -1.2289  0.2844  1.5972
 9375SOL     OW28718   4.483   4.915   0.148 -0.2176 -0.4799  0.6781
 9375SOL    HW128719   4.564   4.922   0.198  0.0116 -1.4917  0.4671
 9375SOL    HW228720   4.489   4.830   0.104 -0.1826  0.5826 -1.4476
 9376SOL     OW28721   5.231   6.504   1.445 -0.6352  0.5115  0.3399
 9376SOL    HW128722   5.302   6.540   1.391 -0.3819 -1.1345 -0.4371
 9376SOL    HW228723   5.152   6.521   1.394 -0.6068  0.6700  0.3466
 9377SOL     OW28724   0.398   2.462   5.909 -0.2811 -0.4144  0.6734
 9377SOL    HW128725   0.351   2.538   5.944  3.3201  1.7336  1.1707
 9377SOL    HW228726   0.455   2.498   5.841  1.1248 -2.7397  0.5449
 9378SOL     OW28727   3.479   6.294   2.365  0.4824 -0.0478 -0.0571
 9378SOL    HW128728   3.472   6.199   2.370 -0.0151  0.0247  0.9982
 9378SOL    HW228729   3.567   6.314   2.396  1.6139 -0.3226 -2.9975
 9379SOL     OW28730   0.828   4.772   0.829 -0.1059 -0.1552  0.0153
 9379SOL    HW128731   0.867   4.713   0.765  0.6716  1.8238 -1.3956
 9379SOL    HW228732   0.821   4.856   0.783 -1.0089  0.8960  2.0107
 9380SOL     OW28733   1.875   0.678   6.596 -0.1402  0.3668  0.6016
 9380SOL    HW128734   1.872   0.713   6.685 -1.0650  0.2269  0.6333
 9380SOL    HW228735   1.951   0.620   6.595 -0.2860  0.1605  1.3754
 9381SOL     OW28736   6.955   3.610   4.922 -0.3716  0.1760  0.4337
 9381SOL    HW128737   6.890   3.625   4.854  2.6358 -0.2496 -2.6332
 9381SOL    HW228738   6.978   3.698   4.952 -0.9059  0.4222  0.1404
 9382SOL     OW28739   1.552   3.393   3.755  0.1376  0.1688  0.0910
 9382SOL    HW128740   1.542   3.355   3.842 -0.2612 -2.2313 -0.9538
 9382SOL    HW228741   1.640   3.368   3.727  0.2827  0.9637 -0.1756
 9383SOL     OW28742   4.524   6.282   4.054 -0.0134  0.1205 -0.0562
 9383SOL    HW128743   4.443   6.255   4.097 -1.1929  0.8040 -1.7907
 9383SOL    HW228744   4.498   6.357   3.999  1.3774 -0.8404 -2.0869
 9384SOL     OW28745   3.287   4.999   3.605  0.5040 -0.6481  0.4067
 9384SOL    HW128746   3.324   5.061   3.543 -1.0140  0.2652  0.3751
 9384SOL    HW228747   3.312   4.913   3.571  0.1846 -0.1447 -1.1764
 9385SOL     OW28748   6.134   0.531   4.490  0.4243 -0.0819  0.4918
 9385SOL    HW128749   6.090   0.600   4.539 -0.1576  1.1631 -1.7277
 9385SOL    HW228750   6.228   0.552   4.498  0.2411  1.0974 -0.3404
 9386SOL     OW28751   1.762   4.114   1.416 -0.2405 -0.2875  0.0142
 9386SOL    HW128752   1.777   4.024   1.387 -0.5944  0.1665 -1.6668
 9386SOL    HW228753   1.826   4.128   1.486  0.4776 -1.5344 -0.3748
 9387SOL     OW28754   5.825   1.474   6.035  0.4263  0.0837  0.2940
 9387SOL    HW128755   5.829   1.419   6.113  1.0913  1.1072  0.9988
 9387SOL    HW228756   5.848   1.562   6.067 -1.9151  1.0443 -0.5283
 9388SOL     OW28757   3.942   6.034   5.860  0.2787 -0.7958  0.3662
 9388SOL    HW128758   3.997   6.078   5.796 -0.1755  2.5096  2.0917
 9388SOL    HW228759   3.997   6.029   5.939  0.1779 -3.0793  0.3355
 9389SOL     OW28760   7.200   0.453   1.994  0.3303  0.1038  0.2188
 9389SOL    HW128761   7.218   0.375   2.046 -0.9591 -0.0970  0.3774
 9389SOL    HW228762   7.141   0.423   1.925  0.4171  0.7896 -0.1650
 9390SOL     OW28763   7.138   0.928   2.245  0.0331 -0.2481 -0.2021
 9390SOL    HW128764   7.162   1.009   2.200 -1.2136  1.0061  1.3145
 9390SOL    HW228765   7.173   0.939   2.334  0.4359 -1.6781 -0.1610
 9391SOL     OW28766   3.633   7.204   3.417 -0.0617 -0.3048  0.4003
 9391SOL    HW128767   3.549   7.231   3.380  0.9745  1.5557 -0.6715
 9391SOL    HW228768   3.627   7.224   3.510 -0.3221  1.0510  0.0940
 9392SOL     OW28769   6.343   4.962   4.210  0.0031 -0.0773 -0.5316
 9392SOL    HW128770   6.396   4.971   4.131  0.5358 -1.8213 -0.3822
 9392SOL    HW228771   6.407   4.947   4.280 -0.5616 -0.0940 -0.0129
 9393SOL     OW28772   2.912   5.173   4.771 -0.2395  0.1357 -0.2866
 9393SOL    HW128773   2.873   5.258   4.792  0.9868  0.4578  0.7883
 9393SOL    HW228774   2.885   5.116   4.843 -0.5691 -0.2396 -0.7018
 9394SOL     OW28775   4.951   6.801   1.733  0.4388 -0.0691  0.0485
 9394SOL    HW128776   4.926   6.871   1.672 -0.4999  1.1053  1.7523
 9394SOL    HW228777   4.921   6.720   1.691  1.3323  0.5487 -1.8380
 9395SOL     OW28778   4.790   1.209   3.344 -0.2116  0.1542 -0.1803
 9395SOL    HW128779   4.878   1.206   3.306  0.3165  1.7732  0.9004
 9395SOL    HW228780   4.770   1.117   3.364  1.2954 -0.2084 -0.2725
 9396SOL     OW28781   6.184   3.085   3.192 -0.1023 -0.0493  0.1754
 9396SOL    HW128782   6.092   3.061   3.176  0.6056 -2.1753 -0.8930
 9396SOL    HW228783   6.195   3.168   3.146 -1.2047 -0.3461 -0.6381
 9397SOL     OW28784   4.631   0.782   4.505 -0.1787 -0.1182  0.3147
 9397SOL    HW128785   4.579   0.702   4.494 -0.8399  0.5135 -1.5317
 9397SOL    HW228786   4.657   0.782   4.597 -2.2279 -1.2092  0.9272
 9398SOL     OW28787   4.919   6.668   4.501  0.5630  0.1197 -0.1941
 9398SOL    HW128788   4.874   6.645   4.419  0.3565 -1.9979  0.4752
 9398SOL    HW228789   5.005   6.699   4.473  0.8631 -1.5410 -1.1875
 9399SOL     OW28790   4.977   1.038   1.056  0.2949 -0.0221  0.1730
 9399SOL    HW128791   4.941   0.974   1.117 -0.1596 -0.2481 -0.3318
 9399SOL    HW228792   5.021   0.985   0.989 -0.2778  0.1753 -0.3692
 9400SOL     OW28793   0.776   1.394   7.044 -0.6133 -0.9740 -0.2335
 9400SOL    HW128794   0.824   1.314   7.065  0.1582 -0.3864  0.2424
 9400SOL    HW228795   0.833   1.441   6.983 -0.8126 -0.5148 -0.0672
 9401SOL     OW28796   5.305   0.329   3.814  0.2440  0.4398  0.2435
 9401SOL    HW128797   5.267   0.363   3.895 -1.7361 -0.5202 -0.2679
 9401SOL    HW228798   5.392   0.297   3.841  0.2377  1.5538  1.6575
 9402SOL     OW28799   0.665   3.936   4.495 -0.0372 -0.1149 -0.1210
 9402SOL    HW128800   0.594   3.992   4.462 -1.2627 -0.5380  1.7033
 9402SOL    HW228801   0.745   3.978   4.464 -1.0137  1.4493 -0.5947
 9403SOL     OW28802   6.339   3.578   4.427 -0.0981  0.0423  0.3134
 9403SOL    HW128803   6.434   3.588   4.419 -0.0766 -0.6716 -0.4113
 9403SOL    HW228804   6.309   3.559   4.338 -0.6438 -1.8668  0.8824
 9404SOL     OW28805   5.830   6.287   5.528  0.5596  0.0776  0.1165
 9404SOL    HW128806   5.752   6.342   5.522  0.4704 -0.1821 -1.3706
 9404SOL    HW228807   5.800   6.201   5.499  0.9592 -0.4831  1.3700
 9405SOL     OW28808   3.064   0.268   4.154 -0.7657  0.3374  0.0579
 9405SOL    HW128809   3.095   0.245   4.242 -1.2901  1.8675  0.6570
 9405SOL    HW228810   2.976   0.232   4.149 -1.2502  1.4236  0.6673
 9406SOL     OW28811   3.457   1.326   2.065 -0.1080 -0.6766  0.3906
 9406SOL    HW128812   3.432   1.417   2.081  0.2225 -0.2796 -1.2360
 9406SOL    HW228813   3.486   1.294   2.151  2.1164  1.5066  0.5322
 9407SOL     OW28814   0.994   0.411   1.590 -0.1139  0.8381 -0.6367
 9407SOL    HW128815   1.079   0.455   1.579  0.1672  0.2308 -0.9030
 9407SOL    HW228816   1.007   0.352   1.665  0.3208 -0.7460 -1.9251
 9408SOL     OW28817   0.983   5.065   2.965  0.3861 -0.4896 -0.2639
 9408SOL    HW128818   1.034   5.091   2.888 -0.8030  0.6982 -0.6542
 9408SOL    HW228819   0.905   5.120   2.963 -0.5124 -1.6767  0.8222
 9409SOL     OW28820   4.111   2.497   6.252  0.1421  0.0846 -0.7778
 9409SOL    HW128821   4.163   2.418   6.265  0.6438  0.9434  3.4951
 9409SOL    HW228822   4.030   2.481   6.301 -1.1059  0.9965 -2.5136
 9410SOL     OW28823   4.006   6.197   0.403 -0.2048 -0.1154 -0.1079
 9410SOL    HW128824   3.996   6.113   0.449 -0.3440  0.7083  1.4101
 9410SOL    HW228825   3.939   6.253   0.443  1.4847  1.4360  0.6068
 9411SOL     OW28826   2.138   0.434   0.616 -0.2846 -0.3302  0.2421
 9411SOL    HW128827   2.232   0.431   0.632 -0.4943  0.1879  1.6121
 9411SOL    HW228828   2.107   0.346   0.637 -0.2317 -0.2702  0.5672
 9412SOL     OW28829   5.554   2.391   5.504  0.0251  0.0571 -0.0807
 9412SOL    HW128830   5.470   2.348   5.514  0.6736 -0.9123  1.3816
 9412SOL    HW228831   5.598   2.344   5.434  0.6203 -1.5275  1.3258
 9413SOL     OW28832   4.406   5.272   1.645 -1.0760  0.5007  0.4131
 9413SOL    HW128833   4.346   5.330   1.598 -0.8092 -1.3999 -2.3923
 9413SOL    HW228834   4.399   5.188   1.600  2.4221 -0.2570  1.1030
 9414SOL     OW28835   1.091   0.775   0.978  0.0815  0.4030  0.1112
 9414SOL    HW128836   1.062   0.717   1.048  0.0921 -0.2720 -0.4306
 9414SOL    HW228837   1.177   0.741   0.953  0.0128  0.5475 -0.3236
 9415SOL     OW28838   5.508   0.550   7.120 -0.0102  0.2453 -0.1924
 9415SOL    HW128839   5.480   0.640   7.134  0.7059  0.3805  0.3958
 9415SOL    HW228840   5.485   0.532   7.029  0.6266  1.3030 -0.5647
 9416SOL     OW28841   4.907   7.014   6.845 -0.1277 -0.2755 -0.2172
 9416SOL    HW128842   4.901   6.924   6.879 -0.0656 -0.5512 -0.9232
 9416SOL    HW228843   4.944   7.003   6.757 -1.9383  0.2812 -1.0609
 9417SOL     OW28844   7.043   1.331   0.133  0.8572  0.1261  0.1820
 9417SOL    HW128845   7.091   1.289   0.062  1.1594  0.4140  0.2186
 9417SOL    HW228846   7.040   1.265   0.202 -1.9531 -1.2504 -1.1648
 9418SOL     OW28847   6.557   5.491   4.330  0.1478 -0.2713 -0.4329
 9418SOL    HW128848   6.496   5.495   4.404  0.0398  0.2702 -0.5429
 9418SOL    HW228849   6.578   5.583   4.312  0.8051 -0.4442 -0.5588
 9419SOL     OW28850   2.517   1.672   6.065 -0.2476  0.1325  0.0080
 9419SOL    HW128851   2.537   1.757   6.103  0.9087  0.2471 -0.8469
 9419SOL    HW228852   2.421   1.669   6.062 -0.2816  1.9770 -1.2408
 9420SOL     OW28853   2.314   6.553   4.180  0.1871  0.2181 -0.6270
 9420SOL    HW128854   2.310   6.646   4.204  2.0154 -0.0090  0.6889
 9420SOL    HW228855   2.255   6.510   4.241  1.1834  0.2294  0.3529
 9421SOL     OW28856   4.417   2.793   0.816 -0.2790  0.0905  0.7738
 9421SOL    HW128857   4.412   2.698   0.813 -0.9783  0.1484 -0.3238
 9421SOL    HW228858   4.355   2.818   0.884 -0.5353 -0.2125  0.6541
 9422SOL     OW28859   6.319   4.978   2.492  0.4118  0.2402 -0.3227
 9422SOL    HW128860   6.231   5.005   2.467  0.1095  0.6735  1.2069
 9422SOL    HW228861   6.335   4.898   2.443 -1.6557 -1.0436  1.0692
 9423SOL     OW28862   4.074   3.891   4.906 -0.3640 -0.0099  0.0272
 9423SOL    HW128863   4.103   3.976   4.873  1.9252 -2.2156 -3.9893
 9423SOL    HW228864   4.002   3.866   4.849 -1.1688 -0.6796  1.3176
 9424SOL     OW28865   2.610   0.093   3.649 -0.1408 -0.1299  0.3981
 9424SOL    HW128866   2.668   0.120   3.720  1.3818  0.1100 -0.8983
 9424SOL    HW228867   2.577   0.175   3.612  0.0296 -0.2056  0.0710
 9425SOL     OW28868   2.565   2.344   4.181  0.8190 -0.0941 -0.2643
 9425SOL    HW128869   2.610   2.409   4.235  0.4685  0.5743 -0.7720
 9425SOL    HW228870   2.475   2.346   4.212  0.9355 -0.7932  0.1405
 9426SOL     OW28871   5.051   4.686   6.617 -0.1576 -0.6903  0.0365
 9426SOL    HW128872   4.996   4.638   6.556  0.4575  0.6351 -1.6025
 9426SOL    HW228873   5.129   4.631   6.627 -0.0950 -0.7394 -0.6836
 9427SOL     OW28874   1.611   2.526   2.356 -0.6240 -0.6939 -0.2870
 9427SOL    HW128875   1.666   2.454   2.385  0.3575 -0.4345 -1.4395
 9427SOL    HW228876   1.673   2.588   2.316 -1.4579  0.7121  0.5440
 9428SOL     OW28877   5.935   0.642   4.315  0.2097 -0.5798 -0.0205
 9428SOL    HW128878   5.989   0.582   4.366  0.6610 -0.1440  0.0142
 9428SOL    HW228879   5.994   0.714   4.292 -0.4544  0.0697  0.3205
 9429SOL     OW28880   3.456   6.326   4.260  0.2080 -0.0217 -0.1358
 9429SOL    HW128881   3.474   6.358   4.172  0.6537 -0.2285 -0.1219
 9429SOL    HW228882   3.387   6.383   4.293  0.3907  0.3712 -0.4329
 9430SOL     OW28883   2.999   5.490   6.348 -0.0362 -0.3042 -0.0373
 9430SOL    HW128884   2.973   5.582   6.349  1.3099  0.0859  2.2698
 9430SOL    HW228885   2.946   5.451   6.278 -0.7389  2.1673 -0.9382
 9431SOL     OW28886   4.683   2.888   3.951 -0.1994  0.1086 -0.3044
 9431SOL    HW128887   4.609   2.933   3.910 -0.1148 -0.2092 -0.8128
 9431SOL    HW228888   4.730   2.957   3.998 -0.1294  0.5369 -0.9975
 9432SOL     OW28889   6.077   2.821   2.228  0.0088  0.1922  0.1835
 9432SOL    HW128890   6.042   2.764   2.296 -1.4429  0.0969 -0.6251
 9432SOL    HW228891   6.096   2.763   2.154  0.1016  0.5166 -0.0525
 9433SOL     OW28892   1.801   2.456   6.671  0.4753  0.0265 -0.0733
 9433SOL    HW128893   1.771   2.542   6.701 -0.1364  0.6397 -2.3420
 9433SOL    HW228894   1.737   2.394   6.707 -0.2516  0.7358 -0.1415
 9434SOL     OW28895   3.117   1.608   6.877  0.1772  0.2421  0.0507
 9434SOL    HW128896   3.073   1.525   6.896 -1.7235  1.1733 -0.2644
 9434SOL    HW228897   3.157   1.594   6.791 -0.1513 -0.3332 -0.0134
 9435SOL     OW28898   2.052   1.863   2.331  0.2781  0.4489  0.3175
 9435SOL    HW128899   2.021   1.857   2.241  0.8020  2.4133 -0.0210
 9435SOL    HW228900   2.140   1.825   2.329 -0.5141 -1.4527  0.4615
 9436SOL     OW28901   1.250   3.493   6.221  0.1660 -0.2784  0.2519
 9436SOL    HW128902   1.202   3.488   6.303 -2.5828 -0.3548 -1.3107
 9436SOL    HW228903   1.220   3.418   6.170  0.0233  1.0770 -1.7400
 9437SOL     OW28904   0.816   6.699   6.209 -0.2570 -0.2555 -0.2351
 9437SOL    HW128905   0.812   6.696   6.304 -2.1078  0.3376 -0.2781
 9437SOL    HW228906   0.902   6.735   6.189 -0.1565  0.3279  1.2216
 9438SOL     OW28907   5.543   0.953   2.231 -0.4509  0.0617  0.1250
 9438SOL    HW128908   5.630   0.975   2.265 -0.5819  1.2189 -0.2383
 9438SOL    HW228909   5.516   0.876   2.280  0.2687  0.4252  1.1056
 9439SOL     OW28910   3.147   0.849   1.829  0.3273  0.8023  0.3510
 9439SOL    HW128911   3.170   0.931   1.786  1.1308  0.0373 -0.7089
 9439SOL    HW228912   3.222   0.829   1.885  0.3856  0.5001  0.1666
 9440SOL     OW28913   6.900   4.677   3.754 -0.0283 -0.2053  0.5850
 9440SOL    HW128914   6.829   4.631   3.798 -1.7319  0.7648 -1.0609
 9440SOL    HW228915   6.909   4.632   3.670 -0.3361  1.1630 -0.2011
 9441SOL     OW28916   4.602   1.579   3.815  0.0911  0.3131 -0.4311
 9441SOL    HW128917   4.585   1.486   3.804 -1.6578  0.5092  0.5780
 9441SOL    HW228918   4.665   1.584   3.887  0.8599 -0.1149 -1.0557
 9442SOL     OW28919   6.734   0.411   6.893  0.5880 -0.2535  0.1295
 9442SOL    HW128920   6.709   0.388   6.804 -0.8351 -2.1600  1.0022
 9442SOL    HW228921   6.681   0.488   6.914  1.3417  0.5493 -0.8416
 9443SOL     OW28922   0.427   1.984   1.753  0.0824 -0.1008  0.4192
 9443SOL    HW128923   0.378   1.947   1.827 -2.0353  1.5710 -0.0863
 9443SOL    HW228924   0.438   2.077   1.776 -0.4734  0.4042 -1.2684
 9444SOL     OW28925   4.122   1.159   0.417  0.0171  0.4590  0.8256
 9444SOL    HW128926   4.038   1.196   0.388 -0.2481  0.1765  1.2189
 9444SOL    HW228927   4.143   1.207   0.497  0.8374  1.3649  0.0688
 9445SOL     OW28928   1.856   0.450   0.487  0.2969  0.3264  0.0541
 9445SOL    HW128929   1.834   0.373   0.540  2.6174  0.8300  1.7931
 9445SOL    HW228930   1.951   0.458   0.494  0.4564  1.5429 -2.6724
 9446SOL     OW28931   0.519   3.086   0.072  0.0397  0.4362 -0.1701
 9446SOL    HW128932   0.456   3.058   0.005  0.4717 -0.1909 -0.3218
 9446SOL    HW228933   0.479   3.060   0.155  0.0496  0.1270 -0.2608
 9447SOL     OW28934   0.146   0.940   0.615 -0.2663  0.0559 -0.3370
 9447SOL    HW128935   0.216   0.968   0.556  0.2591 -0.8080 -0.1376
 9447SOL    HW228936   0.191   0.892   0.684 -1.2014 -2.3394 -1.3071
 9448SOL     OW28937   2.851   4.400   5.261 -1.1048  0.2897  0.0316
 9448SOL    HW128938   2.775   4.376   5.207  0.1434 -2.5948 -0.5097
 9448SOL    HW228939   2.892   4.472   5.213 -2.0505  0.1819 -0.9782
 9449SOL     OW28940   4.532   7.073   1.037  0.2769 -0.5743  0.2006
 9449SOL    HW128941   4.464   7.006   1.042  0.0965 -0.4092 -0.0551
 9449SOL    HW228942   4.485   7.156   1.042  0.4566 -0.4585 -0.0204
 9450SOL     OW28943   6.411   4.916   0.871  0.4171 -0.3825 -0.0512
 9450SOL    HW128944   6.457   4.997   0.850  0.9576 -0.5718  0.3824
 9450SOL    HW228945   6.412   4.912   0.966 -1.5068  0.1808  0.0026
 9451SOL     OW28946   6.989   0.537   6.369  0.4141 -0.2423 -0.0860
 9451SOL    HW128947   6.960   0.448   6.389  0.8378 -0.6877 -1.4064
 9451SOL    HW228948   6.916   0.593   6.397 -0.3078 -1.0837 -0.2682
 9452SOL     OW28949   1.084   0.368   6.404  0.0163 -0.0683 -0.5006
 9452SOL    HW128950   1.083   0.462   6.423 -1.1501 -0.1271 -0.2191
 9452SOL    HW228951   1.160   0.334   6.452  1.5502  1.0265 -2.1164
 9453SOL     OW28952   2.284   1.238   5.411 -0.6581  0.2364  0.1430
 9453SOL    HW128953   2.233   1.315   5.437  0.7551  1.7472 -1.4542
 9453SOL    HW228954   2.292   1.246   5.316  2.3519 -0.0635  0.3302
 9454SOL     OW28955   3.619   3.819   2.030 -0.2774  0.7240  0.3568
 9454SOL    HW128956   3.632   3.889   1.967  1.4020  0.5947  0.5370
 9454SOL    HW228957   3.554   3.853   2.092 -0.9731  1.3287 -0.6916
 9455SOL     OW28958   0.110   0.737   7.100 -0.1917 -0.0459  0.3631
 9455SOL    HW128959   0.018   0.754   7.118 -0.0047  0.0284  1.2410
 9455SOL    HW228960   0.153   0.823   7.111  0.0324 -0.1406  0.2501
 9456SOL     OW28961   6.920   1.755   0.852  0.1788 -0.4171  0.2000
 9456SOL    HW128962   6.925   1.768   0.758  1.9114  1.7934  0.5468
 9456SOL    HW228963   6.831   1.782   0.875  0.1926  0.3508 -0.6238
 9457SOL     OW28964   6.686   1.010   0.659  0.6740 -0.3215  0.2630
 9457SOL    HW128965   6.662   1.102   0.670  2.0208  0.0728 -0.0354
 9457SOL    HW228966   6.611   0.971   0.614  0.4263  0.8022 -0.3146
 9458SOL     OW28967   2.655   0.874   4.497  0.1176  0.5636  0.5114
 9458SOL    HW128968   2.651   0.785   4.462 -0.4228 -0.4463  3.0943
 9458SOL    HW228969   2.741   0.906   4.470 -0.1791 -0.2317 -1.5319
 9459SOL     OW28970   3.260   4.569   5.911  0.1417 -0.8708 -0.2800
 9459SOL    HW128971   3.277   4.583   6.004  0.6010 -0.6073 -0.4043
 9459SOL    HW228972   3.207   4.489   5.908  0.3568 -1.0320  0.1875
 9460SOL     OW28973   0.790   3.361   0.978  0.3347  0.4698 -0.4202
 9460SOL    HW128974   0.833   3.381   0.894  0.5051 -0.7168 -0.6315
 9460SOL    HW228975   0.723   3.428   0.987  0.4040  0.6922 -1.4439
 9461SOL     OW28976   2.135   4.067   4.631 -0.6054  0.6446  0.0698
 9461SOL    HW128977   2.116   4.149   4.584  0.9977  1.8195  1.3843
 9461SOL    HW228978   2.221   4.083   4.671 -1.1988 -0.9340  2.0239
 9462SOL     OW28979   2.418   6.769   5.793  0.8214 -0.2614 -0.0035
 9462SOL    HW128980   2.323   6.770   5.805  0.9445 -1.0252  1.1435
 9462SOL    HW228981   2.434   6.828   5.719 -0.4617  0.5932  0.3838
 9463SOL     OW28982   0.310   1.013   5.179 -0.0206  0.2437  0.2224
 9463SOL    HW128983   0.384   0.965   5.144 -0.8189  0.4048 -1.7603
 9463SOL    HW228984   0.255   0.946   5.221 -0.1359 -0.2989 -0.7746
 9464SOL     OW28985   6.516   6.517   6.724 -0.0776 -0.0645 -0.3321
 9464SOL    HW128986   6.451   6.572   6.767 -0.5399 -0.1894 -0.8513
 9464SOL    HW228987   6.464   6.445   6.686  0.5129 -0.8819  0.3782
 9465SOL     OW28988   5.847   3.155   0.562  0.3896  0.4443  0.3924
 9465SOL    HW128989   5.941   3.147   0.574  0.3374  2.2968  2.1301
 9465SOL    HW228990   5.813   3.067   0.580  1.5433  0.3390  2.1389
 9466SOL     OW28991   0.366   5.135   6.725  0.9916 -0.4426 -0.1736
 9466SOL    HW128992   0.304   5.087   6.670 -0.1929  0.8536  0.0079
 9466SOL    HW228993   0.329   5.130   6.813  1.3196  0.0468 -0.0063
 9467SOL     OW28994   0.493   2.350   6.938  0.2311 -0.5283 -0.4373
 9467SOL    HW128995   0.458   2.295   7.009  0.0353 -1.2967 -1.1246
 9467SOL    HW228996   0.544   2.418   6.984 -0.2034 -0.7893  0.4574
 9468SOL     OW28997   0.779   1.209   6.483 -0.1351 -0.1678 -0.4484
 9468SOL    HW128998   0.868   1.245   6.489 -0.0983 -0.5032  1.3074
 9468SOL    HW228999   0.726   1.267   6.538 -0.8555 -0.4395 -0.8473
 9469SOL     OW29000   1.955   3.612   5.206  0.2215  0.7851 -0.0516
 9469SOL    HW129001   2.002   3.540   5.248  1.7708  2.0138  0.3578
 9469SOL    HW229002   1.912   3.572   5.130 -1.2561 -1.1434  1.7327
 9470SOL     OW29003   3.279   4.471   4.488  0.1637 -0.0316  0.0805
 9470SOL    HW129004   3.334   4.403   4.450 -0.1361  0.9090 -2.1213
 9470SOL    HW229005   3.224   4.501   4.415 -2.2732  0.0318  1.8723
 9471SOL     OW29006   5.121   6.569   6.926 -0.3456  0.2948  0.4130
 9471SOL    HW129007   5.065   6.494   6.943 -0.9772  0.4498 -0.9688
 9471SOL    HW229008   5.201   6.551   6.976 -0.2316 -1.5832 -0.4008
 9472SOL     OW29009   7.219   1.960   5.794  0.1329  0.3082  0.7487
 9472SOL    HW129010   7.210   2.010   5.713 -1.1589 -0.3177  0.4953
 9472SOL    HW229011   7.251   1.874   5.766 -2.0904 -0.5189  0.6987
 9473SOL     OW29012   6.385   1.526   0.660  0.5398 -0.3825 -0.3850
 9473SOL    HW129013   6.326   1.589   0.619 -0.3757 -1.3500 -0.5922
 9473SOL    HW229014   6.375   1.542   0.754  2.0506  1.3065 -0.5015
 9474SOL     OW29015   6.233   0.566   5.834 -0.1359 -0.5807 -0.2296
 9474SOL    HW129016   6.149   0.601   5.863  0.0937 -0.3846  0.2256
 9474SOL    HW229017   6.216   0.475   5.813 -0.2785 -0.7813  0.7198
 9475SOL     OW29018   4.115   1.439   2.730 -0.2752 -0.0155  0.0413
 9475SOL    HW129019   4.100   1.526   2.768 -0.6001  1.1238 -2.5952
 9475SOL    HW229020   4.110   1.380   2.805  0.7160  2.2945  2.0109
 9476SOL     OW29021   0.340   2.705   6.412 -0.7300 -0.1094  0.5486
 9476SOL    HW129022   0.383   2.693   6.496  0.5512 -1.2089 -0.2317
 9476SOL    HW229023   0.407   2.745   6.356 -0.6255 -1.9934 -0.7317
 9477SOL     OW29024   6.632   0.359   3.518  0.6690  0.4208 -0.1096
 9477SOL    HW129025   6.549   0.322   3.486  1.6291 -0.1325 -2.0316
 9477SOL    HW229026   6.619   0.366   3.612 -1.4102 -0.0898 -0.3128
 9478SOL     OW29027   4.491   0.927   6.030  0.2786 -0.1810  0.4471
 9478SOL    HW129028   4.455   0.958   6.113  0.3419 -0.1075  0.4477
 9478SOL    HW229029   4.582   0.955   6.031  0.0804  0.4929  0.0240
 9479SOL     OW29030   7.240   4.370   3.492 -0.2418 -0.3869  0.4144
 9479SOL    HW129031   7.181   4.294   3.488 -0.6369 -0.0929  0.5929
 9479SOL    HW229032   7.302   4.348   3.561 -1.0751 -0.0436  1.2891
 9480SOL     OW29033   4.753   1.329   3.002  0.8568 -0.1425 -0.0761
 9480SOL    HW129034   4.716   1.415   3.023  1.1331 -0.0268 -0.0613
 9480SOL    HW229035   4.728   1.314   2.911 -0.9137 -0.9427  0.5262
 9481SOL     OW29036   1.955   0.490   4.328  0.3628  0.0852 -0.4309
 9481SOL    HW129037   1.991   0.450   4.249  1.2235  2.0257 -1.0574
 9481SOL    HW229038   1.907   0.567   4.296 -0.3043  0.2082  0.8357
 9482SOL     OW29039   0.153   5.120   3.859 -1.0586 -0.1206  0.0588
 9482SOL    HW129040   0.208   5.150   3.932 -0.4017 -1.1734  0.0078
 9482SOL    HW229041   0.177   5.177   3.786 -1.0726  0.3618  0.4317
 9483SOL     OW29042   2.787   2.286   6.331  0.5543  0.1010  0.5014
 9483SOL    HW129043   2.850   2.346   6.372 -0.0443  0.7793  0.4243
 9483SOL    HW229044   2.744   2.242   6.405  0.8376 -0.0822  0.5603
 9484SOL     OW29045   1.183   3.330   1.249 -0.3634  0.8688 -0.7777
 9484SOL    HW129046   1.103   3.363   1.208 -1.2667  0.7919  0.8872
 9484SOL    HW229047   1.154   3.254   1.299  1.3471 -1.2499 -2.8934
 9485SOL     OW29048   6.240   6.128   6.341 -0.1870  0.2995 -0.0644
 9485SOL    HW129049   6.220   6.073   6.416  3.8120  0.1441  0.9725
 9485SOL    HW229050   6.258   6.066   6.270 -0.5910  0.4050 -0.2658
 9486SOL     OW29051   3.473   1.753   0.924 -0.1940 -0.1667  0.1040
 9486SOL    HW129052   3.411   1.798   0.867  1.0774 -0.4714 -1.5380
 9486SOL    HW229053   3.428   1.673   0.951 -0.3687 -0.5708 -1.3878
 9487SOL     OW29054   5.864   5.290   2.923 -0.3920 -0.1780  0.2115
 9487SOL    HW129055   5.849   5.196   2.932 -0.3198 -0.3369 -1.1646
 9487SOL    HW229056   5.781   5.330   2.949 -2.0762 -0.8678 -3.6754
 9488SOL     OW29057   5.156   2.595   4.545 -0.1541  0.3359  0.1853
 9488SOL    HW129058   5.068   2.568   4.516 -0.5240  0.8801  0.7833
 9488SOL    HW229059   5.141   2.633   4.632  0.5825  1.1042 -0.0272
 9489SOL     OW29060   5.930   6.532   7.037 -0.4033 -0.1958 -0.0830
 9489SOL    HW129061   5.854   6.474   7.031 -0.2892 -0.3572  0.0037
 9489SOL    HW229062   5.961   6.520   7.127  0.8843 -1.5996 -0.7007
 9490SOL     OW29063   1.855   1.017   4.871 -0.6068  0.4761 -0.0748
 9490SOL    HW129064   1.769   0.988   4.841 -0.5701  0.8117 -0.5118
 9490SOL    HW229065   1.839   1.051   4.959 -0.4697 -1.8172  0.8730
 9491SOL     OW29066   5.976   6.402   3.415  0.1592  0.4036  0.2828
 9491SOL    HW129067   5.998   6.494   3.430 -0.8924  0.6291  0.5392
 9491SOL    HW229068   5.974   6.394   3.320 -0.4452  0.8383  0.2494
 9492SOL     OW29069   1.958   1.051   3.708 -0.1281  0.0234 -0.1364
 9492SOL    HW129070   1.974   1.009   3.792 -0.9775  1.1626  0.6059
 9492SOL    HW229071   1.868   1.084   3.714  1.1527  3.6852  0.0433
 9493SOL     OW29072   1.264   0.335   2.466  0.2014 -0.0138  0.0306
 9493SOL    HW129073   1.300   0.341   2.377 -0.9416  2.1670 -0.3060
 9493SOL    HW229074   1.341   0.335   2.523  0.9075 -0.3959 -0.9028
 9494SOL     OW29075   0.890   3.328   1.452 -0.3488  0.5273 -0.1701
 9494SOL    HW129076   0.950   3.269   1.407  0.2643  0.0253  1.2717
 9494SOL    HW229077   0.946   3.389   1.500 -0.9871  0.8410  0.1933
 9495SOL     OW29078   0.442   7.020   1.468  0.5226 -0.1028  0.2202
 9495SOL    HW129079   0.407   6.979   1.546  0.8173 -0.8678 -0.0485
 9495SOL    HW229080   0.419   6.961   1.397  0.2570  0.5861 -0.2758
 9496SOL     OW29081   0.504   6.094   6.599 -0.2875  0.5688 -0.6664
 9496SOL    HW129082   0.469   6.033   6.534  1.5246  0.4844 -1.5810
 9496SOL    HW229083   0.463   6.178   6.578 -0.5232  0.3042 -1.2552
 9497SOL     OW29084   3.139   4.846   1.736  0.0360  0.1451 -0.0666
 9497SOL    HW129085   3.234   4.854   1.720  0.1688  0.2961  0.7488
 9497SOL    HW229086   3.117   4.759   1.705  0.3321  0.3192 -0.7882
 9498SOL     OW29087   6.710   6.128   4.336  0.6134 -0.3266 -0.3327
 9498SOL    HW129088   6.671   6.215   4.332  0.7078 -0.2109  0.9579
 9498SOL    HW229089   6.635   6.068   4.337  0.5066 -0.1844  0.3690
 9499SOL     OW29090   0.074   2.621   2.036 -0.6294 -0.0897  0.3841
 9499SOL    HW129091   0.053   2.593   2.125 -0.3481  1.8834  1.1054
 9499SOL    HW229092   0.051   2.546   1.981 -0.6766 -1.3870  2.1220
 9500SOL     OW29093   5.940   3.053   2.093 -0.6185 -0.3701 -0.1010
 9500SOL    HW129094   5.910   3.109   2.022 -0.7287 -0.2780  0.0182
 9500SOL    HW229095   5.998   2.990   2.051  0.7276  0.7775 -0.0062
 9501SOL     OW29096   1.913   0.792   6.865 -0.2241 -0.4075 -0.2911
 9501SOL    HW129097   2.001   0.816   6.836  0.0630 -0.0758  0.8468
 9501SOL    HW229098   1.926   0.737   6.942 -1.0078 -0.5484 -0.2507
 9502SOL     OW29099   4.018   5.368   3.938 -0.3062  0.0948 -0.0196
 9502SOL    HW129100   4.103   5.330   3.918  1.6662  3.4659  1.4924
 9502SOL    HW229101   4.001   5.430   3.868 -0.9970  0.2335  0.2608
 9503SOL     OW29102   4.457   4.002   4.387  0.5182 -0.0654 -0.3998
 9503SOL    HW129103   4.431   3.964   4.471 -0.8271 -0.4484 -0.9854
 9503SOL    HW229104   4.465   4.095   4.405  2.3018 -0.3871  0.6611
 9504SOL     OW29105   4.714   0.616   6.267  0.4886 -0.4414  0.1386
 9504SOL    HW129106   4.791   0.615   6.323  1.5005 -0.6891 -1.2247
 9504SOL    HW229107   4.702   0.525   6.241 -1.0160 -0.6054  1.3192
 9505SOL     OW29108   1.050   1.755   4.611 -0.2220 -0.5497 -0.0937
 9505SOL    HW129109   0.963   1.794   4.606  0.1453  0.2418 -0.5313
 9505SOL    HW229110   1.103   1.820   4.658  0.4051 -0.4905 -0.8662
 9506SOL     OW29111   6.635   5.630   1.029  0.2424  0.0696  0.6935
 9506SOL    HW129112   6.632   5.721   1.001 -1.0058  0.2886  1.4699
 9506SOL    HW229113   6.718   5.621   1.076  1.8027 -0.0024 -1.9808
 9507SOL     OW29114   1.529   6.529   4.908  0.3358 -0.1942  0.7029
 9507SOL    HW129115   1.569   6.504   4.825  0.0121 -0.5153  0.6414
 9507SOL    HW229116   1.471   6.602   4.886  1.4219  0.7386  0.9127
 9508SOL     OW29117   4.585   3.407   2.570  0.1840  0.1488  0.2519
 9508SOL    HW129118   4.599   3.324   2.524  1.4521 -0.0019  0.9116
 9508SOL    HW229119   4.662   3.459   2.550 -0.1843  0.8294  0.5987
 9509SOL     OW29120   6.181   7.185   2.334 -0.3366  0.7592 -0.2341
 9509SOL    HW129121   6.187   7.264   2.387  1.1379  1.6812 -1.7148
 9509SOL    HW229122   6.089   7.180   2.308 -0.4418  1.9704 -0.1002
 9510SOL     OW29123   1.404   0.925   0.640 -0.3123  0.0863 -0.0325
 9510SOL    HW129124   1.495   0.904   0.662 -0.8147 -4.2017 -1.7499
 9510SOL    HW229125   1.361   0.937   0.725  1.5314  0.9469  0.8135
 9511SOL     OW29126   0.769   4.954   3.520 -0.7359  0.4001  0.0415
 9511SOL    HW129127   0.818   4.873   3.511 -0.5642  0.5427 -0.3097
 9511SOL    HW229128   0.751   4.982   3.430  1.4011  2.0748  0.0876
 9512SOL     OW29129   2.515   2.827   1.458 -0.2352  0.4678  0.3665
 9512SOL    HW129130   2.560   2.745   1.436 -1.4076 -0.0995 -0.0110
 9512SOL    HW229131   2.473   2.809   1.543  0.0829  0.9151  0.6178
 9513SOL     OW29132   6.618   0.180   1.163  0.0751 -0.0426  0.6718
 9513SOL    HW129133   6.628   0.194   1.257  0.5515 -2.1438  0.9561
 9513SOL    HW229134   6.704   0.151   1.133 -0.3579 -0.4845 -0.1852
 9514SOL     OW29135   4.191   2.272   2.661  0.6928 -0.3594 -0.2708
 9514SOL    HW129136   4.258   2.287   2.594  0.1759 -1.4029 -1.0264
 9514SOL    HW229137   4.187   2.177   2.671  0.4304 -0.2318  0.9104
 9515SOL     OW29138   1.166   2.311   5.523 -0.1605  0.2322  0.0032
 9515SOL    HW129139   1.094   2.318   5.586 -2.4712  0.4418 -2.5819
 9515SOL    HW229140   1.204   2.225   5.539 -1.4575 -0.1821  0.8817
 9516SOL     OW29141   0.752   1.647   5.605  0.3573  0.0873  0.4200
 9516SOL    HW129142   0.773   1.593   5.529 -0.7355  1.0737 -0.6089
 9516SOL    HW229143   0.665   1.617   5.632 -0.0014  0.9236  0.2053
 9517SOL     OW29144   0.256   2.302   2.123  0.3167 -0.4841  0.3671
 9517SOL    HW129145   0.303   2.385   2.137  2.7619 -1.3275 -2.2078
 9517SOL    HW229146   0.189   2.324   2.059  0.0910 -0.2058  0.6964
 9518SOL     OW29147   0.025   4.531   5.829 -0.0693  0.4855  0.0651
 9518SOL    HW129148   0.024   4.578   5.745 -0.8243 -0.8061 -0.6623
 9518SOL    HW229149   0.072   4.450   5.810 -0.7489 -0.0734  0.7287
 9519SOL     OW29150   1.599   3.181   1.500 -0.0324  0.0135  0.0738
 9519SOL    HW129151   1.514   3.223   1.513 -1.0420 -1.6408 -1.0975
 9519SOL    HW229152   1.620   3.144   1.586  0.4561  2.0938  0.8886
 9520SOL     OW29153   2.686   3.140   0.015 -0.1671  0.4531  0.3412
 9520SOL    HW129154   2.597   3.106   0.008  0.8793 -1.9710 -2.2811
 9520SOL    HW229155   2.715   3.151  -0.075  1.4426  3.3832  1.1584
 9521SOL     OW29156   1.940   0.686   2.826 -0.3579 -0.0157 -0.3967
 9521SOL    HW129157   1.996   0.691   2.904  0.1059 -1.9913 -0.5923
 9521SOL    HW229158   1.999   0.710   2.754 -0.0510 -0.9763 -0.4685
 9522SOL     OW29159   1.269   6.561   5.685  0.7035  0.8094  0.2981
 9522SOL    HW129160   1.260   6.495   5.617 -2.6311  0.7025  0.7339
 9522SOL    HW229161   1.210   6.531   5.755  1.3680  2.7226  1.7302
 9523SOL     OW29162   6.827   6.947   0.763 -0.0876 -0.4120  0.0777
 9523SOL    HW129163   6.868   6.941   0.677 -2.0083  0.5597 -0.9356
 9523SOL    HW229164   6.850   7.035   0.794  0.2684 -0.6133  0.3930
 9524SOL     OW29165   5.061   1.284   5.800 -0.6260 -0.3149 -0.3514
 9524SOL    HW129166   5.013   1.285   5.717  0.0726  0.7445 -0.7439
 9524SOL    HW229167   5.082   1.191   5.814  0.4967 -0.3505 -2.0859
 9525SOL     OW29168   0.142   4.823   2.081 -0.1173  0.1908  0.1352
 9525SOL    HW129169   0.172   4.805   2.170  0.6303  3.2439  0.5479
 9525SOL    HW229170   0.182   4.754   2.028  0.0829 -1.1834  2.0378
 9526SOL     OW29171   4.404   3.836   2.898 -0.0272 -0.5867  0.5113
 9526SOL    HW129172   4.316   3.874   2.903  0.1041 -0.0682 -0.8832
 9526SOL    HW229173   4.394   3.747   2.930 -0.4899  0.3570  3.1817
 9527SOL     OW29174   3.360   6.815   5.399 -0.0717 -0.4139 -0.1283
 9527SOL    HW129175   3.333   6.818   5.490 -0.9419 -0.7730 -0.3749
 9527SOL    HW229176   3.300   6.753   5.357 -0.2997  0.4687 -1.1493
 9528SOL     OW29177   5.580   5.259   0.861  0.3534 -0.5430 -0.2866
 9528SOL    HW129178   5.607   5.168   0.858 -0.5749 -0.7963 -4.3050
 9528SOL    HW229179   5.637   5.299   0.926  1.4131 -3.7731  0.8587
 9529SOL     OW29180   4.228   3.538   0.920 -0.2509 -0.6809  0.7783
 9529SOL    HW129181   4.140   3.575   0.919 -0.7759 -1.9032 -0.4991
 9529SOL    HW229182   4.255   3.541   1.011 -1.8610 -0.8451  1.2730
 9530SOL     OW29183   4.327   5.819   0.587  0.3025 -0.3854  0.3481
 9530SOL    HW129184   4.304   5.811   0.679 -1.9474 -0.6713 -0.2292
 9530SOL    HW229185   4.401   5.759   0.576  0.0880 -0.9340  1.7820
 9531SOL     OW29186   7.088   0.066   0.488 -0.0939  0.3032  0.1599
 9531SOL    HW129187   7.077   0.139   0.428 -1.8822  0.4758  0.6864
 9531SOL    HW229188   7.102   0.107   0.574  0.5832  0.0352  0.1838
 9532SOL     OW29189   4.805   6.189   6.744 -0.4680  0.6516  0.0546
 9532SOL    HW129190   4.764   6.275   6.751 -1.0384  0.4185 -0.4487
 9532SOL    HW229191   4.884   6.195   6.799 -2.0315  0.5751  2.3617
 9533SOL     OW29192   6.630   0.443   2.359  0.6711  0.9841 -0.5346
 9533SOL    HW129193   6.540   0.469   2.381  0.2940  0.8917 -1.9003
 9533SOL    HW229194   6.632   0.349   2.376 -0.0606  0.6331 -2.2366
 9534SOL     OW29195   1.183   2.254   3.576 -1.0376 -0.5637  0.4616
 9534SOL    HW129196   1.165   2.168   3.616  1.7079 -1.2408  0.3153
 9534SOL    HW229197   1.277   2.253   3.559 -1.2409  1.9070 -0.9511
 9535SOL     OW29198   2.906   4.377   1.486  1.0062  0.4371 -0.2117
 9535SOL    HW129199   2.866   4.415   1.408 -1.8585 -1.0765  0.4589
 9535SOL    HW229200   2.983   4.330   1.454  0.3450  0.5488 -1.9813
 9536SOL     OW29201   4.680   1.870   4.071 -0.1098 -0.0573 -0.0409
 9536SOL    HW129202   4.654   1.888   3.981 -0.3389 -0.5484 -0.0772
 9536SOL    HW229203   4.698   1.776   4.072  1.2507  0.1932  0.0842
 9537SOL     OW29204   7.223   2.092   1.053  0.0540  0.4527  0.0312
 9537SOL    HW129205   7.311   2.129   1.056 -0.1147  0.8443  0.0788
 9537SOL    HW229206   7.213   2.060   0.963  0.1716  0.5771 -0.0254
 9538SOL     OW29207   6.294   6.006   7.166  0.2975 -0.0462 -0.2296
 9538SOL    HW129208   6.270   6.086   7.212  0.2365  0.3406 -0.9413
 9538SOL    HW229209   6.361   6.033   7.103  0.3700 -0.5766 -0.3864
 9539SOL     OW29210   3.809   0.725   3.865  0.3740  0.3295  0.3684
 9539SOL    HW129211   3.851   0.808   3.887 -0.1110  0.3329  1.2880
 9539SOL    HW229212   3.819   0.718   3.769 -0.7859  2.0931  0.1060
 9540SOL     OW29213   6.532   0.359   6.695 -1.2268  0.0717 -0.6067
 9540SOL    HW129214   6.492   0.444   6.711  0.5707  1.3414 -2.6947
 9540SOL    HW229215   6.516   0.341   6.603 -1.1997 -1.6467 -0.2939
 9541SOL     OW29216   4.361   1.235   1.190  0.1264  0.0091 -0.0474
 9541SOL    HW129217   4.421   1.161   1.178  0.0695 -0.3721  1.8341
 9541SOL    HW229218   4.336   1.231   1.282  0.5636  2.7075  0.2396
 9542SOL     OW29219   1.835   3.787   5.393 -0.8785  0.6843  0.2412
 9542SOL    HW129220   1.910   3.738   5.359 -1.2924 -0.1474  0.5257
 9542SOL    HW229221   1.835   3.770   5.487 -0.8662  1.4526  0.3846
 9543SOL     OW29222   4.157   3.953   5.598  0.2096  0.7416  0.1547
 9543SOL    HW129223   4.168   3.897   5.521  0.2979 -0.4574  1.0204
 9543SOL    HW229224   4.099   4.023   5.569 -0.2314 -0.0253 -0.8411
 9544SOL     OW29225   4.234   5.357   5.801 -0.4772 -0.1025 -0.0887
 9544SOL    HW129226   4.279   5.278   5.770  0.4192  0.2908  0.1829
 9544SOL    HW229227   4.305   5.415   5.830 -0.9278  1.8489 -2.7005
 9545SOL     OW29228   6.539   3.296   0.313  0.5664  0.2103  0.1931
 9545SOL    HW129229   6.600   3.369   0.315  0.2504  0.5146 -1.1892
 9545SOL    HW229230   6.477   3.315   0.384  0.9811  0.8360  0.3884
 9546SOL     OW29231   3.600   2.372   3.561  0.5388  0.1639 -0.1590
 9546SOL    HW129232   3.597   2.282   3.591  0.7248 -0.4008 -1.7410
 9546SOL    HW229233   3.688   2.403   3.585  1.5302 -1.0190 -2.0848
 9547SOL     OW29234   6.094   6.894   0.950 -0.0849 -0.0786 -0.1562
 9547SOL    HW129235   6.124   6.824   0.893 -0.5010  0.2834 -0.8184
 9547SOL    HW229236   6.025   6.938   0.901 -1.2556 -0.4861  1.0757
 9548SOL     OW29237   1.978   2.642   0.555  0.0988  0.5267 -0.4222
 9548SOL    HW129238   2.063   2.621   0.592 -0.7974 -0.7341  0.9788
 9548SOL    HW229239   1.971   2.737   0.563 -0.6872  0.1924  4.1500
 9549SOL     OW29240   1.689   5.726   1.033 -0.3537  0.2117 -0.0489
 9549SOL    HW129241   1.757   5.785   1.000  0.2750  0.2626  1.3105
 9549SOL    HW229242   1.710   5.641   0.995  0.7337  0.1353  0.7218
 9550SOL     OW29243   6.662   1.949   0.724  0.0332  0.2379  0.0428
 9550SOL    HW129244   6.639   1.949   0.817  1.3949  1.2423  0.3917
 9550SOL    HW229245   6.590   1.903   0.681 -1.9212  2.0872  1.2667
 9551SOL     OW29246   5.783   3.589   2.045  0.3185  0.1851  0.1129
 9551SOL    HW129247   5.810   3.672   2.006  1.5295  0.0570  0.6643
 9551SOL    HW229248   5.862   3.555   2.087 -0.2407 -1.1073  0.1442
 9552SOL     OW29249   6.601   0.728   1.369  0.2495 -0.1725 -0.2999
 9552SOL    HW129250   6.644   0.795   1.316  0.8656 -1.4228 -1.3853
 9552SOL    HW229251   6.581   0.773   1.452  2.3717  0.8372 -0.2943
 9553SOL     OW29252   2.726   6.994   5.042 -0.5886 -0.0319 -0.0852
 9553SOL    HW129253   2.737   7.033   5.128 -1.2016 -3.6569  1.7310
 9553SOL    HW229254   2.809   7.008   4.998  0.2250  0.6182  1.6241
 9554SOL     OW29255   1.792   1.265   2.920 -0.1997  0.4909 -0.1269
 9554SOL    HW129256   1.845   1.188   2.897 -0.7397  0.1519 -0.2533
 9554SOL    HW229257   1.720   1.264   2.857 -0.3328  0.9760  0.0165
 9555SOL     OW29258   0.662   4.449   0.759  0.1561 -0.3981 -0.0272
 9555SOL    HW129259   0.672   4.492   0.674  2.9611 -1.7144 -0.4187
 9555SOL    HW229260   0.589   4.388   0.748 -0.1911  0.2096 -1.1477
 9556SOL     OW29261   0.308   1.167   3.322  0.5144 -0.0235  0.2152
 9556SOL    HW129262   0.260   1.250   3.328  1.1732  0.3788  0.0556
 9556SOL    HW229263   0.270   1.112   3.390 -0.3759  0.1793 -0.1143
 9557SOL     OW29264   5.053   2.078   0.285 -0.5473  0.8746  0.8214
 9557SOL    HW129265   5.120   2.077   0.217  0.0536  0.2660  1.4128
 9557SOL    HW229266   5.050   2.170   0.314 -1.8435  1.4369 -1.0174
 9558SOL     OW29267   3.547   4.934   3.447 -0.6467  0.1057 -0.1662
 9558SOL    HW129268   3.615   4.904   3.386 -0.4041  0.2293  0.0410
 9558SOL    HW229269   3.465   4.917   3.401 -0.4824 -0.1958 -0.3516
 9559SOL     OW29270   6.795   5.513   0.381 -0.2736 -0.1184  0.1461
 9559SOL    HW129271   6.781   5.607   0.394 -0.6997  0.2171 -2.4667
 9559SOL    HW229272   6.877   5.508   0.332 -1.1358 -0.9929 -1.2328
 9560SOL     OW29273   3.677   7.004   6.597 -0.0121 -0.1438 -0.0503
 9560SOL    HW129274   3.609   6.948   6.562 -1.6198  1.6865  0.0822
 9560SOL    HW229275   3.732   6.945   6.649 -1.0904 -1.7548 -0.6996
 9561SOL     OW29276   6.249   6.047   1.487 -0.1666 -0.1003 -0.1064
 9561SOL    HW129277   6.239   6.121   1.427  1.3396 -0.8702 -1.3223
 9561SOL    HW229278   6.247   5.970   1.430 -0.0364 -0.9172  0.9848
 9562SOL     OW29279   5.249   4.460   5.690 -0.0048 -0.0646 -0.0267
 9562SOL    HW129280   5.217   4.502   5.610 -0.7755 -0.2137  0.2074
 9562SOL    HW229281   5.172   4.452   5.746  0.3720 -0.7189  0.4013
 9563SOL     OW29282   2.170   1.993   0.750 -0.1822  0.3903 -0.4013
 9563SOL    HW129283   2.165   1.908   0.707  0.4821  1.4114 -2.5346
 9563SOL    HW229284   2.086   2.002   0.795  0.0375 -1.7066  0.4993
 9564SOL     OW29285   1.124   3.429   5.848 -0.1155 -0.2678  0.1697
 9564SOL    HW129286   1.176   3.375   5.788  1.0306  1.5031 -0.5056
 9564SOL    HW229287   1.153   3.404   5.935 -1.9974 -3.0775  0.0215
 9565SOL     OW29288   1.662   6.536   4.283  0.1064  0.0022  0.4420
 9565SOL    HW129289   1.678   6.560   4.374  1.6709 -1.0019  0.4424
 9565SOL    HW229290   1.749   6.533   4.243 -0.6972  2.1006 -1.5188
 9566SOL     OW29291   6.313   6.430   4.738  0.1391  0.4712  0.3205
 9566SOL    HW129292   6.334   6.359   4.800 -0.1026 -0.0599 -0.1984
 9566SOL    HW229293   6.223   6.411   4.711  0.5762  0.1473 -0.9327
 9567SOL     OW29294   3.132   4.595   4.293  0.7098  0.0053 -0.0255
 9567SOL    HW129295   3.167   4.671   4.339  0.8703 -0.0510 -0.0537
 9567SOL    HW229296   3.180   4.593   4.210  0.8161 -0.2176  0.0422
 9568SOL     OW29297   3.246   3.638   1.480 -0.0309  0.3395 -0.2161
 9568SOL    HW129298   3.313   3.706   1.476 -1.0611  1.4877  1.3549
 9568SOL    HW229299   3.295   3.556   1.488  1.1871  1.0904  0.1096
 9569SOL     OW29300   3.010   4.694   0.884 -0.5655  0.0721 -0.0174
 9569SOL    HW129301   2.951   4.679   0.811  1.7642  0.5155 -2.0786
 9569SOL    HW229302   3.069   4.619   0.883 -2.0175 -1.1886  3.0187
 9570SOL     OW29303   2.660   1.041   0.783 -0.1470 -0.0939 -0.4671
 9570SOL    HW129304   2.645   1.020   0.876  0.1425 -2.1059 -0.8638
 9570SOL    HW229305   2.755   1.049   0.776 -0.1603 -0.0906 -0.6283
 9571SOL     OW29306   1.251   0.959   6.641  0.5475 -0.3187 -0.2581
 9571SOL    HW129307   1.237   0.901   6.566 -0.1179 -3.4599  2.2139
 9571SOL    HW229308   1.164   0.995   6.659 -0.2511 -3.1821  1.8316
 9572SOL     OW29309   6.863   5.333   6.524  0.2037 -0.0985 -0.0303
 9572SOL    HW129310   6.862   5.290   6.439  0.6006 -0.2563  0.0429
 9572SOL    HW229311   6.850   5.262   6.587  2.1045 -0.3019  0.1633
 9573SOL     OW29312   4.914   5.138   2.180 -0.4119  0.4329 -0.0092
 9573SOL    HW129313   4.938   5.179   2.263  1.2957  0.3798 -0.4774
 9573SOL    HW229314   4.917   5.209   2.116 -0.3073  0.1748 -0.2930
 9574SOL     OW29315   5.110   6.987   3.828 -0.0602 -0.3684 -0.2470
 9574SOL    HW129316   5.162   6.921   3.874  0.4044  1.0851  1.3705
 9574SOL    HW229317   5.170   7.061   3.817 -1.0681  0.4053 -0.5616
 9575SOL     OW29318   1.328   2.629   6.444  0.3645  0.1130  0.7050
 9575SOL    HW129319   1.337   2.724   6.440 -1.5562  0.2453 -1.3656
 9575SOL    HW229320   1.338   2.600   6.353 -1.0188 -1.4555  1.0232
 9576SOL     OW29321   5.004   2.619   6.311 -0.5295  0.1535 -0.0005
 9576SOL    HW129322   5.100   2.625   6.308 -0.4523 -0.5269  0.9761
 9576SOL    HW229323   4.979   2.590   6.223  0.1954 -0.0623 -0.1374
 9577SOL     OW29324   2.104   0.196   4.142  0.1068 -0.4569  0.0315
 9577SOL    HW129325   2.057   0.164   4.065 -0.8088  0.4489  0.1979
 9577SOL    HW229326   2.058   0.155   4.216  0.2883 -0.4595  0.1424
 9578SOL     OW29327   5.144   1.883   3.157 -0.0941 -0.4928 -0.4199
 9578SOL    HW129328   5.142   1.917   3.246  0.1523 -1.0032 -0.2213
 9578SOL    HW229329   5.224   1.920   3.119 -0.4486  0.1110 -0.5833
 9579SOL     OW29330   2.817   0.132   0.630  0.1928 -0.1659 -0.0350
 9579SOL    HW129331   2.853   0.144   0.542 -0.2707  1.8722  0.0322
 9579SOL    HW229332   2.839   0.213   0.676 -0.5584 -0.7512  1.3917
 9580SOL     OW29333   3.997   2.403   5.805 -0.4294 -0.9076  0.4946
 9580SOL    HW129334   3.992   2.477   5.745 -2.0813 -1.4391 -0.0539
 9580SOL    HW229335   4.086   2.407   5.841  0.3974 -0.2287 -1.5301
 9581SOL     OW29336   5.115   3.352   4.931 -0.1299  0.0175 -0.0288
 9581SOL    HW129337   5.130   3.369   5.024  0.8876  1.4355 -0.4287
 9581SOL    HW229338   5.081   3.263   4.928  0.3903 -0.2589  1.6524
 9582SOL     OW29339   0.810   1.506   0.031 -0.0759  0.0562  0.2665
 9582SOL    HW129340   0.770   1.448  -0.034  0.5815  0.1433 -0.2209
 9582SOL    HW229341   0.797   1.594  -0.003  0.5699  0.0824  0.0833
 9583SOL     OW29342   6.130   0.649   3.123  0.3045  0.1611  0.6089
 9583SOL    HW129343   6.089   0.618   3.042 -1.3056 -1.0633  1.8935
 9583SOL    HW229344   6.086   0.602   3.193  3.5718 -0.8593  2.0763
 9584SOL     OW29345   2.087   3.481   4.268  0.6163  0.5303 -0.7214
 9584SOL    HW129346   2.062   3.569   4.240  0.0251  1.1613  1.6439
 9584SOL    HW229347   2.005   3.437   4.288  0.9420 -0.3990 -1.3650
 9585SOL     OW29348   6.480   7.166   4.474 -0.3835 -0.2658  0.0586
 9585SOL    HW129349   6.434   7.085   4.450 -0.0355  0.1378 -2.0706
 9585SOL    HW229350   6.499   7.208   4.390 -0.5012  2.0012  1.1499
 9586SOL     OW29351   5.713   6.173   5.065 -0.0462  0.1533  0.3349
 9586SOL    HW129352   5.774   6.205   5.131  1.1071 -1.7563  0.2280
 9586SOL    HW229353   5.756   6.189   4.982 -0.0556 -0.4501  0.2130
 9587SOL     OW29354   0.932   6.908   4.956  0.1511 -0.2764 -0.3566
 9587SOL    HW129355   1.022   6.934   4.975 -0.2976  1.1518 -0.1411
 9587SOL    HW229356   0.931   6.813   4.968  1.1030 -0.0415  1.7918
 9588SOL     OW29357   7.142   0.928   6.478  0.2986 -0.0558 -0.4121
 9588SOL    HW129358   7.171   0.974   6.557  1.6820 -0.3629 -0.7367
 9588SOL    HW229359   7.203   0.955   6.410 -1.2166  0.6238 -1.5186
 9589SOL     OW29360   6.496   5.054   2.230 -0.0652  0.1215 -0.1562
 9589SOL    HW129361   6.559   5.099   2.174  2.9971 -1.6236  1.6911
 9589SOL    HW229362   6.449   4.994   2.172 -1.7844  3.1517 -1.9959
 9590SOL     OW29363   3.359   7.049   1.427  0.3264  0.2641  0.2925
 9590SOL    HW129364   3.291   7.117   1.422  0.9480  0.9910  1.4610
 9590SOL    HW229365   3.337   6.999   1.505  0.8228  0.1415  0.3521
 9591SOL     OW29366   7.034   1.801   0.512 -0.1615  0.3103  0.1777
 9591SOL    HW129367   6.991   1.885   0.525  0.4790  0.7425 -0.4939
 9591SOL    HW229368   7.118   1.810   0.558 -0.8513 -0.5981  1.6579
 9592SOL     OW29369   7.182   6.798   2.866 -0.2398 -0.1486  0.4268
 9592SOL    HW129370   7.194   6.872   2.806  2.0124 -1.2797 -0.5880
 9592SOL    HW229371   7.133   6.734   2.815 -1.8213  0.4615  1.1631
 9593SOL     OW29372   5.518   4.830   2.744 -1.0579  0.5415 -0.5601
 9593SOL    HW129373   5.519   4.739   2.774 -1.1914  0.3617 -1.0931
 9593SOL    HW229374   5.457   4.874   2.803  0.7396  0.8032  1.1515
 9594SOL     OW29375   5.033   0.619   1.355 -0.2776 -0.5171 -0.3603
 9594SOL    HW129376   5.033   0.668   1.437  0.0614 -0.7076 -0.2415
 9594SOL    HW229377   4.949   0.573   1.354 -0.3199 -0.4449 -0.1612
 9595SOL     OW29378   2.146   6.741   2.440 -0.4174 -0.9350 -0.1369
 9595SOL    HW129379   2.072   6.801   2.435 -1.0097 -1.5571  0.9054
 9595SOL    HW229380   2.134   6.681   2.367 -0.6624 -0.7294 -0.2652
 9596SOL     OW29381   6.519   3.180   2.799 -0.1880 -0.4575 -0.2184
 9596SOL    HW129382   6.546   3.247   2.862 -1.0995 -0.9803  0.7425
 9596SOL    HW229383   6.432   3.207   2.771  0.3098 -0.0954 -1.4645
 9597SOL     OW29384   5.657   3.215   1.579  0.4443  0.5942 -0.1229
 9597SOL    HW129385   5.693   3.169   1.503  1.3090 -0.9983  1.1916
 9597SOL    HW229386   5.730   3.268   1.611  0.3163  0.6860  0.0149
 9598SOL     OW29387   2.615   3.963   2.409 -0.1152 -0.1362 -0.6054
 9598SOL    HW129388   2.649   4.012   2.484  0.8420 -0.1688 -1.0093
 9598SOL    HW229389   2.601   3.875   2.443 -0.1476 -0.0284 -0.3354
 9599SOL     OW29390   1.312   3.127   1.675 -0.5050 -0.2520 -0.6876
 9599SOL    HW129391   1.337   3.214   1.644  0.6443 -0.0131  0.8326
 9599SOL    HW229392   1.393   3.088   1.705 -1.2685 -1.2376  0.1393
 9600SOL     OW29393   5.283   0.324   4.657  0.0344 -0.2959  0.3072
 9600SOL    HW129394   5.315   0.390   4.720  1.5208  0.8247 -1.5657
 9600SOL    HW229395   5.235   0.375   4.592  0.5396 -1.1502 -0.7514
 9601SOL     OW29396   0.896   4.626   5.077  0.4262  0.3740  0.0774
 9601SOL    HW129397   0.936   4.662   5.155 -1.2561 -0.0337  1.1657
 9601SOL    HW229398   0.932   4.538   5.069  0.3020  0.2771  0.6126
 9602SOL     OW29399   5.872   5.058   5.527 -0.4371 -0.5702 -0.0520
 9602SOL    HW129400   5.879   5.019   5.439  0.6785  2.0439 -1.1650
 9602SOL    HW229401   5.822   5.138   5.513  2.9105  1.7995  1.0155
 9603SOL     OW29402   0.552   4.857   5.355  0.1125  0.3522  0.1653
 9603SOL    HW129403   0.557   4.763   5.375  0.5394  0.3119 -0.1040
 9603SOL    HW229404   0.618   4.870   5.287  0.0678  0.8534  0.2157
 9604SOL     OW29405   4.881   3.443   4.177  0.1538 -0.2022  0.1542
 9604SOL    HW129406   4.946   3.374   4.172  0.5732  0.2044 -0.0370
 9604SOL    HW229407   4.903   3.502   4.105  1.4784  1.5817  1.9566
 9605SOL     OW29408   3.536   5.071   6.801 -0.2517 -0.3380  0.7696
 9605SOL    HW129409   3.568   5.058   6.890  0.0795 -1.1380  0.5379
 9605SOL    HW229410   3.485   4.993   6.782  0.1231 -0.4136  0.0603
 9606SOL     OW29411   3.500   7.000   1.196 -0.4215 -0.0535 -0.3023
 9606SOL    HW129412   3.586   6.968   1.222 -0.4533 -0.4390 -0.6668
 9606SOL    HW229413   3.449   7.000   1.277  0.4279  1.8398  0.2635
 9607SOL     OW29414   0.908   6.608   6.531 -0.2236 -0.1784  0.1125
 9607SOL    HW129415   0.951   6.631   6.613  0.1334 -1.5914  0.3337
 9607SOL    HW229416   0.910   6.689   6.479  1.7852  0.0539  0.5150
 9608SOL     OW29417   4.970   3.240   0.930  0.4699 -0.0354 -0.2357
 9608SOL    HW129418   4.978   3.334   0.911  1.0306 -0.3626 -1.6999
 9608SOL    HW229419   4.897   3.235   0.992 -0.5332  1.2460 -1.2577
 9609SOL     OW29420   6.388   0.107   5.873 -0.2942  0.2795 -0.4613
 9609SOL    HW129421   6.339   0.178   5.915 -0.3934  0.0700 -0.2169
 9609SOL    HW229422   6.446   0.150   5.811 -1.4896  0.4685 -1.4587
 9610SOL     OW29423   3.265   6.892   4.963 -0.3056  0.6586  0.2185
 9610SOL    HW129424   3.322   6.959   4.927 -1.3239  0.8431 -1.0826
 9610SOL    HW229425   3.293   6.811   4.919 -1.0728  0.7605 -0.4699
 9611SOL     OW29426   6.011   6.151   7.107 -0.5471  0.1832 -0.1775
 9611SOL    HW129427   5.946   6.184   7.170 -2.1273 -0.3609 -1.4766
 9611SOL    HW229428   6.079   6.218   7.106  0.3568 -0.5981  3.3450
 9612SOL     OW29429   3.005   3.343   5.855  0.1923 -0.2222 -0.3177
 9612SOL    HW129430   2.929   3.286   5.850  0.9172 -1.3427  1.2166
 9612SOL    HW229431   3.008   3.386   5.769 -3.2365  1.2748  0.2473
 9613SOL     OW29432   5.274   3.598   3.557  0.7405  0.2046 -0.0028
 9613SOL    HW129433   5.291   3.650   3.636 -2.1138  1.3759 -0.0914
 9613SOL    HW229434   5.282   3.661   3.485 -1.7894  0.3359 -0.1933
 9614SOL     OW29435   4.607   5.937   1.875  0.2235 -0.2138  0.2711
 9614SOL    HW129436   4.687   5.966   1.832 -0.3355  0.3334 -0.4294
 9614SOL    HW229437   4.631   5.924   1.967  0.8072  1.2464  0.3382
 9615SOL     OW29438   3.051   2.332   1.309  0.3791 -0.1971  0.1804
 9615SOL    HW129439   2.985   2.277   1.352  0.2011 -0.2694 -0.1887
 9615SOL    HW229440   3.122   2.338   1.374  0.3705 -0.8092  0.2518
 9616SOL     OW29441   6.585   0.623   6.991  0.1093  0.0795  0.2155
 9616SOL    HW129442   6.551   0.671   7.066  1.7317 -1.0419  1.7139
 9616SOL    HW229443   6.515   0.563   6.966 -0.3740  0.3471  0.9318
 9617SOL     OW29444   2.403   6.495   5.953  0.3031 -0.5434  0.1713
 9617SOL    HW129445   2.439   6.563   5.895 -2.5578 -2.3795 -3.9360
 9617SOL    HW229446   2.321   6.533   5.984 -0.9861 -1.7982 -1.6272
 9618SOL     OW29447   5.444   5.930   1.267  0.1749 -0.2021 -0.1325
 9618SOL    HW129448   5.449   6.013   1.314  3.2912  1.8208 -3.7753
 9618SOL    HW229449   5.531   5.891   1.276 -0.2502 -1.4597 -1.2452
 9619SOL     OW29450   0.506   1.351   0.721 -0.0021 -0.3481  0.5513
 9619SOL    HW129451   0.483   1.424   0.664 -1.5274 -1.9718 -1.0034
 9619SOL    HW229452   0.601   1.343   0.713  0.0727  0.9340  0.0935
 9620SOL     OW29453   6.687   3.029   0.290 -0.1268 -0.0042  0.1628
 9620SOL    HW129454   6.639   3.111   0.293 -0.7667 -0.4103  1.3395
 9620SOL    HW229455   6.670   2.988   0.374  3.6526  0.6121  1.3372
 9621SOL     OW29456   4.960   4.059   2.787 -0.5902  0.3851 -0.4283
 9621SOL    HW129457   4.942   3.968   2.809  1.6433 -0.3351 -1.4965
 9621SOL    HW229458   4.983   4.100   2.871 -0.5741 -0.2636 -0.1153
 9622SOL     OW29459   3.525   2.698   1.689 -0.0936 -0.2154  0.2558
 9622SOL    HW129460   3.507   2.763   1.621  1.4573 -0.2457 -0.1933
 9622SOL    HW229461   3.440   2.683   1.731 -0.6486  1.3407 -0.2973
 9623SOL     OW29462   5.532   0.283   3.953 -0.1961 -0.1814 -0.9301
 9623SOL    HW129463   5.570   0.299   4.040 -3.5680 -1.2898  0.8433
 9623SOL    HW229464   5.565   0.196   3.929 -1.3538 -1.0177  0.4514
 9624SOL     OW29465   6.102   1.356   4.399 -0.5136 -0.5425 -0.1846
 9624SOL    HW129466   6.028   1.328   4.345 -1.6422 -0.9387  1.5235
 9624SOL    HW229467   6.108   1.289   4.467  0.9796 -0.1376  0.0985
 9625SOL     OW29468   3.951   2.992   5.560  0.0501  0.0118  0.0823
 9625SOL    HW129469   3.946   2.978   5.655 -2.3119  2.1796  0.3238
 9625SOL    HW229470   4.014   3.063   5.550  1.1989 -1.0098 -0.0940
 9626SOL     OW29471   2.248   5.983   1.715 -0.1552 -0.3353 -0.4032
 9626SOL    HW129472   2.160   5.981   1.677 -0.2137  0.8396 -0.3288
 9626SOL    HW229473   2.288   5.901   1.686 -0.4114  0.2623 -2.5291
 9627SOL     OW29474   1.426   7.004   2.933  0.5944  0.4918  0.0623
 9627SOL    HW129475   1.450   7.094   2.954  0.2950  0.1069  2.1437
 9627SOL    HW229476   1.338   6.993   2.968  0.4511 -0.4962 -0.5512
 9628SOL     OW29477   6.439   2.724   6.958 -0.2021 -0.2901  0.0159
 9628SOL    HW129478   6.387   2.789   6.910 -0.4379  0.4909  1.3004
 9628SOL    HW229479   6.520   2.717   6.907  0.2239  1.7238  0.3485
 9629SOL     OW29480   5.895   1.436   0.787  0.6124  0.6025 -0.0472
 9629SOL    HW129481   5.837   1.399   0.854  0.3995 -0.1331 -0.6243
 9629SOL    HW229482   5.942   1.360   0.752 -2.8870  0.2024 -4.2310
 9630SOL     OW29483   5.135   3.728   1.360 -0.4073  0.2261 -0.2344
 9630SOL    HW129484   5.059   3.681   1.393 -0.0986 -0.4784 -0.5305
 9630SOL    HW229485   5.207   3.704   1.418 -0.0943 -0.2106 -0.8025
 9631SOL     OW29486   4.216   5.687   4.746 -0.0152 -0.5997  0.0192
 9631SOL    HW129487   4.139   5.632   4.732 -0.0785 -1.4600  3.4624
 9631SOL    HW229488   4.289   5.625   4.751  0.2937 -0.1452  1.1721
 9632SOL     OW29489   5.592   3.637   5.357 -0.2449  0.4220  0.0650
 9632SOL    HW129490   5.634   3.721   5.375  2.4732 -1.1571  1.4708
 9632SOL    HW229491   5.601   3.588   5.438 -1.7355 -1.2728 -0.7669
 9633SOL     OW29492   2.248   1.654   5.711 -0.2004 -0.1852 -0.6812
 9633SOL    HW129493   2.190   1.630   5.783  0.6904 -0.4410 -0.0455
 9633SOL    HW229494   2.267   1.747   5.725 -0.0911 -0.2148 -0.6337
 9634SOL     OW29495   4.361   1.492   0.313  0.1122  0.4749  0.4402
 9634SOL    HW129496   4.271   1.459   0.304  0.1158  0.5734  0.0237
 9634SOL    HW229497   4.389   1.509   0.223  0.6178  0.2619  0.5530
 9635SOL     OW29498   4.495   4.199   0.429 -0.2475  0.0166 -0.7874
 9635SOL    HW129499   4.426   4.134   0.445 -0.0655  0.4147  1.7552
 9635SOL    HW229500   4.574   4.146   0.416  0.0114 -0.3227  1.8290
 9636SOL     OW29501   6.808   3.135   4.752  0.1317  0.7086  0.0231
 9636SOL    HW129502   6.744   3.111   4.819  0.8475 -0.8984  0.1524
 9636SOL    HW229503   6.805   3.063   4.689  1.0406  1.1627 -0.5455
 9637SOL     OW29504   0.544   6.372   0.207  0.1056 -0.7616  0.1152
 9637SOL    HW129505   0.512   6.302   0.151  1.2137 -1.6341  0.5644
 9637SOL    HW229506   0.467   6.400   0.257 -0.3689 -1.5479 -0.1759
 9638SOL     OW29507   3.355   7.024   4.033 -0.1661 -0.2394  0.2558
 9638SOL    HW129508   3.294   7.098   4.029  0.7820  0.6399  1.5579
 9638SOL    HW229509   3.370   7.000   3.942 -1.1908  0.6027 -0.1403
 9639SOL     OW29510   0.959   5.745   5.886  0.2140 -0.3424 -0.5359
 9639SOL    HW129511   1.037   5.792   5.916 -0.2944  0.6657 -0.7896
 9639SOL    HW229512   0.896   5.756   5.957 -0.3042  0.3408 -1.1028
 9640SOL     OW29513   3.918   6.694   6.637  0.2043  0.3083  0.1192
 9640SOL    HW129514   4.010   6.717   6.629  0.5919 -0.9990  0.6837
 9640SOL    HW229515   3.913   6.642   6.718 -0.8498 -0.4446 -0.4148
 9641SOL     OW29516   4.572   4.308   6.506  0.8487  0.1368  0.2327
 9641SOL    HW129517   4.586   4.343   6.594  2.9895  0.1270 -0.0815
 9641SOL    HW229518   4.537   4.220   6.521 -0.6569  0.8446  1.0380
 9642SOL     OW29519   3.936   0.378   0.157  0.1322 -0.3602 -0.3117
 9642SOL    HW129520   4.017   0.416   0.192  1.1469 -1.5357 -1.3501
 9642SOL    HW229521   3.867   0.415   0.212  1.4790 -0.2812  1.3722
 9643SOL     OW29522   0.599   5.013   7.033  0.1421  0.1717  0.1541
 9643SOL    HW129523   0.528   5.075   7.049  0.1546  0.6205 -1.5290
 9643SOL    HW229524   0.647   5.010   7.116 -0.1964  1.9566  0.4293
 9644SOL     OW29525   3.134   3.039   4.199 -0.1298 -0.3296  0.0454
 9644SOL    HW129526   3.195   2.966   4.186  0.8483  0.0168  2.4923
 9644SOL    HW229527   3.172   3.112   4.151 -0.4739 -1.0549 -1.3746
 9645SOL     OW29528   5.169   1.957   2.056  0.2708 -0.7376  0.7054
 9645SOL    HW129529   5.112   1.991   2.126 -1.0545 -0.0621 -0.6664
 9645SOL    HW229530   5.109   1.918   1.993  0.9889  2.6547 -2.2675
 9646SOL     OW29531   6.111   5.523   1.263  0.0698 -0.2442 -0.1935
 9646SOL    HW129532   6.106   5.554   1.353  0.6900 -0.3094 -0.1324
 9646SOL    HW229533   6.137   5.600   1.212 -0.3943 -0.1795 -0.3331
 9647SOL     OW29534   5.807   0.321   5.449 -0.4184  0.2095 -0.2189
 9647SOL    HW129535   5.760   0.383   5.392 -1.1874  1.8790  2.1418
 9647SOL    HW229536   5.865   0.376   5.501 -0.2931 -1.1924  1.1539
 9648SOL     OW29537   3.189   7.111   0.450 -0.3801  0.5839  0.0236
 9648SOL    HW129538   3.122   7.045   0.432  1.1189 -1.1719  0.7542
 9648SOL    HW229539   3.268   7.078   0.407  0.1928  2.2977 -0.2712
 9649SOL     OW29540   0.369   2.229   5.739  0.9064  0.1407 -0.1840
 9649SOL    HW129541   0.366   2.268   5.651  0.1706 -0.5348 -0.4668
 9649SOL    HW229542   0.353   2.302   5.798 -1.4156  0.1222 -0.7513
 9650SOL     OW29543   5.588   6.580   2.656 -0.3775  0.4268 -0.8867
 9650SOL    HW129544   5.525   6.517   2.691 -0.5092  1.5374  0.9577
 9650SOL    HW229545   5.664   6.527   2.633 -0.6942 -0.4939  0.1074
 9651SOL     OW29546   2.167   6.438   1.309  0.0142  0.0487 -0.0577
 9651SOL    HW129547   2.218   6.500   1.258 -0.7614  0.3292 -0.4986
 9651SOL    HW229548   2.157   6.480   1.394 -0.6229  0.5830 -0.3994
 9652SOL     OW29549   1.688   5.710   3.065  0.2785 -0.3894  1.3269
 9652SOL    HW129550   1.624   5.781   3.067  0.0278 -0.5839  0.4027
 9652SOL    HW229551   1.637   5.632   3.041  1.2066 -0.1524 -1.5539
 9653SOL     OW29552   3.492   3.428   0.480  0.1839  0.1059  0.0553
 9653SOL    HW129553   3.429   3.414   0.550 -0.2311  1.6323  0.0105
 9653SOL    HW229554   3.471   3.360   0.415 -2.2651  1.3831 -0.5385
 9654SOL     OW29555   4.329   2.190   3.014 -0.5066  0.4200  0.1476
 9654SOL    HW129556   4.265   2.261   3.008 -2.1671 -1.0822 -0.4266
 9654SOL    HW229557   4.335   2.156   2.924  0.8811  0.3551  0.2579
 9655SOL     OW29558   5.070   4.114   2.291 -0.1024 -0.0997  0.2040
 9655SOL    HW129559   5.013   4.107   2.214 -0.1718  1.0428  0.1338
 9655SOL    HW229560   5.014   4.091   2.365 -0.7517  1.3173  0.1665
 9656SOL     OW29561   0.813   4.836   3.037  0.8309 -0.2048  0.3237
 9656SOL    HW129562   0.830   4.870   3.125  1.8507  1.9930 -0.6763
 9656SOL    HW229563   0.856   4.899   2.978 -0.9140 -0.9323 -1.8027
 9657SOL     OW29564   3.349   0.601   0.616  0.1351  0.2720  0.3914
 9657SOL    HW129565   3.328   0.537   0.548  1.1875  0.8083 -0.4576
 9657SOL    HW229566   3.282   0.589   0.682 -0.6154 -0.6033 -0.5194
 9658SOL     OW29567   7.007   1.540   0.563  0.2088 -0.2220  0.3781
 9658SOL    HW129568   7.050   1.617   0.527  0.4821 -0.8395 -0.6286
 9658SOL    HW229569   7.025   1.544   0.657 -0.4389  1.3508  0.4455
 9659SOL     OW29570   3.427   1.716   6.730  0.3160  0.5495  0.4258
 9659SOL    HW129571   3.457   1.701   6.641  0.1367  0.3429  0.3976
 9659SOL    HW229572   3.367   1.790   6.723 -0.0696  0.2285  0.2946
 9660SOL     OW29573   4.856   6.074   4.131  0.0574  0.7566 -0.2136
 9660SOL    HW129574   4.771   6.033   4.116  0.4845 -0.4175  0.5312
 9660SOL    HW229575   4.878   6.114   4.047  0.4700 -2.1098 -1.5224
 9661SOL     OW29576   1.180   1.780   5.862 -0.2982  0.1932 -0.5185
 9661SOL    HW129577   1.122   1.849   5.893  0.7955  0.0700  1.9098
 9661SOL    HW229578   1.127   1.732   5.797 -2.1878  1.2967  0.1618
 9662SOL     OW29579   0.138   3.333   4.885 -0.5875 -0.0929  0.4473
 9662SOL    HW129580   0.192   3.265   4.844 -0.3915 -0.3061  1.0635
 9662SOL    HW229581   0.173   3.341   4.974 -1.3006  0.0715  0.7099
 9663SOL     OW29582   4.482   1.739   4.843  0.2902  0.0699  0.2993
 9663SOL    HW129583   4.517   1.798   4.910  3.0478 -1.3647  0.1980
 9663SOL    HW229584   4.516   1.653   4.866 -1.4848 -1.0264 -1.0595
 9664SOL     OW29585   6.322   2.053   2.958 -0.7747  0.0625 -0.2243
 9664SOL    HW129586   6.238   2.074   2.918 -0.2735 -0.7311 -1.7293
 9664SOL    HW229587   6.372   2.009   2.888  1.6033  2.2516  0.0238
 9665SOL     OW29588   5.804   0.748   1.933 -0.0381  0.0582  0.2339
 9665SOL    HW129589   5.823   0.664   1.892 -1.6654 -0.0478 -0.3013
 9665SOL    HW229590   5.802   0.811   1.861  0.5567  0.4613  0.5602
 9666SOL     OW29591   3.311   0.975   0.990 -0.7578  0.1926  0.1577
 9666SOL    HW129592   3.382   0.930   0.945 -0.8123  0.3236 -0.0602
 9666SOL    HW229593   3.339   0.980   1.081 -1.6298 -2.1189  0.6074
 9667SOL     OW29594   3.034   6.387   1.660 -0.3406  0.9352 -0.0389
 9667SOL    HW129595   3.011   6.295   1.673 -0.6953  1.0333  0.0428
 9667SOL    HW229596   3.122   6.385   1.623 -1.1061  0.4674 -1.9314
 9668SOL     OW29597   1.973   1.818   6.723 -0.1862  0.5597 -0.0877
 9668SOL    HW129598   2.008   1.847   6.638  0.5153 -0.2708 -0.0879
 9668SOL    HW229599   1.896   1.873   6.737 -1.0248 -0.1170 -1.8427
 9669SOL     OW29600   6.731   2.002   3.232 -0.0158 -0.3010  0.4291
 9669SOL    HW129601   6.679   2.053   3.170  0.5386  0.3250  0.4749
 9669SOL    HW229602   6.672   1.934   3.263 -0.1024 -1.0451 -1.3129
 9670SOL     OW29603   3.494   4.135   2.973 -0.1229  0.2110  0.1353
 9670SOL    HW129604   3.421   4.105   3.028 -0.2604  0.0484 -0.1374
 9670SOL    HW229605   3.572   4.114   3.024 -0.1510 -1.7446 -0.5725
 9671SOL     OW29606   4.211   6.376   1.144 -0.2360 -0.1899  0.0701
 9671SOL    HW129607   4.238   6.300   1.092 -0.7384 -1.2828  1.3994
 9671SOL    HW229608   4.287   6.435   1.141  0.4557 -1.0869 -0.3093
 9672SOL     OW29609   4.348   6.705   2.049  0.4234 -0.1066  0.3660
 9672SOL    HW129610   4.440   6.683   2.038  0.4652  1.8266 -4.6020
 9672SOL    HW229611   4.348   6.799   2.069 -0.4628 -0.0300  0.0418
 9673SOL     OW29612   4.050   3.886   1.070 -0.4101 -0.0848 -0.0911
 9673SOL    HW129613   4.143   3.896   1.048 -0.2684 -0.2786  0.4116
 9673SOL    HW229614   4.050   3.831   1.148 -0.9709 -0.4522 -0.3479
 9674SOL     OW29615   1.145   5.310   1.968  0.0757 -0.3098  0.3565
 9674SOL    HW129616   1.204   5.364   2.021 -0.4191 -0.3089  0.9121
 9674SOL    HW229617   1.151   5.223   2.007  0.3316 -0.5046 -0.1016
 9675SOL     OW29618   3.912   4.214   5.970  0.1215 -0.3304  0.1481
 9675SOL    HW129619   3.912   4.307   5.945 -0.6979  0.1396  1.7975
 9675SOL    HW229620   3.867   4.212   6.054 -1.7608 -2.5196 -0.8738
 9676SOL     OW29621   5.921   4.031   4.171 -0.0137 -0.3696 -0.1322
 9676SOL    HW129622   5.837   4.074   4.187 -0.2524 -0.6558 -0.6275
 9676SOL    HW229623   5.920   3.954   4.228  0.6329  0.5364  1.1606
 9677SOL     OW29624   5.310   4.513   6.649  0.4895  0.0777 -0.2565
 9677SOL    HW129625   5.301   4.439   6.709 -0.8573 -0.3999 -1.0245
 9677SOL    HW229626   5.367   4.481   6.580 -0.9385 -0.6155 -1.1366
 9678SOL     OW29627   1.585   2.133   4.570  0.0760 -0.0099  0.1165
 9678SOL    HW129628   1.609   2.045   4.600  1.0379 -0.0073 -0.6202
 9678SOL    HW229629   1.544   2.174   4.647  0.3901 -0.8128  0.7205
 9679SOL     OW29630   1.307   1.426   7.236  0.6976  0.2902  0.4761
 9679SOL    HW129631   1.221   1.390   7.258  1.4537 -1.0571  1.3052
 9679SOL    HW229632   1.296   1.521   7.246 -1.0994  0.2598 -0.9261
 9680SOL     OW29633   4.242   1.273   3.457 -0.1901  0.1756 -0.2783
 9680SOL    HW129634   4.164   1.221   3.439  0.6387 -0.8282 -0.9831
 9680SOL    HW229635   4.309   1.209   3.480  0.8423  0.9147 -1.1786
 9681SOL     OW29636   4.914   5.019   6.255  0.3445  0.3059  0.0233
 9681SOL    HW129637   4.922   4.932   6.218  0.1222  0.6209 -0.7671
 9681SOL    HW229638   4.985   5.069   6.215  0.8679  0.3313  0.9538
 9682SOL     OW29639   5.557   4.479   4.999 -0.4654  0.4856  0.1639
 9682SOL    HW129640   5.566   4.528   4.918 -0.2579  0.9711  0.4764
 9682SOL    HW229641   5.465   4.489   5.024 -0.7720 -0.5306 -0.5566
 9683SOL     OW29642   6.517   4.760   4.615  0.5122  0.2687 -0.6027
 9683SOL    HW129643   6.443   4.726   4.565  0.0674  2.6291 -1.5889
 9683SOL    HW229644   6.485   4.767   4.705 -0.1134  0.2870 -0.8277
 9684SOL     OW29645   4.367   4.378   3.532 -0.0103  0.0543 -0.1367
 9684SOL    HW129646   4.344   4.365   3.625 -2.1776  0.0371 -0.6355
 9684SOL    HW229647   4.428   4.307   3.512  0.3053 -0.0796  1.2199
 9685SOL     OW29648   5.809   4.775   3.147 -0.1691  0.5169  0.0890
 9685SOL    HW129649   5.840   4.685   3.150  0.8678  0.8702  0.0792
 9685SOL    HW229650   5.852   4.818   3.221 -1.1384  0.8621  0.4675
 9686SOL     OW29651   4.851   4.480   4.053  0.0213 -0.0022 -0.1165
 9686SOL    HW129652   4.891   4.567   4.052  0.7858 -0.3042  1.9866
 9686SOL    HW229653   4.766   4.493   4.095 -0.6928  0.0628 -1.5725
 9687SOL     OW29654   0.421   2.212   4.841 -0.0325 -0.2628  0.0576
 9687SOL    HW129655   0.386   2.263   4.769 -0.9366 -1.6311 -0.4983
 9687SOL    HW229656   0.512   2.195   4.818  0.1687  0.7838  0.0819
 9688SOL     OW29657   0.376   4.892   4.955 -0.3344 -0.6802 -0.7798
 9688SOL    HW129658   0.437   4.953   4.997 -0.0915  0.0243 -2.1152
 9688SOL    HW229659   0.386   4.810   5.003  0.4423 -0.0885  0.0749
 9689SOL     OW29660   3.534   2.084   5.836 -0.5069 -0.5327 -0.4401
 9689SOL    HW129661   3.531   2.094   5.741 -0.7607 -1.4962 -0.5355
 9689SOL    HW229662   3.456   2.130   5.867 -0.6495 -0.5822 -0.7264
 9690SOL     OW29663   0.008   0.130   1.667 -0.1261  0.2940 -0.0003
 9690SOL    HW129664   0.073   0.101   1.731 -0.3012 -0.1419 -0.0137
 9690SOL    HW229665  -0.070   0.079   1.688 -0.5367  0.9938  0.1660
 9691SOL     OW29666   3.499   2.964   2.994 -0.2926  0.1698  0.0758
 9691SOL    HW129667   3.486   2.904   3.068 -0.6769 -0.7628 -0.7497
 9691SOL    HW229668   3.468   3.049   3.026  0.8215  0.0793  1.4626
 9692SOL     OW29669   5.309   4.912   2.891  0.4604  0.1619  0.0696
 9692SOL    HW129670   5.225   4.866   2.891  0.1235  0.7158 -2.4881
 9692SOL    HW229671   5.286   5.003   2.872  1.3796  0.9197  2.3713
 9693SOL     OW29672   3.597   1.785   3.721 -0.3932 -0.5800 -0.3849
 9693SOL    HW129673   3.551   1.720   3.668 -1.0240 -2.6439  2.5196
 9693SOL    HW229674   3.679   1.801   3.674 -1.5085 -1.2963 -2.6297
 9694SOL     OW29675   0.393   1.783   4.511  0.7146  0.6386 -0.0412
 9694SOL    HW129676   0.339   1.839   4.567  0.8192  1.2995 -0.5958
 9694SOL    HW229677   0.338   1.763   4.436  0.3802 -0.7005  0.5428
 9695SOL     OW29678   5.044   5.868   2.604 -0.0701 -0.5999 -0.1482
 9695SOL    HW129679   5.123   5.865   2.657 -0.2780 -0.4939  0.1675
 9695SOL    HW229680   5.015   5.959   2.609  0.6010 -0.3072 -1.4603
 9696SOL     OW29681   5.215   6.694   4.219  0.2684  0.0509  0.1428
 9696SOL    HW129682   5.194   6.681   4.312  2.0225 -0.2529  0.5263
 9696SOL    HW229683   5.161   6.767   4.192 -1.5232 -0.9315  0.9604
 9697SOL     OW29684   2.583   6.121   1.025  0.1363  0.0248 -0.8238
 9697SOL    HW129685   2.629   6.086   0.949  1.9767  0.4340  0.0936
 9697SOL    HW229686   2.637   6.194   1.055 -1.4817  0.9887 -0.1715
 9698SOL     OW29687   3.316   4.119   5.247  0.0515 -0.7546 -0.5697
 9698SOL    HW129688   3.378   4.115   5.321 -0.5472  1.5352  0.0955
 9698SOL    HW229689   3.344   4.195   5.197 -0.6568 -1.2535 -1.7377
 9699SOL     OW29690   6.048   1.929   6.528  0.1252 -0.4329 -0.3312
 9699SOL    HW129691   6.096   1.986   6.587 -0.6878 -1.0323  0.9129
 9699SOL    HW229692   6.092   1.844   6.535 -0.0614 -0.5436 -0.4837
 9700SOL     OW29693   6.808   6.663   3.128  0.0654  0.2500 -0.1030
 9700SOL    HW129694   6.801   6.632   3.038  1.0433  2.4473 -0.9901
 9700SOL    HW229695   6.720   6.652   3.164 -0.5284  0.0615 -1.5731
 9701SOL     OW29696   2.748   4.982   6.064  0.3919 -0.3418  0.3995
 9701SOL    HW129697   2.690   5.047   6.026 -0.5718 -2.3380 -1.6920
 9701SOL    HW229698   2.743   4.997   6.158  0.5107  2.8052 -0.0490
 9702SOL     OW29699   3.698   3.091   5.915  0.7383  0.0400  0.3143
 9702SOL    HW129700   3.609   3.126   5.905  0.2693 -1.1591  0.2695
 9702SOL    HW229701   3.755   3.167   5.902 -0.3352  1.1784  2.0233
 9703SOL     OW29702   3.970   1.745   2.612 -0.2680  0.6503  0.0278
 9703SOL    HW129703   4.017   1.791   2.543 -0.4555  1.5901  0.5325
 9703SOL    HW229704   3.900   1.805   2.638 -0.2278  0.2756  1.0062
 9704SOL     OW29705   0.568   5.580   6.317  0.0178  0.1936  0.0201
 9704SOL    HW129706   0.637   5.528   6.359 -1.6344 -1.1809  1.0997
 9704SOL    HW229707   0.488   5.556   6.363 -1.0762  2.4281 -0.6241
 9705SOL     OW29708   0.734   1.777   2.396  0.0573 -0.7021  0.3513
 9705SOL    HW129709   0.712   1.769   2.489  0.1188  1.2033  0.5538
 9705SOL    HW229710   0.650   1.789   2.352  0.1511 -0.1043  0.3363
 9706SOL     OW29711   3.309   6.728   4.047  0.0357 -0.3932 -0.5209
 9706SOL    HW129712   3.312   6.820   4.071 -0.5908 -0.4280 -0.2865
 9706SOL    HW229713   3.389   6.690   4.084 -0.8821 -0.4366  1.5153
 9707SOL     OW29714   3.455   4.797   1.339 -0.1234  0.3267  0.2142
 9707SOL    HW129715   3.526   4.762   1.284 -1.5338  0.3494 -1.6760
 9707SOL    HW229716   3.394   4.836   1.276 -1.5436  0.8079  1.8674
 9708SOL     OW29717   5.548   3.051   6.240  0.2282  0.1668 -0.1323
 9708SOL    HW129718   5.538   3.087   6.328 -0.1221 -0.8726  0.2585
 9708SOL    HW229719   5.511   3.117   6.182 -0.5389  0.3684  0.5917
 9709SOL     OW29720   5.616   4.258   5.111  0.2903  0.9750  0.7387
 9709SOL    HW129721   5.607   4.344   5.069  1.5496  0.2384 -1.0727
 9709SOL    HW229722   5.526   4.231   5.130 -0.1707  2.2111  0.3580
 9710SOL     OW29723   4.778   3.957   4.357 -0.5735  0.0471 -0.8772
 9710SOL    HW129724   4.732   4.029   4.400  0.8615  0.2255  0.3778
 9710SOL    HW229725   4.865   3.957   4.396 -0.5612 -2.4165 -0.8171
 9711SOL     OW29726   0.306   3.146   5.357 -0.4515  0.3569 -0.4836
 9711SOL    HW129727   0.270   3.234   5.368 -0.0217  0.2167  2.5962
 9711SOL    HW229728   0.236   3.097   5.315 -2.0238  1.3238  0.9410
 9712SOL     OW29729   5.875   1.348   6.271 -0.0494  0.1967  0.6203
 9712SOL    HW129730   5.835   1.264   6.292 -1.0502  0.6488  0.5200
 9712SOL    HW229731   5.965   1.326   6.247  0.5200 -0.5743  3.2944
 9713SOL     OW29732   0.354   0.903   1.388 -0.6732  0.5649 -0.3741
 9713SOL    HW129733   0.332   0.838   1.455 -1.0724  1.4236  0.3434
 9713SOL    HW229734   0.430   0.866   1.343  0.5528  0.6520  1.5460
 9714SOL     OW29735   5.177   7.239   5.003  0.2519  0.2779  0.0749
 9714SOL    HW129736   5.199   7.243   4.910  0.4057 -1.8072 -0.0015
 9714SOL    HW229737   5.261   7.243   5.048  0.1755  1.3230  0.1347
 9715SOL     OW29738   0.182   5.732   6.587  0.3707 -0.1555 -0.0917
 9715SOL    HW129739   0.200   5.782   6.507 -1.0376 -0.6010 -0.7097
 9715SOL    HW229740   0.086   5.736   6.596  0.4445 -0.8798  1.0673
 9716SOL     OW29741   5.265   1.556   3.966 -0.0095  0.3879 -0.9225
 9716SOL    HW129742   5.339   1.616   3.961  0.3625 -0.0460 -0.6105
 9716SOL    HW229743   5.250   1.543   4.060 -0.1717  0.0890 -0.9884
 9717SOL     OW29744   0.636   1.896   6.026 -0.0398 -0.9295  0.1958
 9717SOL    HW129745   0.560   1.909   5.969 -1.1620  1.2677  2.0815
 9717SOL    HW229746   0.711   1.921   5.972 -0.9444 -0.2681 -0.7898
 9718SOL     OW29747   5.031   6.945   3.110  0.0877  0.0265  0.5860
 9718SOL    HW129748   4.971   6.888   3.062 -2.2897  2.3263  0.6861
 9718SOL    HW229749   5.061   7.009   3.046  0.4319  0.4248  1.1347
 9719SOL     OW29750   2.757   2.002   1.716 -0.1733  0.2675  0.0563
 9719SOL    HW129751   2.741   1.910   1.696 -0.1608 -0.4112  2.8807
 9719SOL    HW229752   2.709   2.017   1.798 -0.4192  2.8604 -0.5164
 9720SOL     OW29753   5.650   5.591   3.255 -0.1482 -0.2958 -0.6083
 9720SOL    HW129754   5.695   5.561   3.334 -1.6753  1.2174  0.8711
 9720SOL    HW229755   5.642   5.686   3.266  1.3694  0.2306 -3.5220
 9721SOL     OW29756   2.154   3.491   2.092 -0.9286  0.3683 -0.1313
 9721SOL    HW129757   2.230   3.446   2.130 -1.0562  0.2856  0.0304
 9721SOL    HW229758   2.134   3.560   2.155 -0.3371  1.0643 -0.6990
 9722SOL     OW29759   1.066   3.764   3.869 -0.8458  0.1384 -0.0712
 9722SOL    HW129760   1.138   3.722   3.917 -1.4753  0.8131  1.4768
 9722SOL    HW229761   1.102   3.849   3.843 -0.2082 -0.5666 -1.5989
 9723SOL     OW29762   0.379   5.673   3.437 -0.6164 -0.6850  0.3139
 9723SOL    HW129763   0.356   5.758   3.476 -1.1096  0.1091 -1.6149
 9723SOL    HW229764   0.474   5.665   3.451  0.2610  2.2151 -3.1248
 9724SOL     OW29765   3.315   4.140   4.307 -0.7315 -0.2202  0.2877
 9724SOL    HW129766   3.377   4.174   4.371  0.4403 -0.8394 -0.4916
 9724SOL    HW229767   3.234   4.129   4.355 -0.2478  0.6360  1.3229
 9725SOL     OW29768   6.182   0.415   4.260 -0.2836  0.0849  0.4860
 9725SOL    HW129769   6.170   0.444   4.350 -0.1976  1.2501  0.1358
 9725SOL    HW229770   6.098   0.378   4.235  0.0147 -1.1976  1.3851
 9726SOL     OW29771   4.323   7.082   1.887 -0.3341 -0.2977  0.1329
 9726SOL    HW129772   4.265   7.036   1.827  0.1442 -1.7089  0.7386
 9726SOL    HW229773   4.410   7.046   1.870  0.0046  0.2043  0.7683
 9727SOL     OW29774   4.450   6.426   0.471  0.0273  0.1456 -0.1813
 9727SOL    HW129775   4.391   6.355   0.448 -1.3832  1.9022 -2.1748
 9727SOL    HW229776   4.400   6.481   0.531  0.2478  0.7050 -0.4998
 9728SOL     OW29777   6.127   6.445   5.337  0.4035 -0.3921  0.1064
 9728SOL    HW129778   6.140   6.509   5.406 -1.4602  1.1017 -0.8632
 9728SOL    HW229779   6.182   6.476   5.265 -0.2830 -0.0078 -0.2635
 9729SOL     OW29780   1.150   0.416   2.902  0.0166  0.1528  0.2275
 9729SOL    HW129781   1.082   0.430   2.968 -0.4879 -0.7461 -0.1072
 9729SOL    HW229782   1.165   0.503   2.865 -0.3130  0.5112  0.9213
 9730SOL     OW29783   1.622   2.149   0.874 -0.0441  0.7885  0.0766
 9730SOL    HW129784   1.552   2.098   0.834  0.1270  0.0376  0.7194
 9730SOL    HW229785   1.604   2.239   0.849  0.0029  0.3396 -1.6047
 9731SOL     OW29786   2.874   6.847   3.403  0.0920  0.1947  0.0819
 9731SOL    HW129787   2.786   6.851   3.439 -0.1323 -1.6331 -0.2370
 9731SOL    HW229788   2.888   6.934   3.365 -2.0099  0.1437 -0.8948
 9732SOL     OW29789   4.827   1.079   6.500  0.5259 -0.5475 -0.4559
 9732SOL    HW129790   4.894   1.076   6.430  0.9277 -0.1566 -0.0923
 9732SOL    HW229791   4.784   1.163   6.487 -0.0840 -0.9129 -0.8525
 9733SOL     OW29792   6.452   1.249   0.672 -0.2958  0.2015 -0.8989
 9733SOL    HW129793   6.442   1.227   0.579 -0.5351  0.1083 -0.8523
 9733SOL    HW229794   6.414   1.337   0.679  0.6589  0.6325 -1.0850
 9734SOL     OW29795   4.281   0.134   6.768  0.2834  0.4087  0.6575
 9734SOL    HW129796   4.223   0.180   6.828  0.4511  0.9260  0.4297
 9734SOL    HW229797   4.246   0.045   6.762 -0.6744  0.8127  0.2660
 9735SOL     OW29798   4.095   6.263   2.875  0.5273 -0.5170  0.0300
 9735SOL    HW129799   4.075   6.170   2.887  0.5663 -0.7010 -1.3016
 9735SOL    HW229800   4.010   6.306   2.871  0.5143 -0.3925  1.3297
 9736SOL     OW29801   1.098   6.349   3.083  0.4053 -0.3891 -0.3352
 9736SOL    HW129802   1.123   6.419   3.144  3.2874 -1.5228 -0.1136
 9736SOL    HW229803   1.014   6.317   3.117  0.6632  0.7491  1.4889
 9737SOL     OW29804   2.895   1.085   6.014  0.1258  0.0287  0.4097
 9737SOL    HW129805   2.892   1.160   6.075 -0.3739  0.7054 -0.4326
 9737SOL    HW229806   2.934   1.121   5.934  0.9165 -0.8959  0.3767
 9738SOL     OW29807   7.256   1.942   7.172  0.1051  0.1407 -0.2980
 9738SOL    HW129808   7.247   1.869   7.110 -0.9509 -0.3228  0.3871
 9738SOL    HW229809   7.230   2.019   7.122 -1.2324 -0.2978 -0.3220
 9739SOL     OW29810   4.436   5.247   2.364  0.0978 -0.2624 -0.2188
 9739SOL    HW129811   4.398   5.205   2.441  1.0044 -1.1006 -0.2264
 9739SOL    HW229812   4.519   5.202   2.351 -0.1015 -0.1965 -1.7467
 9740SOL     OW29813   5.604   4.241   3.729  0.2173 -0.0939  0.5187
 9740SOL    HW129814   5.545   4.166   3.736  2.1097 -1.6743  0.2536
 9740SOL    HW229815   5.640   4.236   3.641  2.0861 -0.2629  1.2437
 9741SOL     OW29816   1.039   6.654   2.499 -0.8218 -0.4766 -0.6957
 9741SOL    HW129817   1.032   6.632   2.592 -1.0118 -0.0692 -0.6098
 9741SOL    HW229818   1.087   6.737   2.497  1.2954 -1.6925 -1.1093
 9742SOL     OW29819   4.651   2.600   1.979 -0.2886 -0.6049 -0.0014
 9742SOL    HW129820   4.707   2.675   2.000 -0.6033 -0.1289 -0.8542
 9742SOL    HW229821   4.685   2.530   2.035  0.6800 -0.1182  0.0468
 9743SOL     OW29822   5.713   1.989   2.867  0.0890  0.0275  0.6070
 9743SOL    HW129823   5.655   1.973   2.793  1.1655 -0.2498 -0.1911
 9743SOL    HW229824   5.794   1.945   2.843  0.2773 -0.5088  2.1885
 9744SOL     OW29825   2.229   2.429   4.858  0.1949 -0.1032  0.1061
 9744SOL    HW129826   2.324   2.435   4.861  0.3910 -2.8784  1.1364
 9744SOL    HW229827   2.209   2.419   4.765  0.9872 -0.2774 -0.0537
 9745SOL     OW29828   1.722   6.692   2.332  0.2919  0.1588 -0.0469
 9745SOL    HW129829   1.698   6.607   2.296 -0.7528 -1.0088  3.1801
 9745SOL    HW229830   1.639   6.739   2.343  0.5573  0.4099  0.9766
 9746SOL     OW29831   6.344   1.959   4.670 -1.1290 -0.8173  0.3000
 9746SOL    HW129832   6.371   1.880   4.716 -1.1336 -1.4215 -0.7310
 9746SOL    HW229833   6.397   2.029   4.708  0.2392 -1.6223 -0.1065
 9747SOL     OW29834   4.227   0.769   4.580  0.4532 -0.3560 -0.1949
 9747SOL    HW129835   4.270   0.847   4.547 -1.1687  1.3144  1.5082
 9747SOL    HW229836   4.255   0.763   4.671 -0.6855 -0.8266  0.1394
 9748SOL     OW29837   6.286   5.909   1.711 -0.4934 -0.6193  0.5600
 9748SOL    HW129838   6.370   5.941   1.742 -0.7727 -0.0024  0.6938
 9748SOL    HW229839   6.267   5.961   1.633 -0.3571 -1.3387  0.0368
 9749SOL     OW29840   2.611   2.127   3.884  0.2525 -0.0388 -0.1495
 9749SOL    HW129841   2.520   2.107   3.905  0.7636 -2.2350  0.0614
 9749SOL    HW229842   2.638   2.058   3.824  1.1606  1.7904 -1.9024
 9750SOL     OW29843   5.111   4.305   1.167  0.3123  0.0035  0.7401
 9750SOL    HW129844   5.077   4.263   1.247 -0.5585 -0.7158 -0.0026
 9750SOL    HW229845   5.206   4.295   1.174  0.3218  0.8924  2.2057
 9751SOL     OW29846   5.886   5.906   4.539  0.1338  0.3320  0.1415
 9751SOL    HW129847   5.838   5.989   4.542 -0.6253 -0.1692  2.9155
 9751SOL    HW229848   5.901   5.891   4.446 -0.0765  3.3731 -0.4501
 9752SOL     OW29849   2.332   3.863   2.145  0.4280 -0.4189 -0.4777
 9752SOL    HW129850   2.283   3.797   2.193  0.7669 -0.5176 -0.2684
 9752SOL    HW229851   2.318   3.841   2.053  0.2982 -0.6018 -0.4143
 9753SOL     OW29852   2.142   3.956   3.559 -0.2407  0.3837 -0.0482
 9753SOL    HW129853   2.162   4.033   3.505 -1.5168  1.2539  0.6831
 9753SOL    HW229854   2.098   3.896   3.499 -0.9308  1.0105 -0.1750
 9754SOL     OW29855   5.300   1.544   6.600 -0.1725 -0.3588  0.1520
 9754SOL    HW129856   5.304   1.492   6.681  0.7484 -0.9487 -0.2499
 9754SOL    HW229857   5.219   1.594   6.606  0.1103 -0.0753  1.6376
 9755SOL     OW29858   4.557   2.092   4.158 -0.4544  0.0349 -0.5267
 9755SOL    HW129859   4.507   2.053   4.229 -0.4145  0.3045 -0.3511
 9755SOL    HW229860   4.601   2.018   4.115 -1.9656 -0.3453 -1.4411
 9756SOL     OW29861   2.645   5.695   4.020  0.0491 -0.2007 -0.4221
 9756SOL    HW129862   2.691   5.613   3.999  0.4356 -0.1041  0.0399
 9756SOL    HW229863   2.557   5.667   4.043  1.1637 -0.8915  3.3499
 9757SOL     OW29864   6.360   1.996   4.017  0.7185 -0.4686 -0.0658
 9757SOL    HW129865   6.342   1.913   4.059 -0.1140 -1.3406 -2.0711
 9757SOL    HW229866   6.316   2.061   4.072 -0.7574 -1.6174  0.1380
 9758SOL     OW29867   7.046   5.560   0.320 -0.1292 -0.1252  0.5428
 9758SOL    HW129868   7.101   5.638   0.325  1.2268 -1.1102  1.1357
 9758SOL    HW229869   7.104   5.487   0.340 -1.0015 -1.4822 -1.5864
 9759SOL     OW29870   0.036   4.326   0.500  0.2947  0.1770 -0.1478
 9759SOL    HW129871   0.002   4.405   0.457 -0.7370  0.4803  1.2007
 9759SOL    HW229872  -0.038   4.294   0.552  0.9974 -1.1619  0.0218
 9760SOL     OW29873   3.804   2.282   4.141  0.5954 -0.3001  0.1176
 9760SOL    HW129874   3.781   2.239   4.059 -0.0304  0.5985 -0.1859
 9760SOL    HW229875   3.722   2.285   4.191  0.2558  1.9600 -0.5271
 9761SOL     OW29876   5.394   6.091   5.531  0.5363  0.2838 -0.3214
 9761SOL    HW129877   5.311   6.092   5.577  0.8283  0.4358  0.2096
 9761SOL    HW229878   5.410   5.999   5.510  1.5503 -0.1031  1.9988
 9762SOL     OW29879   0.895   7.059   0.426 -0.0438  0.1445  0.0092
 9762SOL    HW129880   0.819   7.037   0.371 -0.8184  0.5421  0.8990
 9762SOL    HW229881   0.883   7.152   0.447 -0.1310 -0.1762  1.4189
 9763SOL     OW29882   2.252   4.442   0.060 -0.4354  0.2370  0.1267
 9763SOL    HW129883   2.162   4.454   0.090 -0.6914 -0.3840 -0.3922
 9763SOL    HW229884   2.274   4.352   0.087  0.4754  0.8224  1.4075
 9764SOL     OW29885   4.700   6.384   5.846  0.5579  0.0199 -0.4949
 9764SOL    HW129886   4.785   6.350   5.874  1.1010  0.1437 -1.9631
 9764SOL    HW229887   4.714   6.413   5.756 -1.4015 -1.3670 -1.2876
 9765SOL     OW29888   2.656   4.875   3.577  0.0191  0.2517  0.5222
 9765SOL    HW129889   2.570   4.901   3.544 -0.3257 -0.8767  0.5127
 9765SOL    HW229890   2.714   4.945   3.548 -0.5503  0.0490 -1.1645
 9766SOL     OW29891   1.815   5.097   4.991  0.2873 -0.0732  0.3477
 9766SOL    HW129892   1.883   5.139   5.042  0.5508  1.5025 -1.2450
 9766SOL    HW229893   1.741   5.088   5.051  1.6457 -1.1926  1.8881
 9767SOL     OW29894   6.826   5.704   5.291 -0.2823 -0.0033 -1.1869
 9767SOL    HW129895   6.733   5.684   5.299  0.0301 -0.6621  1.4019
 9767SOL    HW229896   6.859   5.641   5.227 -1.2100 -1.1713 -0.5293
 9768SOL     OW29897   2.587   3.727   2.073  0.3374  0.6043  0.6272
 9768SOL    HW129898   2.631   3.777   2.005 -1.7999  0.7419 -0.6837
 9768SOL    HW229899   2.513   3.781   2.099 -0.1681 -0.4686  1.4551
 9769SOL     OW29900   2.596   3.807   2.771 -0.5415  0.1634 -0.3007
 9769SOL    HW129901   2.526   3.855   2.727  0.8455  2.3353 -0.2200
 9769SOL    HW229902   2.634   3.752   2.702 -1.9118 -0.5564 -0.4870
 9770SOL     OW29903   5.708   2.025   0.187  0.0176  0.1439  0.0077
 9770SOL    HW129904   5.736   2.028   0.278  0.3262 -1.3094 -0.0260
 9770SOL    HW229905   5.633   2.086   0.182  1.6953  2.3241  0.5929
 9771SOL     OW29906   0.789   4.212   2.926  0.2283 -0.2694  0.6296
 9771SOL    HW129907   0.697   4.207   2.902  0.3608 -0.0744  0.0858
 9771SOL    HW229908   0.815   4.121   2.944 -0.3366 -0.2150  1.8003
 9772SOL     OW29909   5.285   2.650   4.187  0.0440  0.1328  0.5284
 9772SOL    HW129910   5.321   2.683   4.269  1.1169 -0.2767  0.2278
 9772SOL    HW229911   5.194   2.680   4.187 -0.3126 -0.8857  2.4087
 9773SOL     OW29912   5.536   2.162   1.539 -0.1503  0.0978 -0.4150
 9773SOL    HW129913   5.615   2.122   1.576  0.4798  0.4236 -1.3761
 9773SOL    HW229914   5.524   2.117   1.455  0.7092  2.0831 -1.6170
 9774SOL     OW29915   3.939   3.462   2.492  0.2051  0.0936 -0.6334
 9774SOL    HW129916   3.894   3.536   2.533 -0.1531  0.1642 -1.1477
 9774SOL    HW229917   3.878   3.432   2.424 -0.1986 -1.4459  0.3892
 9775SOL     OW29918   0.767   3.504   2.987  0.6486 -1.0066  0.3608
 9775SOL    HW129919   0.839   3.566   3.002  0.7230 -0.8215 -0.6819
 9775SOL    HW229920   0.799   3.421   3.022  0.9106 -0.6622  0.9456
 9776SOL     OW29921   0.105   2.917   4.156 -0.5228  0.5131 -0.2104
 9776SOL    HW129922   0.158   2.898   4.079  0.0353  0.2521  0.2399
 9776SOL    HW229923   0.166   2.953   4.220 -0.6622 -0.8031  0.6955
 9777SOL     OW29924   2.329   0.668   1.653 -0.4056 -0.3770 -0.0300
 9777SOL    HW129925   2.255   0.692   1.597  0.1367 -0.3419 -0.7446
 9777SOL    HW229926   2.384   0.613   1.596  0.7705  0.6662  0.0797
 9778SOL     OW29927   2.904   4.347   1.821 -0.1149  0.2368  0.2968
 9778SOL    HW129928   2.854   4.427   1.834 -0.5863 -0.1640  0.9741
 9778SOL    HW229929   2.843   4.288   1.776  0.4673  0.5016 -0.8717
 9779SOL     OW29930   0.370   6.315   6.448 -0.9253 -0.1889 -0.6937
 9779SOL    HW129931   0.328   6.284   6.368 -0.5513 -0.7930 -0.6525
 9779SOL    HW229932   0.336   6.404   6.459 -1.5471 -0.3697 -1.1176
 9780SOL     OW29933   5.201   6.417   0.219  0.2046 -0.2658 -0.0923
 9780SOL    HW129934   5.213   6.462   0.303  2.6999 -0.0034 -0.5556
 9780SOL    HW229935   5.207   6.486   0.153  2.7003 -1.0428 -0.7244
 9781SOL     OW29936   3.276   3.394   3.414  0.1513 -0.2278 -0.0918
 9781SOL    HW129937   3.344   3.437   3.362  0.1949  0.8633  0.8410
 9781SOL    HW229938   3.268   3.448   3.492  0.2928 -1.9945  1.1843
 9782SOL     OW29939   0.482   6.506   4.659 -0.1059  0.2712 -0.5846
 9782SOL    HW129940   0.406   6.565   4.652  1.5290  2.4792 -0.2576
 9782SOL    HW229941   0.472   6.465   4.745 -1.9033 -0.8603 -1.3141
 9783SOL     OW29942   1.759   1.154   0.265  0.1065  0.1552  0.7869
 9783SOL    HW129943   1.724   1.094   0.331  0.0699  1.0694  1.6010
 9783SOL    HW229944   1.682   1.188   0.219 -0.1396  2.6045  2.9553
 9784SOL     OW29945   5.391   5.174   5.526 -0.1983  0.0398 -0.4033
 9784SOL    HW129946   5.326   5.235   5.561 -1.0203 -0.2842 -1.3598
 9784SOL    HW229947   5.434   5.138   5.604 -0.2394  1.2518  0.1861
 9785SOL     OW29948   2.607   6.027   3.791 -0.0295  0.4922 -0.0513
 9785SOL    HW129949   2.559   6.019   3.708 -3.1623  0.1569  1.6882
 9785SOL    HW229950   2.637   6.117   3.793 -1.2087  0.9237 -0.9256
 9786SOL     OW29951   4.307   0.145   0.750  0.0823  0.0562  0.2466
 9786SOL    HW129952   4.335   0.126   0.660 -0.2916  0.9600 -0.0686
 9786SOL    HW229953   4.220   0.107   0.756 -0.2187  0.6823 -0.0377
 9787SOL     OW29954   4.105   4.929   2.225  0.2132 -0.6729 -0.0173
 9787SOL    HW129955   4.150   5.010   2.201  0.1663 -1.1487 -1.7856
 9787SOL    HW229956   4.168   4.860   2.203  0.3050 -1.1323  1.6065
 9788SOL     OW29957   1.532   4.717   6.811  0.5902  0.5058 -0.1257
 9788SOL    HW129958   1.526   4.798   6.762 -0.0637  0.5216 -0.0304
 9788SOL    HW229959   1.489   4.652   6.755 -0.1868  0.5327  0.4382
 9789SOL     OW29960   1.423   4.737   2.289 -0.0694  0.1441 -0.4668
 9789SOL    HW129961   1.362   4.669   2.259 -1.0212 -0.0188  1.7022
 9789SOL    HW229962   1.507   4.692   2.298 -0.3113 -0.3510 -0.6646
 9790SOL     OW29963   1.236   7.200   6.271  0.5958  0.4811  0.1378
 9790SOL    HW129964   1.201   7.206   6.360  0.7673  3.1740  0.0630
 9790SOL    HW229965   1.327   7.230   6.279  0.4400  1.2961 -1.0175
 9791SOL     OW29966   5.591   1.668   5.047  0.1068  1.0097 -0.5636
 9791SOL    HW129967   5.616   1.613   4.973 -1.8506  0.6241 -0.9595
 9791SOL    HW229968   5.582   1.756   5.010  0.6719  1.1134 -0.4593
 9792SOL     OW29969   6.175   3.762   0.231 -0.3729  0.0805 -0.2355
 9792SOL    HW129970   6.137   3.735   0.148  0.3949  0.0895 -0.5945
 9792SOL    HW229971   6.202   3.681   0.273 -1.4413  0.0209  0.3396
 9793SOL     OW29972   1.285   0.371   3.155  0.4697  0.6975  0.5525
 9793SOL    HW129973   1.378   0.389   3.173  0.8316  0.0420 -0.5771
 9793SOL    HW229974   1.274   0.396   3.064  0.0335 -1.1295  0.1004
 9794SOL     OW29975   4.904   0.398   1.214  0.3758 -0.4618 -0.0976
 9794SOL    HW129976   4.935   0.314   1.180  0.8798 -0.3795  0.1651
 9794SOL    HW229977   4.873   0.445   1.136  1.7742 -0.1662 -0.4916
 9795SOL     OW29978   1.161   2.343   2.318 -0.3028 -0.1136 -0.7741
 9795SOL    HW129979   1.232   2.407   2.319 -0.1027 -0.3293 -0.0063
 9795SOL    HW229980   1.196   2.269   2.367 -0.5615 -0.7742 -1.5814
 9796SOL     OW29981   1.430   6.502   3.105 -0.0727 -0.1321 -0.0598
 9796SOL    HW129982   1.416   6.556   3.028  1.1190  0.0165 -0.1866
 9796SOL    HW229983   1.371   6.538   3.171 -1.2355 -0.3859 -0.9553
 9797SOL     OW29984   6.003   5.743   4.742  0.3801 -0.5033  0.2138
 9797SOL    HW129985   5.982   5.782   4.657  2.3563 -0.3555 -0.2369
 9797SOL    HW229986   6.095   5.764   4.755 -0.1086  0.1502  2.7694
 9798SOL     OW29987   5.469   3.635   6.727  0.5711 -0.2257  0.3720
 9798SOL    HW129988   5.378   3.658   6.706  0.4620 -0.6849  0.3323
 9798SOL    HW229989   5.472   3.633   6.823  0.5146 -0.3001  0.3722
 9799SOL     OW29990   5.743   5.051   3.058 -0.4202 -0.0705 -0.5384
 9799SOL    HW129991   5.693   5.104   3.121  1.0171  0.5302  0.1089
 9799SOL    HW229992   5.760   4.969   3.105 -0.5430 -0.1673 -0.6614
 9800SOL     OW29993   0.649   1.231   1.251  0.1370  0.2357 -0.9198
 9800SOL    HW129994   0.710   1.207   1.321 -1.1887  0.6466  0.3970
 9800SOL    HW229995   0.563   1.207   1.285 -0.4434 -0.5392 -2.8453
 9801SOL     OW29996   5.017   5.196   5.573  0.0523  0.2363  0.2283
 9801SOL    HW129997   4.934   5.242   5.582 -0.4199 -1.0487  2.9994
 9801SOL    HW229998   5.081   5.255   5.612 -0.4016 -0.9799  2.8833
 9802SOL     OW29999   7.228   2.994   2.173 -0.3312 -0.8680 -0.5918
 9802SOL    HW130000   7.198   3.083   2.191  1.5159 -0.2687 -0.4587
 9802SOL    HW230001   7.267   2.965   2.255 -0.3099 -1.5524 -0.8439
 9803SOL     OW30002   2.044   1.798   1.002 -0.2225 -0.4627  0.2442
 9803SOL    HW130003   1.963   1.788   1.051 -0.4056  0.0725  0.0483
 9803SOL    HW230004   2.020   1.777   0.911 -0.9570  3.1335 -0.4541
 9804SOL     OW30005   0.955   3.631   5.923  0.3103 -0.4730 -0.4395
 9804SOL    HW130006   0.992   3.543   5.929  0.2758 -0.4011  0.9583
 9804SOL    HW230007   0.934   3.654   6.013 -0.5562  0.5960 -0.9082
 9805SOL     OW30008   0.569   5.107   4.964 -0.0732  0.0913  0.2916
 9805SOL    HW130009   0.609   5.090   4.879 -0.0848  0.6168  0.1780
 9805SOL    HW230010   0.505   5.176   4.947 -1.9773 -1.6369  0.2190
 9806SOL     OW30011   2.844   6.131   5.764 -0.1777  0.1786 -0.0784
 9806SOL    HW130012   2.811   6.199   5.706 -2.5073 -0.0396  0.9368
 9806SOL    HW230013   2.771   6.069   5.772  1.2407 -1.4450  0.5249
 9807SOL     OW30014   0.197   5.352   7.123  0.1266 -0.5651  0.0314
 9807SOL    HW130015   0.135   5.320   7.189  1.0216 -1.6141  0.3715
 9807SOL    HW230016   0.154   5.335   7.039 -0.9121  0.5543  0.3120
 9808SOL     OW30017   6.096   3.397   4.468 -0.4363  0.7181  0.2722
 9808SOL    HW130018   6.171   3.450   4.441  0.5786 -1.0297 -0.4150
 9808SOL    HW230019   6.119   3.364   4.555  0.9838 -2.2818 -1.1633
 9809SOL     OW30020   4.333   0.171   1.718 -0.7159 -0.2935 -0.0839
 9809SOL    HW130021   4.286   0.213   1.790  1.6723  0.1340  1.2693
 9809SOL    HW230022   4.376   0.096   1.759 -0.4524 -0.8533 -1.3654
 9810SOL     OW30023   4.257   3.265   4.893  0.1095 -0.1532 -0.1813
 9810SOL    HW130024   4.173   3.278   4.848 -1.3341  1.9553  2.9352
 9810SOL    HW230025   4.235   3.212   4.969  1.8500 -0.6502 -0.0153
 9811SOL     OW30026   3.200   0.862   3.460  0.0863  0.0860 -0.6494
 9811SOL    HW130027   3.173   0.837   3.371 -0.2438 -0.9114 -0.2762
 9811SOL    HW230028   3.126   0.837   3.515  0.3798  0.5021 -0.0638
 9812SOL     OW30029   2.589   6.975   0.005  0.3351  0.5641  0.0604
 9812SOL    HW130030   2.641   7.049  -0.026  2.8190 -0.6704  1.1075
 9812SOL    HW230031   2.559   6.931  -0.074 -0.4894  2.2021 -0.5668
 9813SOL     OW30032   6.393   2.784   5.852  0.3777  1.2195 -0.1439
 9813SOL    HW130033   6.335   2.753   5.921 -1.2002 -0.6187 -2.1874
 9813SOL    HW230034   6.474   2.734   5.864  0.1823  1.0579  0.5072
 9814SOL     OW30035   4.359   0.148   4.503  0.0996  0.2945  0.5259
 9814SOL    HW130036   4.417   0.207   4.455 -1.6649  1.3671 -0.3146
 9814SOL    HW230037   4.389   0.061   4.480  0.9626  0.8332 -0.4140
 9815SOL     OW30038   5.633   0.569   6.209  0.4265  0.4008 -0.2373
 9815SOL    HW130039   5.649   0.485   6.167  0.7570  0.0800  0.5273
 9815SOL    HW230040   5.538   0.578   6.210  0.4201  0.4578 -1.1398
 9816SOL     OW30041   0.570   3.600   0.379  0.0802  0.7466  0.4188
 9816SOL    HW130042   0.476   3.600   0.399  0.1800  0.6695  0.9037
 9816SOL    HW230043   0.581   3.530   0.314 -0.1687  0.6186  0.5129
 9817SOL     OW30044   2.068   5.418   1.478 -0.1747  1.0338  0.1999
 9817SOL    HW130045   2.036   5.367   1.404  0.7721  2.2730 -1.0877
 9817SOL    HW230046   2.163   5.420   1.467 -0.1084  2.1550  0.8425
 9818SOL     OW30047   6.682   1.058   6.032 -0.2220  0.6073 -0.4956
 9818SOL    HW130048   6.777   1.059   6.046 -0.1328  0.4894 -1.0922
 9818SOL    HW230049   6.666   0.983   5.975 -0.8107 -0.0355  0.5009
 9819SOL     OW30050   5.176   5.276   4.982 -0.3380  0.3960 -0.2342
 9819SOL    HW130051   5.171   5.372   4.989 -1.4062  0.4378 -1.3675
 9819SOL    HW230052   5.175   5.259   4.888 -2.0488 -0.8035 -0.0199
 9820SOL     OW30053   1.060   2.096   6.758  0.0669  0.4436 -0.6107
 9820SOL    HW130054   1.017   2.180   6.775  1.2098  0.8255  0.5063
 9820SOL    HW230055   1.042   2.043   6.836  0.7665  0.2600 -0.5678
 9821SOL     OW30056   5.021   1.622   4.889 -0.0490 -0.1207  0.0204
 9821SOL    HW130057   5.041   1.609   4.796  0.2759 -2.1858  0.3429
 9821SOL    HW230058   4.930   1.596   4.898 -0.7364  2.1635 -0.0900
 9822SOL     OW30059   2.590   3.486   4.645 -0.4181  0.4023  0.1898
 9822SOL    HW130060   2.601   3.529   4.730  0.6257  2.6417 -1.0429
 9822SOL    HW230061   2.679   3.465   4.617 -0.5976  1.5816 -1.2959
 9823SOL     OW30062   6.233   4.870   4.895  0.6052  0.6068  0.1464
 9823SOL    HW130063   6.218   4.805   4.826  2.6670 -2.7233  2.7040
 9823SOL    HW230064   6.197   4.830   4.974  2.0919  2.4872  1.8430
 9824SOL     OW30065   4.229   1.810   5.575  0.3382  0.3867  0.4635
 9824SOL    HW130066   4.222   1.903   5.551  0.6203  0.0421 -1.0061
 9824SOL    HW230067   4.142   1.775   5.559  0.9706 -0.2398 -1.8893
 9825SOL     OW30068   0.986   4.925   3.835  0.0300  0.3278  0.2413
 9825SOL    HW130069   0.929   4.861   3.792  0.6562 -0.4064  0.5016
 9825SOL    HW230070   0.984   5.001   3.776  3.9884 -2.0754 -3.2120
 9826SOL     OW30071   5.080   3.674   1.650 -0.1131  0.9846  0.1829
 9826SOL    HW130072   5.060   3.661   1.743  1.4779 -0.3820  0.3642
 9826SOL    HW230073   5.169   3.710   1.650 -0.8511  2.8618 -0.7440
 9827SOL     OW30074   2.149   0.960   4.566 -0.2673  0.3386 -0.4398
 9827SOL    HW130075   2.123   0.881   4.518  0.6379 -1.1291  1.4319
 9827SOL    HW230076   2.231   0.988   4.525  0.3057 -0.6950 -0.0171
 9828SOL     OW30077   5.559   0.373   2.089  0.8763 -0.4617  0.0623
 9828SOL    HW130078   5.553   0.406   2.000 -0.7996  0.0956  0.3560
 9828SOL    HW230079   5.517   0.287   2.086  2.1647 -1.1056  0.0173
 9829SOL     OW30080   5.259   4.936   6.096 -0.0744  0.1576  0.1525
 9829SOL    HW130081   5.340   4.984   6.083 -0.2791  0.3752 -0.3265
 9829SOL    HW230082   5.260   4.912   6.188  0.6619 -0.0752  0.0895
 9830SOL     OW30083   6.235   0.737   2.547  0.2473 -0.6021 -0.0241
 9830SOL    HW130084   6.218   0.648   2.580 -1.5971  0.6063  2.4703
 9830SOL    HW230085   6.163   0.754   2.486  0.8714 -0.9993 -0.8716
 9831SOL     OW30086   6.814   0.582   3.703  0.3158  0.5902 -0.0463
 9831SOL    HW130087   6.863   0.657   3.736 -1.0650  1.8509 -0.7674
 9831SOL    HW230088   6.740   0.574   3.763 -0.1610  0.5274 -0.6370
 9832SOL     OW30089   4.999   2.589   3.955 -0.1800 -0.1859  0.1814
 9832SOL    HW130090   5.016   2.495   3.960 -3.5205 -0.8494  0.2967
 9832SOL    HW230091   4.929   2.598   3.891  0.3667  2.2983 -0.1442
 9833SOL     OW30092   2.417   0.890   0.684  0.4527 -0.0763  0.2938
 9833SOL    HW130093   2.407   0.926   0.772  0.1678  1.2630 -0.2724
 9833SOL    HW230094   2.420   0.967   0.627  0.7925 -0.9266 -0.8519
 9834SOL     OW30095   1.653   1.040   1.850  0.4029 -0.1872  0.0198
 9834SOL    HW130096   1.736   0.996   1.870 -0.0493 -1.3680 -0.6175
 9834SOL    HW230097   1.614   1.057   1.936 -0.4776 -3.1543  0.2751
 9835SOL     OW30098   4.546   2.147   5.214 -0.0481 -0.6786 -0.3490
 9835SOL    HW130099   4.563   2.152   5.308  1.0764 -0.8828 -0.5389
 9835SOL    HW230100   4.586   2.226   5.179  0.4437 -1.1232 -0.7931
 9836SOL     OW30101   4.387   6.963   3.224 -0.5022  0.9362 -0.2230
 9836SOL    HW130102   4.426   7.051   3.231 -1.6284  1.4174  0.0598
 9836SOL    HW230103   4.319   6.961   3.291 -0.2499 -0.2919  0.0067
 9837SOL     OW30104   6.771   4.230   6.745  0.0664  0.9622  0.3397
 9837SOL    HW130105   6.761   4.141   6.779 -0.5094  1.4191  1.4090
 9837SOL    HW230106   6.824   4.275   6.811 -0.4527  1.6591  0.2962
 9838SOL     OW30107   1.040   5.371   0.131 -0.2354 -0.5800 -0.1861
 9838SOL    HW130108   1.039   5.312   0.055  0.1223 -0.4936 -0.2569
 9838SOL    HW230109   1.118   5.425   0.119  2.2147 -3.3364  2.3724
 9839SOL     OW30110   6.184   2.105   4.209  0.1736  0.3104  0.6359
 9839SOL    HW130111   6.189   2.110   4.305 -1.5437  1.6557  0.6844
 9839SOL    HW230112   6.135   2.025   4.191  1.3260 -0.4495  0.8446
 9840SOL     OW30113   1.197   6.964   3.097  1.1413  0.0675  0.4485
 9840SOL    HW130114   1.107   6.958   3.129  1.3142  2.9392  1.5620
 9840SOL    HW230115   1.248   6.911   3.158  0.3779 -0.7280  0.4075
 9841SOL     OW30116   1.024   0.914   5.813  0.2333 -0.1427 -0.5438
 9841SOL    HW130117   0.978   0.836   5.845 -3.0880  1.2385 -1.7291
 9841SOL    HW230118   1.015   0.977   5.885  1.9317 -0.4554 -0.0424
 9842SOL     OW30119   1.977   5.070   0.107  0.0791  0.0430  0.2091
 9842SOL    HW130120   1.981   5.141   0.171  1.5838  0.2514 -0.0977
 9842SOL    HW230121   1.922   5.003   0.148 -1.6262  1.4938  0.3734
 9843SOL     OW30122   4.837   1.083   2.682  0.9136  0.8112  0.2983
 9843SOL    HW130123   4.826   1.012   2.746  1.8735  1.3485  1.0771
 9843SOL    HW230124   4.882   1.043   2.608  2.2006  0.7891  1.0838
 9844SOL     OW30125   0.471   1.205   2.432  0.0671 -0.3266  0.2268
 9844SOL    HW130126   0.401   1.141   2.445  0.0376 -0.5944 -1.1114
 9844SOL    HW230127   0.439   1.285   2.475 -0.8034 -0.6215  0.1456
 9845SOL     OW30128   5.686   1.150   2.669  0.2087  0.2611 -0.0685
 9845SOL    HW130129   5.612   1.107   2.626  2.1885 -2.0900 -1.2772
 9845SOL    HW230130   5.755   1.084   2.668  2.6369  2.7291  0.1385
 9846SOL     OW30131   2.371   4.348   1.873 -0.2586 -0.6495  0.6093
 9846SOL    HW130132   2.408   4.265   1.844 -1.2036 -1.0846  0.6072
 9846SOL    HW230133   2.288   4.324   1.915  0.2591  0.1368  2.1188
 9847SOL     OW30134   3.046   5.482   0.081 -0.1554 -0.0573 -0.3257
 9847SOL    HW130135   3.018   5.476   0.172 -0.4935  2.2327 -0.2450
 9847SOL    HW230136   3.141   5.481   0.085 -0.1524  1.7144  0.2005
 9848SOL     OW30137   3.752   1.162   1.128  0.1195  0.4111 -0.3296
 9848SOL    HW130138   3.826   1.103   1.138 -1.6586 -1.4134  2.7920
 9848SOL    HW230139   3.785   1.248   1.155  1.1263 -0.3673  0.9322
 9849SOL     OW30140   2.254   5.398   5.379  0.3741  0.3986  0.0562
 9849SOL    HW130141   2.221   5.370   5.293  1.4098  0.2957 -0.3175
 9849SOL    HW230142   2.216   5.335   5.441  0.0779  0.1271 -0.3977
 9850SOL     OW30143   1.648   4.657   1.818  0.1418  0.1977 -0.1235
 9850SOL    HW130144   1.655   4.739   1.769 -0.1986  0.6536  0.5848
 9850SOL    HW230145   1.604   4.597   1.757  1.8201  0.0484 -1.2272
 9851SOL     OW30146   5.664   6.872   6.951  0.0586 -0.3473 -0.2419
 9851SOL    HW130147   5.622   6.886   7.036 -1.4263  0.1708 -1.0619
 9851SOL    HW230148   5.749   6.833   6.973  0.1717  0.8625  1.5439
 9852SOL     OW30149   4.782   1.363   6.460 -0.1270  0.5226  0.2080
 9852SOL    HW130150   4.773   1.402   6.373 -2.2622 -1.6311 -0.6150
 9852SOL    HW230151   4.702   1.386   6.506  0.0343 -0.1294  0.8357
 9853SOL     OW30152   4.140   2.757   6.148 -0.0846  0.1735 -0.1243
 9853SOL    HW130153   4.126   2.663   6.155  0.7170 -0.0117 -0.9619
 9853SOL    HW230154   4.132   2.789   6.238 -3.9146 -0.1793 -0.2316
 9854SOL     OW30155   7.048   5.512   3.732  0.2448  0.3051  0.0776
 9854SOL    HW130156   7.010   5.576   3.673  0.4482 -0.4787 -0.9225
 9854SOL    HW230157   7.106   5.562   3.789 -1.9445  1.4534  1.3562
 9855SOL     OW30158   4.234   1.889   3.626  1.1114 -0.1317  0.3997
 9855SOL    HW130159   4.266   1.806   3.660  0.4822 -0.7836 -0.5645
 9855SOL    HW230160   4.200   1.868   3.539 -0.3524  0.8472  0.6985
 9856SOL     OW30161   1.409   0.676   3.314 -0.1727  0.6828  0.1649
 9856SOL    HW130162   1.360   0.715   3.241  3.1483  0.7519 -2.1185
 9856SOL    HW230163   1.471   0.616   3.273 -0.4252 -1.8208  3.1931
 9857SOL     OW30164   1.582   0.927   5.271  0.2360  0.5312 -0.1680
 9857SOL    HW130165   1.613   0.836   5.269  0.9016  0.7470  0.0559
 9857SOL    HW230166   1.500   0.923   5.320 -1.2673 -0.3839 -2.6838
 9858SOL     OW30167   0.361   1.087   4.651  0.1736  0.1877 -0.4289
 9858SOL    HW130168   0.448   1.128   4.647 -0.0951  0.8524  0.2758
 9858SOL    HW230169   0.326   1.114   4.736 -0.8761  0.2426 -0.8702
 9859SOL     OW30170   2.929   2.642   1.967  0.2589  0.1889 -0.4501
 9859SOL    HW130171   2.981   2.578   2.017  0.0172 -2.1681 -3.0887
 9859SOL    HW230172   2.985   2.719   1.963  1.0379 -0.2013  1.8425
 9860SOL     OW30173   5.310   4.583   0.991 -0.0989 -0.2617  0.0800
 9860SOL    HW130174   5.348   4.540   1.067 -0.1154  0.5845  0.5760
 9860SOL    HW230175   5.354   4.543   0.916  0.5326 -0.4931  0.5751
 9861SOL     OW30176   5.285   2.189   1.616  0.3257 -0.0442 -0.2137
 9861SOL    HW130177   5.236   2.199   1.535 -1.1639 -0.2882  0.6361
 9861SOL    HW230178   5.376   2.182   1.589 -0.1622 -0.1010 -1.8562
 9862SOL     OW30179   5.724   3.027   1.816 -0.0163  0.4196 -0.0062
 9862SOL    HW130180   5.710   3.064   1.728 -1.3191  0.2469  0.1114
 9862SOL    HW230181   5.812   3.056   1.840  0.8804 -0.6144 -1.9038
 9863SOL     OW30182   1.801   2.101   4.172 -0.1917 -0.4930  0.0248
 9863SOL    HW130183   1.845   2.180   4.202 -0.5249 -0.1657 -0.3409
 9863SOL    HW230184   1.872   2.044   4.142  0.1066 -0.6670  1.0672
 9864SOL     OW30185   2.323   1.906   5.749 -0.3693 -0.2491 -0.0428
 9864SOL    HW130186   2.335   1.947   5.663 -1.7796  1.3016  0.4729
 9864SOL    HW230187   2.235   1.931   5.775 -0.4769 -1.8963  1.2438
 9865SOL     OW30188   0.720   2.821   3.846 -0.0399  0.4425 -0.2475
 9865SOL    HW130189   0.684   2.787   3.928  0.3587  0.0288 -0.2406
 9865SOL    HW230190   0.719   2.916   3.856  0.3928  0.3806  0.3966
 9866SOL     OW30191   5.675   1.347   4.558  0.3965 -0.3629  0.2466
 9866SOL    HW130192   5.755   1.382   4.596 -0.0757  0.8342  0.1553
 9866SOL    HW230193   5.606   1.371   4.620 -0.0728 -0.2413 -0.3123
 9867SOL     OW30194   3.945   3.383   6.333  0.0508  0.4466 -0.2120
 9867SOL    HW130195   3.949   3.308   6.273 -0.8429  1.2111 -1.2552
 9867SOL    HW230196   3.993   3.354   6.411 -0.1977 -1.1753 -0.6350
 9868SOL     OW30197   2.850   7.046   2.760  0.7392 -0.4947  0.2179
 9868SOL    HW130198   2.890   7.018   2.678  1.5966  1.0904  0.0670
 9868SOL    HW230199   2.761   7.072   2.735  0.6734 -0.9581 -0.0350
 9869SOL     OW30200   6.908   0.446   4.489 -0.5164  0.3583  0.3487
 9869SOL    HW130201   6.865   0.532   4.487 -0.3384  0.4937  1.9255
 9869SOL    HW230202   6.943   0.439   4.577  0.9964 -0.6102 -0.3129
 9870SOL     OW30203   4.197   0.120   3.400  0.2437 -0.2248 -0.7001
 9870SOL    HW130204   4.184   0.030   3.371  0.3365 -0.2804 -0.5664
 9870SOL    HW230205   4.144   0.172   3.339 -1.0079 -0.4905  0.1393
 9871SOL     OW30206   1.125   4.207   4.432  0.0276  0.1415  0.2675
 9871SOL    HW130207   1.164   4.278   4.484  0.5430  2.4730 -3.1318
 9871SOL    HW230208   1.031   4.216   4.446 -0.1477  3.3971 -2.2641
 9872SOL     OW30209   7.066   0.114   5.458 -0.2110  0.2275  0.2583
 9872SOL    HW130210   7.028   0.035   5.496 -1.5577  1.2166  1.0170
 9872SOL    HW230211   7.002   0.182   5.476 -1.0070  0.7282 -3.8662
 9873SOL     OW30212   4.619   3.189   3.892  0.2317 -0.0150 -0.3578
 9873SOL    HW130213   4.597   3.204   3.984 -0.6358  1.9719 -0.8575
 9873SOL    HW230214   4.552   3.127   3.862  0.7203 -0.9416  0.4147
 9874SOL     OW30215   4.404   5.164   6.616 -0.3092  0.1727 -0.5853
 9874SOL    HW130216   4.358   5.106   6.677 -0.2752  2.1358  1.3823
 9874SOL    HW230217   4.465   5.106   6.569 -1.2950 -1.6075  0.2793
 9875SOL     OW30218   6.894   1.772   6.846  0.5501  0.4030  0.2113
 9875SOL    HW130219   6.912   1.846   6.905  0.3908 -0.0667  0.8561
 9875SOL    HW230220   6.905   1.808   6.758 -0.8053  1.5515  0.4849
 9876SOL     OW30221   3.189   7.044   2.629  0.6912 -0.0168  0.5819
 9876SOL    HW130222   3.109   6.995   2.648  0.6794  0.2419  1.2282
 9876SOL    HW230223   3.190   7.115   2.694  2.4194 -1.1333  1.8120
 9877SOL     OW30224   3.651   2.969   4.542 -0.0318  0.2939 -0.1722
 9877SOL    HW130225   3.592   3.021   4.488 -0.1788  0.6423  0.3212
 9877SOL    HW230226   3.739   3.000   4.519 -0.2580  3.0431  2.4492
 9878SOL     OW30227   1.043   3.688   0.557 -0.3274  0.4949 -0.1927
 9878SOL    HW130228   0.958   3.643   0.559 -0.0994  0.0623 -0.2995
 9878SOL    HW230229   1.024   3.775   0.592 -0.7505  0.2875  0.0982
 9879SOL     OW30230   3.958   5.748   1.146  0.0806 -0.3281 -0.3559
 9879SOL    HW130231   3.904   5.780   1.218  0.7078 -0.8525  0.3530
 9879SOL    HW230232   4.048   5.758   1.177  0.3904  0.2292 -1.3986
 9880SOL     OW30233   0.665   6.897   4.782 -0.4193  0.1325 -0.5538
 9880SOL    HW130234   0.597   6.908   4.849 -0.1540  1.2702 -0.4718
 9880SOL    HW230235   0.746   6.888   4.832 -0.5130 -1.3349 -0.6473
 9881SOL     OW30236   6.380   4.646   3.912 -0.5368  0.2324 -0.1717
 9881SOL    HW130237   6.396   4.632   4.006 -0.0169 -0.9562 -0.4361
 9881SOL    HW230238   6.327   4.571   3.886 -1.5878  1.1095 -0.6090
 9882SOL     OW30239   1.965   6.663   3.266 -0.6975 -0.5721 -0.1569
 9882SOL    HW130240   1.935   6.626   3.183  1.3301 -0.8861 -0.7733
 9882SOL    HW230241   2.050   6.621   3.282 -0.3796  0.5988  1.3228
 9883SOL     OW30242   3.581   1.770   5.652  0.1621  0.6659 -0.6142
 9883SOL    HW130243   3.549   1.856   5.623  2.8003  1.8204 -0.2706
 9883SOL    HW230244   3.636   1.740   5.580 -1.0662 -0.9461 -0.8952
 9884SOL     OW30245   6.981   7.028   3.716 -0.4815  0.2566  0.4272
 9884SOL    HW130246   7.064   7.071   3.735 -0.1443 -0.8097  1.4594
 9884SOL    HW230247   6.966   7.042   3.623  2.6715 -2.6550 -0.6122
 9885SOL     OW30248   2.227   2.343   5.676 -0.3860 -0.0140 -0.2205
 9885SOL    HW130249   2.256   2.297   5.755  2.3718  1.6633 -0.1911
 9885SOL    HW230250   2.132   2.339   5.680 -0.2833 -0.6555  2.7748
 9886SOL     OW30251   0.081   2.574   3.317 -0.1213  0.4620 -0.1661
 9886SOL    HW130252   0.031   2.579   3.236  0.5335  2.4094 -0.4785
 9886SOL    HW230253   0.033   2.630   3.378 -1.0895 -1.6664  1.0838
 9887SOL     OW30254   3.764   5.713   3.484  0.3550  0.1409 -0.3603
 9887SOL    HW130255   3.773   5.708   3.389  0.5019 -2.2419 -0.2558
 9887SOL    HW230256   3.793   5.627   3.515  1.7198  1.3844  1.9620
 9888SOL     OW30257   1.761   0.859   0.986 -0.0866 -0.3232 -0.9546
 9888SOL    HW130258   1.756   0.766   1.007 -0.0683 -0.0389  0.3282
 9888SOL    HW230259   1.676   0.894   1.011  0.4405  0.2907  0.0376
 9889SOL     OW30260   6.593   3.605   4.359 -0.0149 -0.1206  0.1270
 9889SOL    HW130261   6.656   3.666   4.322  0.3960 -1.7049 -1.8700
 9889SOL    HW230262   6.643   3.525   4.376 -1.0160 -0.6716  0.5802
 9890SOL     OW30263   0.703   5.080   0.014  0.6389 -0.3403  0.2720
 9890SOL    HW130264   0.789   5.090  -0.027  0.2247  1.2410 -0.2607
 9890SOL    HW230265   0.686   5.165   0.055 -1.6335  0.1336 -1.5389
 9891SOL     OW30266   1.636   4.835   3.208 -0.1489 -0.4153 -0.3994
 9891SOL    HW130267   1.630   4.912   3.265 -0.6503 -0.9825  0.3290
 9891SOL    HW230268   1.642   4.871   3.120 -0.2191  0.4619 -0.0586
 9892SOL     OW30269   0.914   5.481   1.595 -0.3187  0.0154  0.0374
 9892SOL    HW130270   0.941   5.462   1.685 -1.9229  1.1967  0.7770
 9892SOL    HW230271   0.886   5.396   1.560  0.7491 -0.5309  0.4788
 9893SOL     OW30272   1.206   0.721   1.818 -0.7909  0.1229 -0.0247
 9893SOL    HW130273   1.266   0.695   1.749 -0.6571  1.8052 -0.5730
 9893SOL    HW230274   1.210   0.650   1.882  2.3928  0.5586  0.3391
 9894SOL     OW30275   5.080   3.293   2.227  0.0196  0.1415 -0.0955
 9894SOL    HW130276   5.120   3.320   2.145  0.4993 -0.1278  0.0483
 9894SOL    HW230277   5.093   3.367   2.286 -0.5413  0.4301 -0.3370
 9895SOL     OW30278   6.401   0.587   3.770 -0.1739  0.4124 -0.4919
 9895SOL    HW130279   6.422   0.679   3.788  2.5734 -0.5312  1.5114
 9895SOL    HW230280   6.338   0.563   3.838 -1.0873  0.8593 -1.1701
 9896SOL     OW30281   4.037   1.713   4.979  0.2876 -0.4826 -0.4376
 9896SOL    HW130282   3.969   1.714   4.911  0.1560 -1.3584 -0.3262
 9896SOL    HW230283   4.072   1.802   4.979 -0.6651 -0.0969 -0.6905
 9897SOL     OW30284   2.562   6.053   1.591 -0.1559 -0.2531  0.4718
 9897SOL    HW130285   2.471   6.037   1.568 -0.9963  2.1080  2.0080
 9897SOL    HW230286   2.581   6.140   1.555  0.6417  0.4552  2.5302
 9898SOL     OW30287   6.836   2.171   1.007  0.1462  0.2603  0.2094
 9898SOL    HW130288   6.852   2.083   1.041 -2.3385 -0.8078 -1.2734
 9898SOL    HW230289   6.793   2.217   1.079 -1.6797 -0.8320 -0.1480
 9899SOL     OW30290   2.022   1.204   1.522  0.0810  0.4438 -0.1921
 9899SOL    HW130291   2.094   1.266   1.505 -2.0804  2.9769 -0.4845
 9899SOL    HW230292   2.018   1.198   1.617  1.5892 -0.8871 -0.1783
 9900SOL     OW30293   0.354   5.432   2.650 -0.3924 -0.1766 -0.0461
 9900SOL    HW130294   0.397   5.467   2.571  2.2011 -0.5692  1.1489
 9900SOL    HW230295   0.425   5.423   2.714 -2.0164 -2.2449  1.5292
 9901SOL     OW30296   5.620   6.966   5.566  0.9117 -0.4575  0.1758
 9901SOL    HW130297   5.622   7.056   5.599  0.9917 -0.2683 -0.3486
 9901SOL    HW230298   5.681   6.966   5.493 -1.4996 -0.1368 -1.8967
 9902SOL     OW30299   4.776   0.460   5.623  0.0794 -0.0957 -0.0402
 9902SOL    HW130300   4.715   0.448   5.695  0.7201  0.1046  0.5458
 9902SOL    HW230301   4.757   0.388   5.563 -2.3774  1.3533 -1.0713
 9903SOL     OW30302   6.090   1.587   1.399 -0.2539  0.4872 -0.3098
 9903SOL    HW130303   6.078   1.613   1.490  1.1171  1.0203 -0.2756
 9903SOL    HW230304   6.004   1.554   1.372 -0.7175  0.5053  1.1118
 9904SOL     OW30305   4.041   2.070   0.674  0.2014 -0.2983  0.2468
 9904SOL    HW130306   3.958   2.046   0.633 -0.3625 -0.7009  1.6185
 9904SOL    HW230307   4.017   2.124   0.749  1.2412  0.5460 -0.0052
 9905SOL     OW30308   0.702   0.806   6.903 -0.0464 -0.2613 -0.0266
 9905SOL    HW130309   0.765   0.750   6.858  0.2492  0.8342 -0.9873
 9905SOL    HW230310   0.640   0.832   6.835 -1.0419 -0.6065  0.7309
 9906SOL     OW30311   3.171   1.306   2.179 -0.0489 -0.0644  0.1273
 9906SOL    HW130312   3.122   1.335   2.102 -0.1837  0.3709  0.3712
 9906SOL    HW230313   3.171   1.382   2.237  0.8372 -0.0931  0.1704
 9907SOL     OW30314   2.258   5.756   1.545 -0.0865 -0.1168  0.0959
 9907SOL    HW130315   2.332   5.709   1.584 -0.3586 -0.3317  0.3521
 9907SOL    HW230316   2.299   5.828   1.497  0.2926 -0.2396  0.2283
 9908SOL     OW30317   0.331   4.521   1.011  0.3355  0.5464  0.1832
 9908SOL    HW130318   0.314   4.523   0.917 -0.1134  1.7346  0.2822
 9908SOL    HW230319   0.425   4.507   1.018  0.3006 -0.0404 -0.4313
 9909SOL     OW30320   2.445   0.804   6.067 -0.1368  0.2580  0.0425
 9909SOL    HW130321   2.518   0.865   6.057 -1.2540  1.5074 -0.8088
 9909SOL    HW230322   2.476   0.722   6.029  0.3774  1.1501 -1.4885
 9910SOL     OW30323   5.762   2.943   7.165 -0.3391  0.4930 -0.4401
 9910SOL    HW130324   5.775   2.948   7.259  1.4656 -1.3355 -0.5745
 9910SOL    HW230325   5.806   3.021   7.131  0.3104  0.3550  0.0853
 9911SOL     OW30326   3.919   2.340   1.622  0.3737  0.4571  0.4531
 9911SOL    HW130327   3.825   2.328   1.637  0.7309 -0.8119  1.7172
 9911SOL    HW230328   3.935   2.296   1.538  0.1333 -0.6642  0.9973
 9912SOL     OW30329   1.795   4.646   0.841 -0.2481  0.5128 -0.3587
 9912SOL    HW130330   1.784   4.740   0.824 -0.4997  0.2454 -1.7304
 9912SOL    HW230331   1.876   4.623   0.796 -0.2979  0.0268 -0.1993
 9913SOL     OW30332   0.169   5.992   4.098 -0.5084  0.2344  0.0184
 9913SOL    HW130333   0.226   6.008   4.174 -0.1625 -0.3459 -0.1209
 9913SOL    HW230334   0.088   5.958   4.136 -0.5283  0.4436  0.1662
 9914SOL     OW30335   4.440   4.772   0.432 -0.4163 -0.7373 -0.2398
 9914SOL    HW130336   4.432   4.867   0.437  0.0254 -0.6975 -0.2461
 9914SOL    HW230337   4.503   4.750   0.501  0.7846 -0.8495 -1.3479
 9915SOL     OW30338   4.020   2.532   2.277  0.7773 -0.4218 -0.0330
 9915SOL    HW130339   3.982   2.620   2.284 -0.2162 -0.7737 -0.8334
 9915SOL    HW230340   3.991   2.500   2.191  1.5988 -1.3080  0.0156
 9916SOL     OW30341   2.998   6.647   3.874  0.0968 -0.2248 -0.4996
 9916SOL    HW130342   2.950   6.662   3.955 -2.8381 -2.0006 -1.8233
 9916SOL    HW230343   3.081   6.607   3.903 -0.3798  0.2821  1.6662
 9917SOL     OW30344   6.910   2.175   1.424  0.0078  0.3979 -0.8812
 9917SOL    HW130345   6.967   2.224   1.483  0.1359  0.5864 -1.1568
 9917SOL    HW230346   6.968   2.145   1.354 -0.5007  1.9005 -1.9755
 9918SOL     OW30347   6.436   1.014   3.172 -0.2136  0.4792  0.3100
 9918SOL    HW130348   6.350   0.976   3.186 -0.1945  0.0597 -0.6719
 9918SOL    HW230349   6.494   0.938   3.162 -0.2853  0.7275 -2.3287
 9919SOL     OW30350   5.811   2.135   1.384 -0.1616 -0.7292  0.2069
 9919SOL    HW130351   5.830   2.131   1.478  0.0600 -1.0435  0.1502
 9919SOL    HW230352   5.814   2.044   1.356 -0.0096 -0.6113 -0.1499
 9920SOL     OW30353   6.993   5.202   2.510 -0.2996  0.2828  0.1985
 9920SOL    HW130354   7.072   5.197   2.456 -0.2349 -0.7929  0.3715
 9920SOL    HW230355   6.924   5.166   2.455 -0.6918  1.2751  0.0302
 9921SOL     OW30356   1.537   4.881   6.392  0.3726 -0.4349 -0.0257
 9921SOL    HW130357   1.562   4.794   6.422 -0.7913 -0.5908  0.4877
 9921SOL    HW230358   1.528   4.932   6.473 -0.3781 -0.2263 -0.2393
 9922SOL     OW30359   1.078   4.871   5.665 -0.1087  0.7525  0.1597
 9922SOL    HW130360   0.996   4.829   5.694  0.2629  0.1795  0.4016
 9922SOL    HW230361   1.064   4.964   5.682 -1.5291  0.9290 -1.7684
 9923SOL     OW30362   2.995   5.148   0.911  0.4382  0.0502  0.8300
 9923SOL    HW130363   3.037   5.068   0.878 -1.1413 -0.5876  0.3224
 9923SOL    HW230364   2.987   5.205   0.835 -2.5150 -1.1217  0.2012
 9924SOL     OW30365   4.232   4.428   5.353 -0.0732 -0.1871 -0.0495
 9924SOL    HW130366   4.282   4.419   5.434 -0.1032 -1.2692 -0.1467
 9924SOL    HW230367   4.289   4.478   5.295  1.1517 -1.9112 -0.3684
 9925SOL     OW30368   3.625   0.369   2.090  0.0408  0.3168  0.1054
 9925SOL    HW130369   3.609   0.397   2.000 -1.0703  2.1853  0.8583
 9925SOL    HW230370   3.681   0.437   2.128  0.6123 -0.5227  0.7934
 9926SOL     OW30371   7.226   1.736   3.484 -0.1830 -0.7206  0.2640
 9926SOL    HW130372   7.248   1.665   3.423  1.5278 -0.6768  0.7921
 9926SOL    HW230373   7.203   1.810   3.427 -0.7160 -1.3120 -0.2984
 9927SOL     OW30374   0.316   0.212   2.412 -0.4710 -0.6781  0.7256
 9927SOL    HW130375   0.338   0.305   2.410  1.2169 -1.0567 -2.4864
 9927SOL    HW230376   0.376   0.175   2.477  0.9954  0.0220 -0.2003
 9928SOL     OW30377   2.086   4.629   1.904  0.1235 -0.6804 -0.6480
 9928SOL    HW130378   2.124   4.611   1.990 -0.2604  0.1357 -0.2952
 9928SOL    HW230379   2.137   4.702   1.869 -0.9694  0.2980 -0.2502
 9929SOL     OW30380   6.552   2.621   2.721  0.8387 -0.2379  0.5419
 9929SOL    HW130381   6.645   2.632   2.703  0.7176  1.9320  1.0725
 9929SOL    HW230382   6.512   2.702   2.690 -0.6159 -0.4062  1.9268
 9930SOL     OW30383   0.447   1.070   2.137 -0.7528 -0.4312 -0.2781
 9930SOL    HW130384   0.364   1.087   2.180 -0.2809  0.0640  0.4432
 9930SOL    HW230385   0.508   1.134   2.175 -0.4216  0.2658 -1.9435
 9931SOL     OW30386   5.047   6.772   2.684  0.0073  0.2818 -0.2956
 9931SOL    HW130387   4.990   6.849   2.691 -1.6604 -0.8271 -1.3167
 9931SOL    HW230388   5.037   6.743   2.594  0.3410 -1.3472  0.1781
 9932SOL     OW30389   4.839   5.567   1.015 -0.3198  0.3050 -0.2363
 9932SOL    HW130390   4.884   5.583   1.098 -0.8771  1.8246 -0.2112
 9932SOL    HW230391   4.883   5.490   0.979  0.2739 -0.0639  1.2158
 9933SOL     OW30392   0.257   0.456   4.071 -0.0488 -0.0818 -0.5009
 9933SOL    HW130393   0.163   0.461   4.056 -0.0824 -2.0625 -1.1692
 9933SOL    HW230394   0.267   0.398   4.146  0.6828 -1.1567 -1.4099
 9934SOL     OW30395   4.446   2.303   0.990  0.3911  0.2560 -0.4478
 9934SOL    HW130396   4.506   2.230   1.001  1.6806  1.3895  0.2820
 9934SOL    HW230397   4.480   2.351   0.914  0.6199  1.0836  0.1638
 9935SOL     OW30398   3.570   3.035   5.584  0.2531  0.4431  0.4571
 9935SOL    HW130399   3.597   3.127   5.581  0.6452  0.4072  2.1841
 9935SOL    HW230400   3.520   3.021   5.503  0.6211  2.0326 -0.0525
 9936SOL     OW30401   4.514   1.091   2.548  0.6177 -0.1079 -0.3102
 9936SOL    HW130402   4.476   1.109   2.463  0.9627 -0.0176 -0.4479
 9936SOL    HW230403   4.558   1.172   2.573  0.8693 -0.2634 -0.2372
 9937SOL     OW30404   4.503   6.104   6.741  0.5444  0.2271 -0.2620
 9937SOL    HW130405   4.504   6.174   6.806  0.0169  0.5324 -0.5828
 9937SOL    HW230406   4.527   6.025   6.790  2.1696  0.7963 -0.1026
 9938SOL     OW30407   3.858   2.140   2.298 -0.3389 -0.1213 -0.3135
 9938SOL    HW130408   3.924   2.199   2.334 -0.0791 -0.3695 -0.3757
 9938SOL    HW230409   3.776   2.188   2.305 -0.3004 -0.1914  0.6615
 9939SOL     OW30410   3.724   6.100   2.726  0.1568  0.0227  0.0230
 9939SOL    HW130411   3.814   6.067   2.726  0.0544 -0.2435  1.2241
 9939SOL    HW230412   3.734   6.195   2.734  0.2869 -0.1295  1.7779
 9940SOL     OW30413   5.685   4.099   6.538  0.1742 -0.6671  0.0310
 9940SOL    HW130414   5.725   4.021   6.577  0.1868 -0.3620  0.6222
 9940SOL    HW230415   5.610   4.064   6.488  1.6506 -1.3306 -1.7695
 9941SOL     OW30416   6.085   5.087   4.843 -0.3405 -0.0959 -1.0139
 9941SOL    HW130417   6.146   5.121   4.777 -0.5040 -1.7405 -2.0492
 9941SOL    HW230418   6.123   5.004   4.870 -1.0601 -0.1478 -0.1379
 9942SOL     OW30419   2.888   1.085   2.135 -0.3260 -0.0831  0.2737
 9942SOL    HW130420   2.891   1.107   2.042  0.6529 -0.3434  0.2350
 9942SOL    HW230421   2.875   1.169   2.179  1.0389  0.2852 -0.0022
 9943SOL     OW30422   1.967   3.074   5.059  0.4122  0.0194  0.2874
 9943SOL    HW130423   1.962   3.168   5.043  3.0878  0.0301 -0.6524
 9943SOL    HW230424   1.985   3.067   5.153 -2.1075  0.3387  0.8328
 9944SOL     OW30425   6.792   6.896   3.902  0.2792  0.1567 -0.0451
 9944SOL    HW130426   6.700   6.888   3.878 -0.1779  0.9673  1.4199
 9944SOL    HW230427   6.823   6.973   3.853 -0.1057  0.5486  0.3260
 9945SOL     OW30428   7.232   0.341   3.194  0.2158  0.1360 -0.0695
 9945SOL    HW130429   7.215   0.319   3.102 -1.6268 -1.2699  0.5742
 9945SOL    HW230430   7.310   0.396   3.191  1.3653 -1.5218 -2.3003
 9946SOL     OW30431   1.636   2.862   2.522 -0.2637 -0.0611  0.3484
 9946SOL    HW130432   1.673   2.923   2.458  0.1866 -0.6410  0.0485
 9946SOL    HW230433   1.702   2.856   2.591 -1.0661  1.1287  1.2436
 9947SOL     OW30434   5.271   5.001   2.301 -0.0407  0.3795 -0.2815
 9947SOL    HW130435   5.333   4.995   2.374  1.8337  0.0155 -1.8836
 9947SOL    HW230436   5.296   5.080   2.254 -1.7923  1.0917 -0.0667
 9948SOL     OW30437   2.534   1.441   5.716 -0.6802  0.5451  0.7118
 9948SOL    HW130438   2.555   1.387   5.640 -0.5325 -0.6729  1.6158
 9948SOL    HW230439   2.521   1.529   5.679 -0.7306 -0.0508 -0.7301
 9949SOL     OW30440   0.092   5.610   3.932  0.1824 -0.2887 -0.5153
 9949SOL    HW130441   0.009   5.655   3.947 -0.6336 -1.7095 -0.6742
 9949SOL    HW230442   0.130   5.654   3.855 -0.6942 -0.0077 -0.7850
 9950SOL     OW30443   2.996   1.618   1.046 -0.3373  0.4768  0.3009
 9950SOL    HW130444   2.966   1.529   1.028 -1.2799  0.3176  2.4869
 9950SOL    HW230445   3.088   1.618   1.022  0.1314 -1.6188  1.9045
 9951SOL     OW30446   2.679   5.206   1.994  0.4708 -0.1682 -0.3537
 9951SOL    HW130447   2.674   5.135   2.058  0.1268  1.8603  1.9189
 9951SOL    HW230448   2.733   5.170   1.923  2.6030 -1.7752  1.9851
 9952SOL     OW30449   3.707   5.414   6.282  0.4123 -0.5741  0.0987
 9952SOL    HW130450   3.629   5.412   6.338  1.4719 -0.8709  1.5907
 9952SOL    HW230451   3.716   5.506   6.258  1.2116 -0.0419  2.2803
 9953SOL     OW30452   7.164   0.868   2.683  0.3536  0.7246 -1.1120
 9953SOL    HW130453   7.126   0.954   2.665 -0.8420  0.3923 -0.3044
 9953SOL    HW230454   7.187   0.871   2.776 -0.4374 -0.0802 -0.8732
 9954SOL     OW30455   5.835   4.738   0.421 -0.2491  0.0076 -0.4417
 9954SOL    HW130456   5.850   4.811   0.481 -1.3205 -0.5154  0.4849
 9954SOL    HW230457   5.882   4.664   0.462  0.1617 -0.0215 -0.9612
 9955SOL     OW30458   0.796   1.157   3.052  0.5069  0.5059 -0.2001
 9955SOL    HW130459   0.718   1.146   3.107  0.6032 -0.0690 -0.1764
 9955SOL    HW230460   0.762   1.186   2.968  0.3695  1.5423  0.2120
 9956SOL     OW30461   2.163   2.675   1.380  0.2689 -0.0030 -0.6697
 9956SOL    HW130462   2.184   2.626   1.460  1.6984  1.3753 -0.1790
 9956SOL    HW230463   2.211   2.629   1.312 -0.6922 -0.9858 -0.7130
 9957SOL     OW30464   4.476   5.139   7.007  0.4954 -0.1750  0.3351
 9957SOL    HW130465   4.522   5.059   7.033  1.4636  0.5701  0.9563
 9957SOL    HW230466   4.536   5.183   6.947  0.0979  0.2348  0.2311
 9958SOL     OW30467   1.618   2.727   4.809  0.1424  0.0719  0.5933
 9958SOL    HW130468   1.709   2.700   4.795  0.0554  0.5894 -1.0331
 9958SOL    HW230469   1.624   2.817   4.840  0.0815  1.1111 -2.3337
 9959SOL     OW30470   4.218   1.541   1.390  0.2271  0.0351  0.2489
 9959SOL    HW130471   4.301   1.526   1.345  0.3818  0.2442  0.4587
 9959SOL    HW230472   4.151   1.527   1.323  0.4284 -0.1890  0.0919
 9960SOL     OW30473   1.454   3.586   6.638  0.6158  0.2287  0.0555
 9960SOL    HW130474   1.503   3.579   6.720  0.2646  0.2892  0.2693
 9960SOL    HW230475   1.491   3.663   6.595 -1.5430  2.3095  1.7426
 9961SOL     OW30476   5.367   5.080   1.594  0.1190 -0.2124  0.6178
 9961SOL    HW130477   5.279   5.087   1.558  0.1244  0.1277  0.6665
 9961SOL    HW230478   5.384   4.986   1.600  0.6276 -0.2951 -1.5459
 9962SOL     OW30479   1.218   1.974   3.501 -0.3494  0.1589 -0.1644
 9962SOL    HW130480   1.224   1.969   3.596  1.2840 -0.6418 -0.2955
 9962SOL    HW230481   1.298   1.933   3.469 -2.1948 -2.2333 -1.9582
 9963SOL     OW30482   1.261   0.648   4.840 -0.6407  0.2599 -0.0960
 9963SOL    HW130483   1.209   0.568   4.841 -0.9970  0.4869 -0.3992
 9963SOL    HW230484   1.331   0.631   4.778 -0.8923  0.2896 -0.3922
 9964SOL     OW30485   5.495   1.057   3.624 -0.1933 -0.2349  0.7423
 9964SOL    HW130486   5.577   1.028   3.665  0.1268  0.7852  0.8290
 9964SOL    HW230487   5.427   1.003   3.665 -0.1363  2.1636  4.1525
 9965SOL     OW30488   5.435   1.961   1.771  0.3131  0.5395 -0.1373
 9965SOL    HW130489   5.460   1.981   1.861 -1.7729  0.2146  0.5418
 9965SOL    HW230490   5.339   1.958   1.773  0.1214  3.1222 -2.9340
 9966SOL     OW30491   3.455   3.821   1.461  0.2462  0.0505 -0.2359
 9966SOL    HW130492   3.488   3.875   1.390 -0.1624 -0.3677 -0.7503
 9966SOL    HW230493   3.529   3.766   1.486  0.1477 -0.4137 -0.9335
 9967SOL     OW30494   2.804   0.413   3.291 -0.4973  0.0213 -0.0845
 9967SOL    HW130495   2.870   0.394   3.224 -0.8866  0.4877 -0.6069
 9967SOL    HW230496   2.850   0.403   3.374  0.2836  0.5125 -0.4486
 9968SOL     OW30497   3.745   0.744   2.012 -0.1669 -0.2741 -0.0570
 9968SOL    HW130498   3.652   0.763   2.004 -0.0587  0.3958  0.2853
 9968SOL    HW230499   3.786   0.829   2.026  0.2070 -0.8562  2.5516
 9969SOL     OW30500   3.962   0.610   7.245 -0.4502  0.1641 -0.0802
 9969SOL    HW130501   3.958   0.522   7.283  2.4500  0.3811  0.8998
 9969SOL    HW230502   4.048   0.613   7.202 -0.3383  2.6406  0.2340
 9970SOL     OW30503   6.582   6.005   1.169 -0.6569 -0.4756 -0.6787
 9970SOL    HW130504   6.511   6.059   1.134 -0.7155  0.1659  0.4024
 9970SOL    HW230505   6.645   5.998   1.097 -1.8941 -1.2119 -1.7128
 9971SOL     OW30506   1.913   0.360   1.340  0.8329 -0.5236 -0.3883
 9971SOL    HW130507   1.897   0.297   1.409 -1.5661 -1.9143 -2.1388
 9971SOL    HW230508   1.861   0.437   1.364  0.4566 -0.7858 -0.3732
 9972SOL     OW30509   3.420   5.510   7.013 -0.0227 -0.4993  0.1730
 9972SOL    HW130510   3.457   5.423   7.004  1.0480 -0.0390  0.0770
 9972SOL    HW230511   3.487   5.560   7.060  0.4362  0.9479 -1.9429
 9973SOL     OW30512   6.383   1.261   4.816 -0.1530 -0.1790 -0.1769
 9973SOL    HW130513   6.387   1.195   4.886 -2.0798 -1.0526 -0.8724
 9973SOL    HW230514   6.437   1.333   4.848 -0.2543 -0.9578  1.7940
 9974SOL     OW30515   3.174   6.828   1.363  0.5852 -0.1830  0.0936
 9974SOL    HW130516   3.154   6.863   1.450 -1.1818  1.3332 -0.8957
 9974SOL    HW230517   3.266   6.802   1.369  0.7194  0.6238  2.1767
 9975SOL     OW30518   6.783   3.902   3.292  0.1092 -0.5427 -0.2798
 9975SOL    HW130519   6.865   3.863   3.321 -0.4259 -0.9707  0.6823
 9975SOL    HW230520   6.736   3.831   3.249 -0.7106 -0.8989  1.1559
 9976SOL     OW30521   5.594   6.148   1.055  0.0145  0.5644  0.4953
 9976SOL    HW130522   5.633   6.167   1.140  0.8980 -0.1410  0.2629
 9976SOL    HW230523   5.520   6.090   1.074  0.6499 -0.1776  0.7305
 9977SOL     OW30524   5.113   2.301   0.946  0.0317 -0.5829  0.1734
 9977SOL    HW130525   5.044   2.241   0.917 -0.5497  0.3281 -0.3377
 9977SOL    HW230526   5.187   2.244   0.966  0.0997 -1.3202 -2.0949
 9978SOL     OW30527   5.967   4.657   5.307 -0.0948  0.3331  0.0607
 9978SOL    HW130528   5.896   4.720   5.319 -0.3414 -0.2555  1.8869
 9978SOL    HW230529   5.942   4.583   5.362  0.9702 -0.7100 -0.8360
 9979SOL     OW30530   5.963   2.296   4.293  0.0770 -0.3399 -0.3770
 9979SOL    HW130531   6.009   2.340   4.364  0.4638 -0.7748 -0.3538
 9979SOL    HW230532   6.016   2.218   4.274 -1.3039 -1.5370  0.5141
 9980SOL     OW30533   2.514   3.002   4.963 -0.1370 -0.3443 -0.6168
 9980SOL    HW130534   2.424   2.994   4.932 -0.4435 -0.0355  0.1753
 9980SOL    HW230535   2.547   3.080   4.918 -0.1836 -0.5941 -1.0919
 9981SOL     OW30536   3.225   5.742   4.271 -0.1583 -0.2258  0.3398
 9981SOL    HW130537   3.240   5.656   4.231 -0.8162 -0.2494  0.1323
 9981SOL    HW230538   3.306   5.761   4.318 -0.8233 -2.0468  2.3611
 9982SOL     OW30539   3.401   5.102   0.054 -0.0406  0.1248  0.3416
 9982SOL    HW130540   3.326   5.077   0.000 -0.6415 -0.2669  1.3403
 9982SOL    HW230541   3.373   5.083   0.144  2.3411 -2.7670  0.5246
 9983SOL     OW30542   2.964   6.640   1.864  0.1006 -0.5414 -0.1661
 9983SOL    HW130543   2.899   6.656   1.795  0.1000  2.1204  0.3787
 9983SOL    HW230544   3.048   6.644   1.819 -0.0120 -2.1350 -0.5526
 9984SOL     OW30545   0.529   3.423   3.809 -0.3276  0.3331 -0.0041
 9984SOL    HW130546   0.445   3.436   3.764 -0.5157  0.6530  0.4349
 9984SOL    HW230547   0.584   3.380   3.744 -0.3369  1.5197 -0.8199
 9985SOL     OW30548   7.144   3.073   4.076 -0.0717  0.6185  0.4017
 9985SOL    HW130549   7.215   3.016   4.105 -0.4603  0.0101  0.1637
 9985SOL    HW230550   7.110   3.111   4.157 -0.1415  0.1231  0.6083
 9986SOL     OW30551   4.170   1.429   1.118  0.1898 -0.5468 -0.4918
 9986SOL    HW130552   4.265   1.425   1.107 -0.0894 -1.2487 -2.8201
 9986SOL    HW230553   4.137   1.461   1.035 -1.5775  0.5335  0.5958
 9987SOL     OW30554   3.210   3.629   0.988 -0.2216 -0.1755 -0.1466
 9987SOL    HW130555   3.177   3.572   0.919  0.0852  0.0060 -0.4441
 9987SOL    HW230556   3.156   3.609   1.064  1.0872 -2.1789  0.2733
 9988SOL     OW30557   4.962   1.406   2.315 -0.0813 -0.2842 -0.7248
 9988SOL    HW130558   4.877   1.436   2.285 -0.4146  1.1703  1.5311
 9988SOL    HW230559   4.953   1.399   2.410  1.9039 -1.4678 -0.5774
 9989SOL     OW30560   5.622   4.789   5.055 -0.2661  0.6602 -0.6281
 9989SOL    HW130561   5.718   4.788   5.047 -0.0740  2.9001  0.9928
 9989SOL    HW230562   5.591   4.778   4.966  1.4679 -1.9783 -0.9708
 9990SOL     OW30563   5.877   0.774   1.235  0.0166  0.4266 -0.2263
 9990SOL    HW130564   5.908   0.827   1.308  0.4333  0.0435 -0.1220
 9990SOL    HW230565   5.788   0.748   1.260 -0.1645  1.0177 -0.2496
 9991SOL     OW30566   5.366   0.940   0.392 -0.1671  0.3031 -0.0795
 9991SOL    HW130567   5.348   0.992   0.314 -0.3301  0.7177  0.2334
 9991SOL    HW230568   5.386   0.852   0.358  0.3239  0.6236 -0.6181
 9992SOL     OW30569   6.954   2.860   0.474 -0.3365 -0.5153  0.6303
 9992SOL    HW130570   6.861   2.883   0.481 -0.1229 -0.0099  2.0299
 9992SOL    HW230571   6.995   2.906   0.547  1.3891  1.0648 -1.2713
 9993SOL     OW30572   4.827   6.550   4.270  0.6157  0.6491 -0.8555
 9993SOL    HW130573   4.761   6.619   4.269  0.5821  0.6170 -0.9349
 9993SOL    HW230574   4.779   6.472   4.300  0.6026  0.6117 -0.9711
 9994SOL     OW30575   4.333   1.138   5.055  0.8841  0.4343 -0.3930
 9994SOL    HW130576   4.317   1.187   4.974  0.8289 -0.9820 -1.2656
 9994SOL    HW230577   4.248   1.099   5.076  1.3212 -0.6793 -0.6633
 9995SOL     OW30578   0.026   0.640   5.243  0.0602  0.1858 -0.6374
 9995SOL    HW130579  -0.019   0.644   5.159 -0.5487  0.4462 -0.2938
 9995SOL    HW230580  -0.010   0.712   5.294  0.7419  0.2958 -0.3025
 9996SOL     OW30581   0.302   0.222   0.560 -0.0160 -0.3704  0.1906
 9996SOL    HW130582   0.297   0.127   0.550  2.6903 -0.8023  2.2094
 9996SOL    HW230583   0.330   0.254   0.474  3.9810 -1.9873  0.7524
 9997SOL     OW30584   4.833   6.227   2.085  0.4219  0.2682  0.4065
 9997SOL    HW130585   4.897   6.230   2.014  1.1348 -1.1089  0.9618
 9997SOL    HW230586   4.884   6.247   2.164  0.0704 -0.2643  0.7775
 9998SOL     OW30587   4.947   2.508   2.189 -0.1741  0.2443  0.1628
 9998SOL    HW130588   4.855   2.499   2.163  0.1780 -1.0557 -0.7142
 9998SOL    HW230589   4.996   2.503   2.106  0.8137 -1.4450  0.8220
 9999SOL     OW30590   0.670   5.015   5.558  0.1171  0.1315  0.1858
 9999SOL    HW130591   0.623   4.975   5.631 -0.2837 -0.2456 -0.2778
 9999SOL    HW230592   0.646   4.962   5.482  1.4607 -0.1859 -0.0204
10000SOL     OW30593   0.630   3.363   0.218  0.4278 -0.5224  0.6911
10000SOL    HW130594   0.604   3.311   0.294 -0.6227  1.0069  1.4063
10000SOL    HW230595   0.550   3.374   0.167  0.9181 -0.6973 -0.1300
10001SOL     OW30596   0.778   4.909   6.748 -0.1389 -0.4055 -0.1874
10001SOL    HW130597   0.767   4.841   6.814  1.5363  0.0834  0.6345
10001SOL    HW230598   0.860   4.887   6.704  0.0880  0.7085 -0.3403
10002SOL     OW30599   4.242   5.566   3.319  0.7203 -0.1232  0.1956
10002SOL    HW130600   4.199   5.651   3.307 -0.7961 -1.1004 -1.6137
10002SOL    HW230601   4.278   5.570   3.407 -0.7050  1.8061  0.7399
10003SOL     OW30602   4.240   6.637   4.003 -0.0143 -0.4354  0.5480
10003SOL    HW130603   4.269   6.728   4.012  1.5328 -0.3396 -4.0936
10003SOL    HW230604   4.147   6.639   4.025  0.5449  1.7356  2.9760
10004SOL     OW30605   0.141   6.608   0.861  0.2226  0.0166 -0.3425
10004SOL    HW130606   0.128   6.550   0.786  1.9132 -1.9841  0.8740
10004SOL    HW230607   0.205   6.672   0.831  1.6249 -1.3600 -0.3093
10005SOL     OW30608   7.090   0.958   5.039  0.4945 -0.0860  0.3313
10005SOL    HW130609   7.005   0.972   5.081  0.2955  0.2777 -0.1773
10005SOL    HW230610   7.110   0.866   5.054  0.6794  0.1563  1.6749
10006SOL     OW30611   5.529   0.408   1.811  0.1801  0.7433  0.6375
10006SOL    HW130612   5.548   0.451   1.728 -0.1645 -0.3829 -0.0382
10006SOL    HW230613   5.449   0.358   1.794 -1.1364  2.2196  2.2707
10007SOL     OW30614   5.009   3.748   2.781 -0.0110 -0.1065 -0.3079
10007SOL    HW130615   4.940   3.690   2.812 -0.7168  0.9266  0.1160
10007SOL    HW230616   5.068   3.758   2.857  1.1427 -1.7530 -0.9710
10008SOL     OW30617   7.119   0.717   1.425 -0.3661  0.4245 -0.1668
10008SOL    HW130618   7.058   0.655   1.384  1.8217 -1.2249 -0.9914
10008SOL    HW230619   7.094   0.717   1.518  0.1089 -2.3045 -0.0194
10009SOL     OW30620   6.067   4.764   2.140 -0.0271 -0.4064 -0.3329
10009SOL    HW130621   6.073   4.736   2.049 -1.5850  0.7444 -0.7989
10009SOL    HW230622   6.037   4.686   2.187  0.2486 -0.8404 -0.8691
10010SOL     OW30623   0.703   3.894   1.921 -0.4205 -0.0610  0.5409
10010SOL    HW130624   0.663   3.920   1.837  2.2017  2.7171  0.0512
10010SOL    HW230625   0.686   3.801   1.928 -3.7486  0.3111 -1.3955
10011SOL     OW30626   2.892   1.925   1.370 -0.1721 -0.2704  0.0611
10011SOL    HW130627   2.834   1.854   1.396  1.0716 -1.0631  0.7486
10011SOL    HW230628   2.977   1.902   1.408 -0.0208  2.1983  1.3527
10012SOL     OW30629   6.487   1.298   3.859 -0.3179 -0.2415 -0.4695
10012SOL    HW130630   6.421   1.251   3.809 -0.3273 -0.2397 -0.4594
10012SOL    HW230631   6.530   1.355   3.795  0.1710 -0.7806 -0.6194
10013SOL     OW30632   1.161   4.444   2.444  0.2639  0.0465 -0.1354
10013SOL    HW130633   1.208   4.500   2.382  0.9700  1.7318  1.8784
10013SOL    HW230634   1.078   4.489   2.459  0.5795  0.2382  1.0288
10014SOL     OW30635   5.926   7.080   2.985  0.3319 -0.2466 -0.3906
10014SOL    HW130636   6.008   7.077   2.936  0.9206 -0.0347  0.5605
10014SOL    HW230637   5.939   7.019   3.058  0.7259  1.8603  1.3612
10015SOL     OW30638   0.324   6.427   0.394  0.2368  0.3898  0.9029
10015SOL    HW130639   0.286   6.400   0.310  0.2661  0.0725  0.9945
10015SOL    HW230640   0.326   6.348   0.447  0.4572  0.5379  1.1161
10016SOL     OW30641   0.322   2.032   5.581 -0.0611 -0.0172 -0.2133
10016SOL    HW130642   0.344   2.111   5.631 -1.3112  0.4710 -0.4024
10016SOL    HW230643   0.307   2.064   5.492 -1.3629 -0.3345 -0.1228
10017SOL     OW30644   4.390   1.537   3.461 -0.5929  0.0460  0.6078
10017SOL    HW130645   4.465   1.477   3.456 -1.7930 -1.3174 -2.2021
10017SOL    HW230646   4.314   1.479   3.466 -1.7722  1.2637 -1.9939
10018SOL     OW30647   0.727   0.469   4.868 -0.6863  0.1944  0.0444
10018SOL    HW130648   0.765   0.425   4.793 -1.9346 -1.0484  0.1283
10018SOL    HW230649   0.671   0.403   4.910 -0.7196  1.1323  1.5383
10019SOL     OW30650   5.670   6.434   3.089 -0.1395  0.3264  0.5039
10019SOL    HW130651   5.586   6.458   3.049 -0.0785  0.7932  0.6522
10019SOL    HW230652   5.733   6.497   3.054  0.1242  0.0653  0.5023
10020SOL     OW30653   0.932   3.697   3.500  0.6276 -0.0824 -0.2594
10020SOL    HW130654   1.027   3.705   3.510  0.3772 -0.5451  2.7679
10020SOL    HW230655   0.921   3.634   3.429  2.5900 -1.2900  0.4701
10021SOL     OW30656   0.510   0.969   5.558  0.0446 -0.3259  0.1185
10021SOL    HW130657   0.444   1.038   5.555 -0.4894 -0.7387  1.9910
10021SOL    HW230658   0.592   1.015   5.577 -0.1346 -0.1029  0.3396
10022SOL     OW30659   0.883   3.017   6.719 -0.0555  0.9344 -0.2481
10022SOL    HW130660   0.835   3.099   6.709 -1.3615  0.2194  0.0389
10022SOL    HW230661   0.843   2.958   6.654  0.0436  0.1545  0.3954
10023SOL     OW30662   3.371   1.607   1.865  0.2285 -0.1319 -0.3827
10023SOL    HW130663   3.444   1.666   1.881  0.7251 -0.8321 -0.0696
10023SOL    HW230664   3.408   1.534   1.816 -0.4497 -0.0325 -1.0583
10024SOL     OW30665   5.148   1.393   3.570 -0.4285  0.1547  0.3523
10024SOL    HW130666   5.124   1.480   3.602 -0.3900  0.4681 -0.4632
10024SOL    HW230667   5.071   1.339   3.587 -0.0901  0.1036  1.7749
10025SOL     OW30668   5.237   6.821   5.016  0.4829  0.2803  0.4024
10025SOL    HW130669   5.199   6.821   5.104  1.0769 -2.1477  0.7194
10025SOL    HW230670   5.330   6.840   5.030  0.3480  1.0763  0.1866
10026SOL     OW30671   3.030   4.664   0.038 -0.3668 -0.5919 -0.1185
10026SOL    HW130672   2.970   4.675   0.111  0.9242 -0.3285  0.9116
10026SOL    HW230673   3.093   4.735   0.047 -1.6598  1.0159 -2.9748
10027SOL     OW30674   2.586   6.282   6.381 -0.0279  0.3415  0.5479
10027SOL    HW130675   2.602   6.204   6.327  0.5574  0.2721  0.8074
10027SOL    HW230676   2.543   6.344   6.323  0.6007  0.2690 -0.0012
10028SOL     OW30677   2.748   2.990   6.368 -0.3346 -0.1341 -0.2379
10028SOL    HW130678   2.750   2.928   6.440 -0.4405  0.7825  0.5555
10028SOL    HW230679   2.655   3.009   6.355 -0.3159 -0.2724 -0.6030
10029SOL     OW30680   5.075   5.532   6.775 -0.4512 -0.2278  0.3309
10029SOL    HW130681   5.148   5.569   6.825 -1.4873 -0.6022  2.2007
10029SOL    HW230682   5.114   5.463   6.722  1.1821  2.1639 -1.6821
10030SOL     OW30683   0.032   3.978   5.320  0.1010 -0.2453 -0.3926
10030SOL    HW130684   0.072   4.006   5.402 -1.5080 -0.7056  0.5600
10030SOL    HW230685   0.032   4.057   5.265  0.6931  0.1920  0.2368
10031SOL     OW30686   3.370   6.647   4.869  0.1323  0.3693 -0.2435
10031SOL    HW130687   3.401   6.610   4.787 -0.6040  0.2644 -0.4777
10031SOL    HW230688   3.449   6.656   4.923  0.6735  0.8281 -1.1096
10032SOL     OW30689   0.322   2.963   0.326 -0.3183  0.2549 -0.0392
10032SOL    HW130690   0.256   2.901   0.358 -0.4644 -0.1864 -1.1498
10032SOL    HW230691   0.387   2.908   0.283 -0.7644  0.9130 -1.5851
10033SOL     OW30692   3.258   4.337   2.213 -0.2576  0.1619  0.2325
10033SOL    HW130693   3.347   4.367   2.233  0.0143 -0.7507  0.4091
10033SOL    HW230694   3.251   4.348   2.118 -0.6050  1.9456  0.4347
10034SOL     OW30695   0.513   1.671   2.008  0.1701  0.2680 -0.3580
10034SOL    HW130696   0.521   1.576   2.010 -1.9272  0.0616 -1.0026
10034SOL    HW230697   0.569   1.698   1.936  0.9482 -0.4557 -0.0318
10035SOL     OW30698   6.134   1.916   0.992 -0.1526 -0.3838  0.2406
10035SOL    HW130699   6.078   1.882   1.062 -1.2528  0.5467 -0.1770
10035SOL    HW230700   6.177   1.992   1.032  0.0163 -0.4762  0.2340
10036SOL     OW30701   5.136   5.912   5.914 -0.1747 -0.3511  0.1488
10036SOL    HW130702   5.178   5.993   5.883  1.5342 -0.8935  0.9994
10036SOL    HW230703   5.099   5.936   5.999 -0.4080 -0.2519  0.0214
10037SOL     OW30704   5.433   5.833   5.511  0.1307  0.0948 -0.0503
10037SOL    HW130705   5.489   5.808   5.438 -1.2975 -0.4523 -0.9670
10037SOL    HW230706   5.471   5.787   5.587  2.0504  1.2414 -0.2725
10038SOL     OW30707   5.802   0.755   3.265  0.3254 -0.4081 -0.3239
10038SOL    HW130708   5.713   0.741   3.296 -0.4980  0.9851 -1.9255
10038SOL    HW230709   5.795   0.750   3.169  1.9497 -0.1778 -0.4760
10039SOL     OW30710   2.060   1.475   1.641 -0.4501 -0.6540  0.0037
10039SOL    HW130711   1.980   1.521   1.668  0.6158  1.0962  0.2122
10039SOL    HW230712   2.099   1.445   1.723  0.1392  0.2427  0.0595
10040SOL     OW30713   5.954   4.989   0.829 -0.3981 -0.5963  0.3710
10040SOL    HW130714   5.990   4.943   0.905 -1.2056 -1.8569 -0.0033
10040SOL    HW230715   6.025   5.046   0.801  0.2641 -0.8588  1.4678
10041SOL     OW30716   4.807   4.684   3.202 -0.5625 -0.3817 -0.2782
10041SOL    HW130717   4.806   4.604   3.149  1.2317 -0.1066 -0.7662
10041SOL    HW230718   4.784   4.655   3.290  1.3907 -1.6816 -0.1726
10042SOL     OW30719   2.613   3.778   1.077  0.0162  0.3268 -0.5692
10042SOL    HW130720   2.631   3.699   1.027  1.0836  1.1370 -1.4813
10042SOL    HW230721   2.672   3.773   1.152 -1.5077 -0.8332  0.6060
10043SOL     OW30722   2.720   6.401   3.038  0.4658 -0.4593  0.4914
10043SOL    HW130723   2.757   6.394   3.126  0.8798  0.3086  0.3847
10043SOL    HW230724   2.713   6.495   3.023  3.5667 -0.4908 -1.6144
10044SOL     OW30725   1.423   2.834   1.593 -0.6186  0.1702  0.3525
10044SOL    HW130726   1.346   2.875   1.554 -0.4423  1.7182  1.6156
10044SOL    HW230727   1.399   2.819   1.684  0.7410  1.1125  0.8763
10045SOL     OW30728   1.311   2.245   4.254 -0.6201  0.3428  0.9587
10045SOL    HW130729   1.303   2.303   4.178 -0.0593 -0.9459 -0.1217
10045SOL    HW230730   1.400   2.210   4.247 -1.0817 -0.9400  1.3452
10046SOL     OW30731   1.653   6.508   3.246 -0.4351  0.4922 -0.4056
10046SOL    HW130732   1.677   6.589   3.200  1.2464 -0.3821 -1.0873
10046SOL    HW230733   1.572   6.480   3.204 -0.9614  1.7493 -0.2518
10047SOL     OW30734   0.816   4.044   0.597  0.7152  0.0321 -0.4867
10047SOL    HW130735   0.838   4.102   0.669 -1.3034  1.2414 -0.8167
10047SOL    HW230736   0.895   4.041   0.543  0.8283  2.5029 -0.4769
10048SOL     OW30737   3.852   3.710   5.289 -0.7025  0.4475 -0.0650
10048SOL    HW130738   3.790   3.661   5.236 -1.1359  1.1621 -0.2231
10048SOL    HW230739   3.843   3.800   5.260  0.3850  0.5647 -0.0556
10049SOL     OW30740   4.127   7.243   5.587  0.6961 -0.0787  0.7168
10049SOL    HW130741   4.082   7.314   5.542  0.1005 -0.2887  0.9805
10049SOL    HW230742   4.112   7.259   5.680 -0.1428 -1.0029  0.7484
10050SOL     OW30743   1.120   6.335   4.592  0.0469 -0.4593  0.7786
10050SOL    HW130744   1.058   6.294   4.532  0.0978  0.3226  0.1777
10050SOL    HW230745   1.205   6.297   4.569  0.1313  0.1505  0.0611
10051SOL     OW30746   2.852   5.434   4.845  0.4071  0.1022  0.4992
10051SOL    HW130747   2.936   5.438   4.892  0.9010  1.7005 -0.4570
10051SOL    HW230748   2.859   5.504   4.780 -1.2010 -0.5594 -0.3881
10052SOL     OW30749   6.260   1.517   4.246  0.6834  0.2111  0.3688
10052SOL    HW130750   6.200   1.463   4.297  0.7153 -0.0163  0.1659
10052SOL    HW230751   6.309   1.455   4.193 -1.2290  0.6082 -1.9642
10053SOL     OW30752   2.874   6.364   4.993  0.4325  0.1629 -0.2730
10053SOL    HW130753   2.781   6.348   5.007  0.5153 -1.2451 -1.2823
10053SOL    HW230754   2.912   6.278   4.975  1.6164  0.9232 -1.6138
10054SOL     OW30755   6.514   1.899   0.964  0.0370 -0.1978 -0.5435
10054SOL    HW130756   6.457   1.909   1.040  1.5547 -0.9279  0.7325
10054SOL    HW230757   6.466   1.840   0.906 -1.6270  1.2362 -0.6788
10055SOL     OW30758   4.067   3.560   5.710 -0.5165 -0.1061  0.4886
10055SOL    HW130759   4.163   3.557   5.716 -0.5326 -1.2601  0.2347
10055SOL    HW230760   4.050   3.566   5.616 -0.6927  0.2837  0.5451
10056SOL     OW30761   4.973   5.444   1.296 -0.3602 -0.0456  0.5643
10056SOL    HW130762   4.880   5.464   1.309 -0.1689  0.9214  0.5127
10056SOL    HW230763   4.979   5.349   1.308 -1.2636 -0.0446  1.1206
10057SOL     OW30764   3.318   7.203   4.671 -0.4953 -0.3657  0.2000
10057SOL    HW130765   3.302   7.219   4.578  2.0333 -0.9013 -0.3716
10057SOL    HW230766   3.283   7.115   4.686  0.9463 -1.1155 -0.7577
10058SOL     OW30767   3.375   5.306   4.568  0.0741  0.4787 -0.0202
10058SOL    HW130768   3.351   5.365   4.639  0.3688  0.9218 -0.2825
10058SOL    HW230769   3.295   5.297   4.516 -0.5227 -0.9381  1.1245
10059SOL     OW30770   2.642   3.707   1.692  0.1274 -0.7484 -0.1198
10059SOL    HW130771   2.616   3.629   1.741  1.2386 -1.8411 -1.2414
10059SOL    HW230772   2.716   3.743   1.740  0.3212 -1.0116 -0.2244
10060SOL     OW30773   4.794   6.078   6.166 -0.2217 -0.6128 -0.0898
10060SOL    HW130774   4.783   6.160   6.214  0.5963 -0.4075 -0.2326
10060SOL    HW230775   4.709   6.064   6.123 -0.4109  0.0965  0.0353
10061SOL     OW30776   5.115   4.469   3.560 -0.0742 -0.4995  0.3777
10061SOL    HW130777   5.101   4.396   3.620  0.3316 -0.7899  0.1169
10061SOL    HW230778   5.210   4.479   3.555 -0.1259  0.1154  0.4957
10062SOL     OW30779   1.003   2.512   2.001 -0.4381  0.0895  0.1939
10062SOL    HW130780   1.096   2.511   1.980 -0.5104 -0.1468 -0.1106
10062SOL    HW230781   0.999   2.551   2.088 -0.1693  1.3491 -0.3529
10063SOL     OW30782   4.600   5.161   2.681  0.7523  0.2955 -0.2556
10063SOL    HW130783   4.608   5.252   2.653  0.8839  0.3124 -0.1604
10063SOL    HW230784   4.516   5.133   2.645  1.3056  0.0639 -1.3676
10064SOL     OW30785   1.215   0.863   4.337 -0.4342 -0.3377 -0.9187
10064SOL    HW130786   1.120   0.861   4.330 -0.5419  1.8834 -0.6035
10064SOL    HW230787   1.232   0.860   4.431 -0.2458  0.3613 -0.9275
10065SOL     OW30788   0.691   0.252   1.817 -0.0653  0.3990  0.5658
10065SOL    HW130789   0.786   0.263   1.826 -0.3090  1.7527  1.6468
10065SOL    HW230790   0.655   0.340   1.832 -1.4642 -0.0183 -0.2492
10066SOL     OW30791   6.764   1.798   2.516 -0.4027 -0.2862  0.0589
10066SOL    HW130792   6.737   1.755   2.598 -0.2483  0.7229  0.6494
10066SOL    HW230793   6.859   1.808   2.525 -0.8085  2.9871  1.3173
10067SOL     OW30794   1.943   1.024   2.892 -0.1679 -0.1158 -0.1335
10067SOL    HW130795   2.036   1.049   2.886 -0.3365  0.5544 -0.0466
10067SOL    HW230796   1.939   0.968   2.969 -0.0666  1.0142  0.7138
10068SOL     OW30797   0.626   1.436   4.245  0.3619  0.1070 -0.0112
10068SOL    HW130798   0.559   1.411   4.182  2.0500 -1.4562 -1.2578
10068SOL    HW230799   0.603   1.389   4.325 -0.4336  0.1794 -0.1986
10069SOL     OW30800   1.916   2.823   2.723 -0.3984 -0.4601 -0.6597
10069SOL    HW130801   1.876   2.870   2.797 -0.5825  1.3411 -1.8664
10069SOL    HW230802   1.985   2.770   2.764  0.0778  1.1649  0.7444
10070SOL     OW30803   5.116   6.901   0.074  0.3865 -0.1076 -0.3012
10070SOL    HW130804   5.036   6.937   0.036  0.2988  0.6282  0.5704
10070SOL    HW230805   5.187   6.954   0.037  0.3422  0.2777  0.1648
10071SOL     OW30806   3.956   4.494   5.336 -0.2395  0.3684  0.2113
10071SOL    HW130807   3.931   4.443   5.413  1.5921 -0.8207  0.0547
10071SOL    HW230808   4.045   4.464   5.316 -0.4127  1.2138 -1.9075
10072SOL     OW30809   2.623   6.209   2.510 -0.5406  0.0432  0.4106
10072SOL    HW130810   2.616   6.222   2.415 -0.8058 -0.0351  0.4204
10072SOL    HW230811   2.686   6.138   2.519  0.1093  0.5991  0.3203
10073SOL     OW30812   5.739   1.074   2.343  0.1455 -0.4707 -0.0507
10073SOL    HW130813   5.823   1.114   2.322 -0.1409  0.9234  1.3800
10073SOL    HW230814   5.756   1.022   2.422 -0.8653  1.8623  1.7643
10074SOL     OW30815   2.244   3.094   1.964 -0.5103  0.5646  0.8825
10074SOL    HW130816   2.175   3.046   1.917 -0.5088 -0.6329  2.0846
10074SOL    HW230817   2.240   3.060   2.053  0.2215  2.0430  1.4871
10075SOL     OW30818   1.432   0.249   3.445  0.0697 -0.4279  0.2824
10075SOL    HW130819   1.444   0.229   3.538  1.2189  0.0865  0.2499
10075SOL    HW230820   1.521   0.257   3.410 -0.3385 -1.4202 -1.0413
10076SOL     OW30821   2.733   3.255   6.740  0.2926 -0.0765  0.6423
10076SOL    HW130822   2.645   3.242   6.775 -1.7477  0.7050 -3.8368
10076SOL    HW230823   2.760   3.168   6.711  1.3812 -0.4609  2.7296
10077SOL     OW30824   0.896   5.553   2.566  0.0188  0.2821 -0.4300
10077SOL    HW130825   0.859   5.622   2.511  2.8719  1.2452 -1.2485
10077SOL    HW230826   0.939   5.601   2.637 -1.3839 -0.8468  1.2028
10078SOL     OW30827   7.062   4.884   2.537  0.1968  0.7254 -0.0121
10078SOL    HW130828   7.126   4.883   2.466 -0.3661 -1.6609 -0.5026
10078SOL    HW230829   6.977   4.891   2.493 -0.0446  1.1639  0.5179
10079SOL     OW30830   3.085   1.998   4.792  0.0836 -0.2670  0.6976
10079SOL    HW130831   3.156   2.004   4.728 -1.0543 -1.4178 -0.6949
10079SOL    HW230832   3.128   2.009   4.876  1.6740  0.8281 -0.2202
10080SOL     OW30833   4.079   5.016   1.400  0.0934 -0.2769  0.2284
10080SOL    HW130834   4.049   4.932   1.364 -0.5078 -0.4872  1.2155
10080SOL    HW230835   4.048   5.081   1.337 -2.4540 -0.4931  1.2048
10081SOL     OW30836   6.623   1.597   0.882  0.0087  0.2303  0.3400
10081SOL    HW130837   6.640   1.605   0.788  0.5266 -0.5783  0.3628
10081SOL    HW230838   6.528   1.612   0.890 -0.0628  0.1681 -0.3208
10082SOL     OW30839   6.627   4.932   2.444  0.0234  0.1980 -0.9834
10082SOL    HW130840   6.642   5.000   2.509 -2.1339 -0.8253  0.6300
10082SOL    HW230841   6.592   4.979   2.368 -0.2027  1.0565 -0.3582
10083SOL     OW30842   5.881   4.639   4.326  0.8653 -0.2597  0.1914
10083SOL    HW130843   5.922   4.712   4.371  1.0652  0.8812 -1.8094
10083SOL    HW230844   5.954   4.593   4.284  0.3533  0.6281 -1.7227
10084SOL     OW30845   7.176   3.918   0.937 -0.3769 -0.3742  0.3101
10084SOL    HW130846   7.198   3.925   0.844 -2.8303 -2.1313 -0.4758
10084SOL    HW230847   7.139   4.004   0.959 -0.6545 -0.2525 -0.5982
10085SOL     OW30848   2.109   3.491   5.983  0.6319  0.2208  0.0094
10085SOL    HW130849   2.057   3.414   6.008  2.4685 -0.6675  1.2231
10085SOL    HW230850   2.162   3.461   5.909  0.1352  0.8330 -0.5985
10086SOL     OW30851   2.860   2.966   3.929  0.1843 -0.5255  0.7483
10086SOL    HW130852   2.799   3.037   3.948 -0.0571 -0.5682  0.1169
10086SOL    HW230853   2.891   2.937   4.016 -0.5175 -0.3559  1.0534
10087SOL     OW30854   2.850   2.285   7.071 -0.0018 -0.7233  0.2825
10087SOL    HW130855   2.932   2.319   7.036  0.5296 -1.1843  1.0868
10087SOL    HW230856   2.846   2.317   7.161  0.8245 -3.2735  1.2802
10088SOL     OW30857   5.556   2.187   5.845  0.3778  0.0107  0.5172
10088SOL    HW130858   5.626   2.237   5.887  0.3749  0.2964  0.1807
10088SOL    HW230859   5.514   2.140   5.918  0.2428  0.6679  0.8766
10089SOL     OW30860   4.018   5.148   4.949  0.2190 -0.2587  0.3663
10089SOL    HW130861   3.966   5.224   4.978 -0.1490 -0.5518  0.4785
10089SOL    HW230862   3.987   5.131   4.860  1.8856  1.1190 -0.5217
10090SOL     OW30863   6.870   1.575   2.339  0.2580 -0.8730 -0.1867
10090SOL    HW130864   6.878   1.493   2.388  0.5061  0.6043  2.3301
10090SOL    HW230865   6.843   1.639   2.405  0.5490  1.1689 -2.0218
10091SOL     OW30866   4.357   5.569   1.287 -0.0652  0.3008  0.1005
10091SOL    HW130867   4.347   5.474   1.293 -1.2092  0.4724  1.0132
10091SOL    HW230868   4.451   5.581   1.272 -0.0930 -1.0131 -1.3124
10092SOL     OW30869   5.855   3.948   2.590  0.9174  0.2141  0.6354
10092SOL    HW130870   5.828   3.989   2.673  0.0523 -0.9826  0.9706
10092SOL    HW230871   5.832   3.856   2.601  1.8769 -0.1753 -0.5002
10093SOL     OW30872   5.042   2.900   5.731 -0.3534 -0.3237 -0.4566
10093SOL    HW130873   4.986   2.954   5.676 -0.1022  1.1212  0.6670
10093SOL    HW230874   5.099   2.854   5.670 -3.1645 -2.3298 -1.6809
10094SOL     OW30875   5.394   6.258   3.490 -0.2372  0.8171  0.2649
10094SOL    HW130876   5.383   6.324   3.558 -2.7213  0.8390 -0.1145
10094SOL    HW230877   5.420   6.179   3.538  0.6212  1.4931  0.9421
10095SOL     OW30878   1.057   6.663   5.202 -0.0143 -0.1418 -0.0154
10095SOL    HW130879   1.061   6.629   5.291 -1.2983 -0.7802 -0.1973
10095SOL    HW230880   1.082   6.755   5.210 -0.7053 -0.0411  1.0861
10096SOL     OW30881   0.273   1.064   6.774 -0.6724  0.1458 -0.6470
10096SOL    HW130882   0.278   1.041   6.867 -2.1558  0.1302 -0.5498
10096SOL    HW230883   0.300   0.985   6.727  0.3751  0.2519 -0.2250
10097SOL     OW30884   6.752   4.128   0.075 -0.3885 -0.0346 -0.2934
10097SOL    HW130885   6.819   4.061   0.060 -1.5421 -1.2959  0.1625
10097SOL    HW230886   6.670   4.086   0.051 -1.0548  1.4460 -0.6430
10098SOL     OW30887   0.471   1.199   6.059 -0.2978 -0.3483 -0.2927
10098SOL    HW130888   0.563   1.192   6.035  0.9272  2.4783  2.9890
10098SOL    HW230889   0.445   1.111   6.084  2.4739 -0.6836  1.6311
10099SOL     OW30890   2.184   3.328   0.249  0.1893 -0.4065 -0.1983
10099SOL    HW130891   2.254   3.390   0.227  0.1508 -0.4379 -0.4183
10099SOL    HW230892   2.121   3.380   0.299  0.8475 -0.6252  0.8709
10100SOL     OW30893   4.070   2.541   0.125  0.0329  0.2549  0.3038
10100SOL    HW130894   4.109   2.574   0.045  0.8964 -1.2122  0.1111
10100SOL    HW230895   4.091   2.607   0.191  2.3098 -0.2248  0.0688
10101SOL     OW30896   1.584   3.476   6.893  0.1683  0.2957 -0.8926
10101SOL    HW130897   1.531   3.458   6.970  0.7652 -0.3088 -0.6137
10101SOL    HW230898   1.600   3.390   6.854  1.1562  0.4382 -0.8204
10102SOL     OW30899   3.313   6.575   7.220  0.0465 -0.4736 -0.1878
10102SOL    HW130900   3.348   6.613   7.301 -2.7387 -0.5525  1.1121
10102SOL    HW230901   3.342   6.484   7.222 -0.5045 -0.6357  1.0473
10103SOL     OW30902   3.524   1.291   7.074 -0.3563  0.2563  0.0563
10103SOL    HW130903   3.505   1.200   7.049 -0.7871  0.1308  0.8282
10103SOL    HW230904   3.444   1.321   7.119 -0.1024  0.9187  0.0729
10104SOL     OW30905   2.746   2.407   0.341 -0.3609 -0.5865  0.0221
10104SOL    HW130906   2.662   2.454   0.343 -0.1800 -0.1995 -1.0544
10104SOL    HW230907   2.784   2.423   0.427 -0.7261  0.4660  0.0018
10105SOL     OW30908   3.696   4.389   0.926  0.6847  0.3083  0.2490
10105SOL    HW130909   3.703   4.310   0.980  1.6161  0.4575  0.3468
10105SOL    HW230910   3.694   4.356   0.836 -1.8875 -0.0134  0.3642
10106SOL     OW30911   3.351   1.951   5.335  0.2505 -0.0530 -0.8185
10106SOL    HW130912   3.285   1.918   5.396  0.9394  0.3060  0.1383
10106SOL    HW230913   3.330   1.909   5.251 -0.6382 -0.6441 -0.3027
10107SOL     OW30914   0.631   2.789   1.426 -0.0353  0.8528 -0.1466
10107SOL    HW130915   0.558   2.849   1.409  0.7929  2.5638  2.0453
10107SOL    HW230916   0.639   2.738   1.345 -4.2001 -0.0359 -0.1297
10108SOL     OW30917   5.863   4.605   1.854  0.0011 -0.2720 -0.3338
10108SOL    HW130918   5.862   4.511   1.869  0.4003 -0.1634  0.4227
10108SOL    HW230919   5.802   4.640   1.920  0.2880  0.0474 -0.2381
10109SOL     OW30920   3.724   6.091   1.635  0.0184 -0.6091 -0.1641
10109SOL    HW130921   3.665   6.061   1.566 -1.0804 -0.8999  0.8862
10109SOL    HW230922   3.765   6.170   1.599  2.0802 -2.6827 -2.4923
10110SOL     OW30923   3.452   0.211   5.008 -0.2001 -0.0721 -0.1604
10110SOL    HW130924   3.512   0.141   4.982 -1.0339 -0.3733 -1.2637
10110SOL    HW230925   3.510   0.284   5.031  0.5707 -0.0697 -2.0660
10111SOL     OW30926   6.825   1.981   6.425 -0.2694  0.0088  0.0770
10111SOL    HW130927   6.889   1.948   6.488  1.8773  2.2536 -0.8505
10111SOL    HW230928   6.834   1.923   6.349  2.5253  1.7878 -1.0234
10112SOL     OW30929   5.456   4.113   3.978 -0.0845 -0.4268  0.8555
10112SOL    HW130930   5.378   4.098   3.925 -1.0172 -1.0143  2.3820
10112SOL    HW230931   5.424   4.152   4.059  1.6815  3.9534 -0.3819
10113SOL     OW30932   6.681   4.383   7.106  0.5842  0.0397  0.4829
10113SOL    HW130933   6.725   4.391   7.190 -1.2420 -1.7947  1.6691
10113SOL    HW230934   6.641   4.469   7.091 -0.3342 -0.0818  2.2211
10114SOL     OW30935   5.770   0.674   3.799  0.2739 -0.9868  0.0053
10114SOL    HW130936   5.790   0.583   3.777  1.5594 -0.7473  0.1361
10114SOL    HW230937   5.838   0.699   3.862  0.5113  0.3585 -0.7634
10115SOL     OW30938   1.577   1.388   0.034 -0.0113  0.1903 -0.6137
10115SOL    HW130939   1.599   1.381  -0.059 -0.9546 -3.1197 -0.6707
10115SOL    HW230940   1.481   1.392   0.036 -0.0120 -0.0571  0.2209
10116SOL     OW30941   4.444   0.746   1.559 -0.6275  0.3289 -0.3559
10116SOL    HW130942   4.378   0.684   1.527 -0.0423 -0.2718 -0.4096
10116SOL    HW230943   4.485   0.701   1.633  0.0019  0.5273 -0.5790
10117SOL     OW30944   5.802   0.854   1.683  0.1024  0.4062  0.2006
10117SOL    HW130945   5.733   0.812   1.632  0.4686  0.2365 -0.1560
10117SOL    HW230946   5.794   0.947   1.660  0.9878  0.1809 -1.0241
10118SOL     OW30947   5.654   1.169   0.358 -0.2392 -0.5179  0.7546
10118SOL    HW130948   5.612   1.158   0.272 -0.3892  0.1037  0.7445
10118SOL    HW230949   5.668   1.080   0.389  0.1125 -0.7573 -0.0632
10119SOL     OW30950   5.375   4.819   6.324 -0.2810  0.5786  0.3153
10119SOL    HW130951   5.419   4.847   6.404 -2.1985  0.1873  1.5296
10119SOL    HW230952   5.430   4.749   6.289  1.2867  1.6718  0.5369
10120SOL     OW30953   0.027   3.963   2.738 -0.4375  0.8822 -0.4009
10120SOL    HW130954   0.007   4.053   2.760 -1.7306  0.1928  1.3061
10120SOL    HW230955  -0.058   3.922   2.721  0.0854 -0.1734 -0.5498
10121SOL     OW30956   2.605   4.571   4.706  0.1347 -0.1980  0.1613
10121SOL    HW130957   2.599   4.655   4.661 -0.5736  0.9850  2.3838
10121SOL    HW230958   2.521   4.529   4.688  0.5496 -0.5188 -1.0841
10122SOL     OW30959   6.899   0.839   3.225  0.4444  0.0465  0.3001
10122SOL    HW130960   6.843   0.776   3.271 -0.2656  0.2189 -0.3275
10122SOL    HW230961   6.982   0.793   3.213 -0.3962 -1.1452 -1.0465
10123SOL     OW30962   6.207   0.729   1.963  0.0730  0.1614 -0.2596
10123SOL    HW130963   6.146   0.798   1.938 -0.6017  0.0227  0.9514
10123SOL    HW230964   6.154   0.649   1.967  0.2530  0.0949  1.0882
10124SOL     OW30965   3.461   6.618   0.613  0.0719 -0.0336  0.1494
10124SOL    HW130966   3.508   6.694   0.646  1.0095 -1.2932  1.7586
10124SOL    HW230967   3.372   6.628   0.649 -1.0271  2.4291 -3.0322
10125SOL     OW30968   1.510   2.216   6.509  0.1939 -0.3193  0.2780
10125SOL    HW130969   1.561   2.174   6.579  0.3327 -0.5575  0.0379
10125SOL    HW230970   1.497   2.146   6.444 -1.0613 -0.4586  0.6674
10126SOL     OW30971   2.508   0.298   4.571 -0.8593 -0.1006  0.1947
10126SOL    HW130972   2.557   0.217   4.556 -0.7914 -0.2073  0.9601
10126SOL    HW230973   2.574   0.366   4.583 -0.8849 -0.2122  1.0473
10127SOL     OW30974   5.777   2.695   7.085 -0.8744 -0.3933  0.3194
10127SOL    HW130975   5.732   2.769   7.124  1.0966 -0.0622  2.0961
10127SOL    HW230976   5.869   2.723   7.081 -0.4123 -2.0135 -0.7631
10128SOL     OW30977   0.333   6.745   3.193  0.0228 -0.0300 -0.4066
10128SOL    HW130978   0.265   6.713   3.253  1.8897 -1.0144  1.2510
10128SOL    HW230979   0.331   6.840   3.203 -1.3917 -0.0162 -0.7056
10129SOL     OW30980   0.927   2.767   1.480 -0.3662 -0.1618  0.2039
10129SOL    HW130981   0.832   2.775   1.470 -0.1423  1.2411 -1.0135
10129SOL    HW230982   0.940   2.744   1.572 -1.7888  1.7289  0.9186
10130SOL     OW30983   0.160   6.912   4.530 -0.1223  0.3724 -0.3356
10130SOL    HW130984   0.205   6.838   4.490  0.7282  0.6767  0.0435
10130SOL    HW230985   0.230   6.961   4.575 -1.0603 -0.0554  1.6534
10131SOL     OW30986   4.561   5.080   3.661  0.1771 -0.6692 -0.2253
10131SOL    HW130987   4.573   5.169   3.692 -0.2946 -1.4059  2.1717
10131SOL    HW230988   4.615   5.074   3.582  0.3881  1.6476 -0.2694
10132SOL     OW30989   2.971   1.933   2.532 -0.6085  0.2119 -0.7298
10132SOL    HW130990   3.052   1.927   2.481 -1.2867 -0.8049 -1.6935
10132SOL    HW230991   2.904   1.897   2.475 -1.0562 -2.8337  1.5926
10133SOL     OW30992   3.666   6.983   3.919  0.2751  0.0887 -0.3630
10133SOL    HW130993   3.596   7.011   3.860  0.8909 -0.0377 -1.1815
10133SOL    HW230994   3.683   6.892   3.894  0.5854  0.0579 -0.0403
10134SOL     OW30995   0.407   5.417   3.713 -0.5711  0.6673  0.1055
10134SOL    HW130996   0.465   5.479   3.758 -1.6960  2.3503 -0.6955
10134SOL    HW230997   0.343   5.391   3.780  0.6292 -0.6212  0.7850
10135SOL     OW30998   0.749   3.785   0.281  0.5927  0.2241 -0.5884
10135SOL    HW130999   0.728   3.700   0.320 -0.4886  0.6426 -0.2486
10135SOL    HW231000   0.819   3.765   0.218  3.0372 -0.3056  2.1918
10136SOL     OW31001   4.568   3.175   3.099 -0.5506 -0.0810 -0.1895
10136SOL    HW131002   4.556   3.089   3.060 -2.3641  0.3675 -0.6580
10136SOL    HW231003   4.517   3.173   3.180  2.1315 -0.5578  1.5616
10137SOL     OW31004   7.140   4.848   2.806  0.3276 -0.2633 -0.4339
10137SOL    HW131005   7.118   4.885   2.720  0.5193  0.2935 -0.2444
10137SOL    HW231006   7.059   4.855   2.856  0.7658  1.2833  0.0858
10138SOL     OW31007   5.635   1.915   6.103  0.0656  0.5753  0.3111
10138SOL    HW131008   5.563   1.889   6.045 -0.1874  1.2988  0.2908
10138SOL    HW231009   5.649   2.008   6.083  2.0801  0.0685 -0.8365
10139SOL     OW31010   4.389   2.085   7.072 -0.5609  0.7615  0.2283
10139SOL    HW131011   4.365   2.005   7.119  0.1717  0.6319  0.3971
10139SOL    HW231012   4.323   2.149   7.098 -1.1739  0.2025  0.0614
10140SOL     OW31013   5.969   0.594   2.430  0.5546  0.4344  0.8453
10140SOL    HW131014   5.899   0.589   2.365 -1.0095  1.4146  2.4108
10140SOL    HW231015   5.944   0.532   2.498  1.3763  0.5518  1.2705
10141SOL     OW31016   4.939   4.130   6.390  0.3659 -0.3722  0.5030
10141SOL    HW131017   4.967   4.203   6.335 -2.6338  0.6016  0.2051
10141SOL    HW231018   4.896   4.069   6.329  0.4993 -1.1454  1.1667
10142SOL     OW31019   6.066   4.015   6.228  0.0944  0.6893 -0.0105
10142SOL    HW131020   6.052   3.920   6.224 -1.1157  0.9147 -1.2871
10142SOL    HW231021   6.160   4.025   6.210  0.3349 -0.2972  0.6427
10143SOL     OW31022   4.884   2.794   0.699 -0.3500 -0.1556 -0.2542
10143SOL    HW131023   4.948   2.861   0.722  0.1148 -1.4146  2.2591
10143SOL    HW231024   4.802   2.824   0.738  0.0354 -1.4091  1.5676
10144SOL     OW31025   4.123   1.733   4.168 -0.0246  0.3403  0.1514
10144SOL    HW131026   4.185   1.663   4.151  1.3807  0.7299  3.3313
10144SOL    HW231027   4.117   1.781   4.085  1.1869 -1.8042 -1.2037
10145SOL     OW31028   6.816   6.321   0.282 -0.2313  0.0775  0.1547
10145SOL    HW131029   6.723   6.298   0.290 -0.1083 -1.1364 -1.5344
10145SOL    HW231030   6.862   6.243   0.314  0.1862 -1.1352 -3.1867
10146SOL     OW31031   3.375   3.743   3.854 -0.4160 -0.1613 -0.7557
10146SOL    HW131032   3.360   3.700   3.938  0.6550  0.6455 -0.1305
10146SOL    HW231033   3.288   3.751   3.814 -0.8464 -1.1183 -0.0043
10147SOL     OW31034   4.263   6.876   3.454  0.1736  0.1075 -0.0289
10147SOL    HW131035   4.183   6.833   3.425  0.8991 -0.0605 -1.8226
10147SOL    HW231036   4.300   6.816   3.519 -0.2712 -0.6218 -0.4424
10148SOL     OW31037   0.336   1.108   0.177  0.1385 -0.2540 -0.0825
10148SOL    HW131038   0.315   1.162   0.101  0.6979 -0.2732 -0.2542
10148SOL    HW231039   0.383   1.032   0.141 -2.7182 -2.0856 -0.1153
10149SOL     OW31040   4.450   4.855   3.429 -0.1667 -0.2440  0.1949
10149SOL    HW131041   4.438   4.871   3.335  0.2699 -0.2740  0.1343
10149SOL    HW231042   4.456   4.759   3.436  1.5030 -0.1650  0.0463
10150SOL     OW31043   0.078   3.791   0.692  0.3868 -0.2691  0.1332
10150SOL    HW131044   0.051   3.707   0.656 -0.1090  0.0228 -0.1824
10150SOL    HW231045   0.004   3.849   0.677 -0.0269 -0.2567  2.0898
10151SOL     OW31046   0.503   6.896   5.033  0.1641 -0.3072 -0.5346
10151SOL    HW131047   0.550   6.857   5.107 -0.5816 -1.6011 -0.7404
10151SOL    HW231048   0.462   6.975   5.070 -1.1853 -1.5841  0.7243
10152SOL     OW31049   2.003   5.634   1.652  0.5008  0.5339 -0.1945
10152SOL    HW131050   2.033   5.560   1.599  0.9925  0.7577 -0.2307
10152SOL    HW231051   2.069   5.702   1.639 -0.5988  1.4342 -1.1490
10153SOL     OW31052   3.606   6.836   0.678  0.3730 -0.2283 -0.0572
10153SOL    HW131053   3.642   6.867   0.761  1.0270  0.2507 -0.5141
10153SOL    HW231054   3.646   6.893   0.612 -0.7758 -0.0702 -0.6241
10154SOL     OW31055   2.236   2.414   5.284 -0.4317  0.2302 -0.4408
10154SOL    HW131056   2.173   2.345   5.264  1.3858 -1.2037 -1.3746
10154SOL    HW231057   2.193   2.467   5.352 -1.5304 -2.2788  0.8694
10155SOL     OW31058   5.617   3.184   0.421  0.1626 -0.1446  0.4353
10155SOL    HW131059   5.568   3.146   0.495 -0.5962  2.8190  1.5026
10155SOL    HW231060   5.709   3.175   0.447 -0.1409  2.4405  2.5908
10156SOL     OW31061   3.372   0.005   3.407  0.1878  0.4893  0.8700
10156SOL    HW131062   3.325   0.058   3.342  0.6011  3.3393  2.8359
10156SOL    HW231063   3.303  -0.041   3.455 -0.1449 -1.2337 -1.1873
10157SOL     OW31064   4.293   5.756   5.079  0.1681 -0.3665 -0.2419
10157SOL    HW131065   4.237   5.720   5.148  2.2017 -0.5992  1.3542
10157SOL    HW231066   4.339   5.679   5.043  1.5933  0.1304  0.4672
10158SOL     OW31067   5.689   3.133   2.224  0.4388  0.0513  0.2412
10158SOL    HW131068   5.771   3.121   2.176  0.0479  0.7947 -0.6252
10158SOL    HW231069   5.630   3.066   2.188  0.5420 -0.2222  0.5816
10159SOL     OW31070   7.210   5.467   1.380 -0.0598  0.1034 -0.3669
10159SOL    HW131071   7.187   5.474   1.287 -0.3804  2.0889 -0.1626
10159SOL    HW231072   7.280   5.531   1.392 -0.3550  0.2036  0.8683
10160SOL     OW31073   1.469   5.874   7.204  0.0331  0.0157 -0.0674
10160SOL    HW131074   1.502   5.790   7.235  0.2447  0.4339  0.8902
10160SOL    HW231075   1.422   5.910   7.280  0.5635  1.0736 -0.2264
10161SOL     OW31076   0.647   5.616   4.431 -0.4346 -0.4124  0.2587
10161SOL    HW131077   0.643   5.575   4.518  1.1612 -1.4083 -0.1049
10161SOL    HW231078   0.655   5.542   4.370 -1.7451  0.2728 -0.7580
10162SOL     OW31079   4.864   5.291   4.168  0.0839  0.3475  0.4042
10162SOL    HW131080   4.833   5.201   4.154  0.5320  0.2227  0.2118
10162SOL    HW231081   4.951   5.281   4.207  1.0896  0.6823 -1.6797
10163SOL     OW31082   0.147   3.823   2.070  0.2338 -0.0694  0.1620
10163SOL    HW131083   0.151   3.730   2.047 -0.4732  0.0291 -0.3857
10163SOL    HW231084   0.239   3.850   2.076  0.4585 -0.1490 -2.4083
10164SOL     OW31085   4.429   3.320   0.010  0.0534 -0.4966  0.4796
10164SOL    HW131086   4.360   3.257  -0.014 -0.7893  0.9443 -1.0028
10164SOL    HW231087   4.456   3.293   0.098 -2.1422 -1.3250  0.9418
10165SOL     OW31088   3.039   6.812   6.979 -0.0410  0.2744 -0.2077
10165SOL    HW131089   3.069   6.741   6.923 -0.8548  0.9091 -1.4511
10165SOL    HW231090   3.116   6.836   7.031  0.4437 -0.9691 -0.3459
10166SOL     OW31091   3.513   2.893   4.773  1.0811 -0.1250 -0.1184
10166SOL    HW131092   3.550   2.880   4.686  1.0675  0.8622 -0.2795
10166SOL    HW231093   3.545   2.980   4.800  0.0268  0.1382  0.3073
10167SOL     OW31094   3.070   6.499   6.869  0.0527  0.0309 -0.0938
10167SOL    HW131095   3.142   6.436   6.867  0.2216  0.2379 -0.5615
10167SOL    HW231096   3.046   6.504   6.962  0.7643  0.0944  0.0928
10168SOL     OW31097   5.158   3.266   3.829 -0.1054 -0.6316 -0.5237
10168SOL    HW131098   5.115   3.297   3.749  2.2629 -1.4224 -2.1625
10168SOL    HW231099   5.155   3.171   3.823 -2.8565 -0.7581  2.0122
10169SOL     OW31100   7.177   6.018   1.387 -0.0548  0.1639  0.1971
10169SOL    HW131101   7.252   6.040   1.444  0.0222  0.2942  0.0455
10169SOL    HW231102   7.102   6.016   1.447  0.1203 -0.2790  0.4035
10170SOL     OW31103   1.202   0.588   1.266 -0.0758 -0.2088 -0.2277
10170SOL    HW131104   1.194   0.506   1.218 -0.5152 -0.6997  0.6706
10170SOL    HW231105   1.112   0.620   1.273 -0.1120 -0.5442  0.9496
10171SOL     OW31106   4.774   1.161   1.672  0.4733 -0.2483 -0.1005
10171SOL    HW131107   4.798   1.079   1.714  0.2061  0.9301  2.4214
10171SOL    HW231108   4.857   1.202   1.648  0.6218 -1.0063 -0.8796
10172SOL     OW31109   5.263   2.964   3.236 -0.0429 -0.2351 -0.5514
10172SOL    HW131110   5.348   2.970   3.281 -0.6259 -0.4546  0.6121
10172SOL    HW231111   5.201   3.004   3.298 -0.9339 -0.9417 -0.9894
10173SOL     OW31112   6.499   4.446   0.401  0.3012 -0.2852  0.0942
10173SOL    HW131113   6.436   4.501   0.354 -0.3845 -0.4012  0.8785
10173SOL    HW231114   6.512   4.370   0.344 -1.7347 -1.1815  0.8098
10174SOL     OW31115   3.837   6.566   5.774  0.6446  0.8820 -0.2449
10174SOL    HW131116   3.918   6.545   5.727  0.5373  0.5591 -0.2886
10174SOL    HW231117   3.867   6.613   5.853  1.0420 -1.0956  0.8173
10175SOL     OW31118   4.571   1.111   5.462 -0.2819  0.5623 -0.6443
10175SOL    HW131119   4.534   1.187   5.507 -1.8622  0.2359 -1.3735
10175SOL    HW231120   4.578   1.044   5.530 -0.0569  0.9555 -0.2775
10176SOL     OW31121   6.784   1.676   3.866  0.1349 -0.3043  0.1669
10176SOL    HW131122   6.762   1.713   3.951 -2.0334 -1.2291  0.0385
10176SOL    HW231123   6.876   1.651   3.874 -0.0612 -0.4162  2.2547
10177SOL     OW31124   6.631   1.781   2.141  0.2925  0.2759 -0.0675
10177SOL    HW131125   6.600   1.784   2.231  0.9723  1.2820  0.1347
10177SOL    HW231126   6.563   1.824   2.090  0.7661  1.3687  0.2143
10178SOL     OW31127   4.886   7.216   7.015 -0.2251  0.6464  0.0214
10178SOL    HW131128   4.897   7.131   6.972  1.2458 -0.2285  2.0248
10178SOL    HW231129   4.903   7.281   6.947  0.9159 -0.6860 -0.9780
10179SOL     OW31130   3.371   2.464   7.223 -0.1168 -0.1110  0.6748
10179SOL    HW131131   3.423   2.445   7.145  1.2209  1.6090  1.1347
10179SOL    HW231132   3.378   2.385   7.276 -0.0739 -0.8452 -0.3964
10180SOL     OW31133   1.212   5.775   6.607  0.2815 -0.3410  0.7850
10180SOL    HW131134   1.261   5.857   6.614 -0.8422  0.3306  0.8706
10180SOL    HW231135   1.186   5.754   6.696  0.3054 -0.6312  0.7243
10181SOL     OW31136   0.844   1.983   0.779 -0.1348  0.1750  0.5637
10181SOL    HW131137   0.936   2.007   0.763  0.0409  0.7018  2.3205
10181SOL    HW231138   0.820   1.930   0.703  1.8947 -0.6609  0.4707
10182SOL     OW31139   2.068   1.377   2.878  0.5697  0.0329  0.7092
10182SOL    HW131140   2.042   1.465   2.906 -1.6760 -0.1305 -0.7575
10182SOL    HW231141   2.025   1.319   2.942 -0.9766 -0.1329 -0.4421
10183SOL     OW31142   0.857   7.168   4.998 -0.2449  0.1030  0.1501
10183SOL    HW131143   0.947   7.195   5.016 -0.0823  1.2308 -2.1761
10183SOL    HW231144   0.865   7.077   4.968  0.1439  0.2719 -0.2613
10184SOL     OW31145   6.940   4.344   2.703  0.2344 -0.6963  0.2797
10184SOL    HW131146   6.910   4.336   2.794  0.2458 -1.0355  0.2531
10184SOL    HW231147   6.937   4.438   2.686  0.1979 -0.6328  0.6206
10185SOL     OW31148   4.720   4.539   3.407 -0.0285  0.2097  0.3774
10185SOL    HW131149   4.626   4.555   3.406 -0.0775 -0.0952 -0.0346
10185SOL    HW231150   4.728   4.443   3.410  0.2656  0.2188 -0.0604
10186SOL     OW31151   0.282   5.103   3.544 -1.0343 -0.5947  0.0381
10186SOL    HW131152   0.366   5.140   3.570 -1.1813 -1.1546  1.3541
10186SOL    HW231153   0.301   5.054   3.463  0.2070 -1.8913  1.0819
10187SOL     OW31154   5.306   1.388   6.885  0.5862 -0.1745  0.1597
10187SOL    HW131155   5.302   1.335   6.805  0.7918  1.0704 -0.6758
10187SOL    HW231156   5.215   1.388   6.918  0.4119 -0.3000 -0.3246
10188SOL     OW31157   6.346   2.582   1.247 -0.0017  0.2287  0.0097
10188SOL    HW131158   6.384   2.589   1.160  1.5549 -1.8414  0.4677
10188SOL    HW231159   6.412   2.617   1.306  0.6004 -1.8900  0.6637
10189SOL     OW31160   0.100   2.638   4.169 -0.4972  0.4167 -0.5573
10189SOL    HW131161   0.079   2.732   4.172 -1.0692  0.2602  0.8279
10189SOL    HW231162   0.101   2.617   4.076  0.2447  1.9403 -0.9090
10190SOL     OW31163   2.031   1.935   4.144 -0.5334  0.2063 -0.3599
10190SOL    HW131164   1.998   1.870   4.206 -2.0650  0.5093 -0.8549
10190SOL    HW231165   2.065   1.883   4.071  0.7521 -0.1305  0.4566
10191SOL     OW31166   1.070   3.594   2.746  0.3097  0.1094 -0.1303
10191SOL    HW131167   1.135   3.600   2.676  1.1213  1.3034  0.6996
10191SOL    HW231168   1.026   3.679   2.745 -0.1615 -0.1271  0.3330
10192SOL     OW31169   4.703   4.762   1.321 -0.2901 -0.4538 -0.0389
10192SOL    HW131170   4.782   4.709   1.309  1.1732  1.6626  0.0112
10192SOL    HW231171   4.695   4.771   1.416 -1.7138 -2.2472  0.0471
10193SOL     OW31172   6.512   2.925   1.556 -0.1152 -0.2871 -0.4912
10193SOL    HW131173   6.559   2.890   1.631 -1.0016  0.1506  0.2803
10193SOL    HW231174   6.420   2.907   1.575 -0.3279 -0.4781 -1.6347
10194SOL     OW31175   1.616   0.341   5.163 -0.2022  0.1225 -0.2012
10194SOL    HW131176   1.534   0.358   5.211  1.0600  3.7782  0.8196
10194SOL    HW231177   1.670   0.291   5.224 -1.1098 -1.0525 -0.3444
10195SOL     OW31178   0.665   5.428   4.098  0.2220  0.1555 -0.0648
10195SOL    HW131179   0.698   5.515   4.116  1.1372  0.0377 -1.0808
10195SOL    HW231180   0.737   5.384   4.051  0.7647 -1.9890  2.6528
10196SOL     OW31181   4.476   2.433   2.809 -0.2474 -0.1071  0.0254
10196SOL    HW131182   4.507   2.499   2.748  0.1388 -0.6502 -0.3747
10196SOL    HW231183   4.391   2.465   2.838  0.2143  0.8712  0.3239
10197SOL     OW31184   2.143   5.211   5.525  0.2819 -0.4139  0.2634
10197SOL    HW131185   2.202   5.138   5.545  0.5959 -1.0821 -2.8486
10197SOL    HW231186   2.056   5.171   5.523  0.2953 -0.4255 -0.0773
10198SOL     OW31187   0.558   5.814   5.181  0.3496 -0.1954  0.0269
10198SOL    HW131188   0.518   5.901   5.183 -1.1723 -0.8304 -1.5295
10198SOL    HW231189   0.596   5.804   5.268 -1.3625  1.1660  0.9773
10199SOL     OW31190   6.993   2.817   6.989  0.7660  0.1594 -0.1526
10199SOL    HW131191   7.041   2.808   6.907 -0.9030 -0.3817 -1.0785
10199SOL    HW231192   6.904   2.840   6.963  0.5355  1.3074  1.5526
10200SOL     OW31193   3.826   4.692   2.280  0.1475  0.3245 -0.0601
10200SOL    HW131194   3.747   4.715   2.231  0.8038  1.4797 -0.5995
10200SOL    HW231195   3.861   4.615   2.236 -0.2937  0.2423 -0.2645
10201SOL     OW31196   3.394   4.997   6.446  0.4402  0.3984  0.0845
10201SOL    HW131197   3.332   4.971   6.514  0.7966  1.5035  0.8396
10201SOL    HW231198   3.480   4.975   6.483  0.6993  1.9243  0.4154
10202SOL     OW31199   2.405   2.951   6.044 -0.1291  0.2570  0.4887
10202SOL    HW131200   2.385   3.027   5.991 -1.3052 -1.3035 -1.3588
10202SOL    HW231201   2.450   2.891   5.985 -0.1574 -0.9214  1.6222
10203SOL     OW31202   2.336   5.973   1.392  0.0691 -0.4347 -0.0394
10203SOL    HW131203   2.338   6.069   1.399 -0.1533 -0.5636  1.9836
10203SOL    HW231204   2.345   5.956   1.298 -0.4060  1.5817 -0.4764
10204SOL     OW31205   6.411   4.171   2.725  0.0160 -0.3470  0.1825
10204SOL    HW131206   6.484   4.229   2.747 -1.1667  2.1744 -2.2470
10204SOL    HW231207   6.433   4.137   2.638 -2.2959  1.5682 -1.2135
10205SOL     OW31208   0.501   0.477   6.973 -0.2817  0.1528  0.0179
10205SOL    HW131209   0.458   0.539   6.914 -0.9371 -0.5817 -0.2911
10205SOL    HW231210   0.435   0.410   6.990  0.6810 -0.9060 -0.3180
10206SOL     OW31211   2.183   3.769   5.819 -0.2298 -0.8558  0.5494
10206SOL    HW131212   2.197   3.717   5.898  1.1102  0.1035  0.9509
10206SOL    HW231213   2.178   3.860   5.850  2.6841 -0.2366 -0.6956
10207SOL     OW31214   6.479   4.728   1.715  0.1791 -0.2594  0.3071
10207SOL    HW131215   6.447   4.641   1.740  0.9719 -0.9147 -0.9002
10207SOL    HW231216   6.574   4.722   1.724  0.3032  0.2056 -0.6351
10208SOL     OW31217   2.178   2.790   7.065 -0.2958  0.3643 -0.4062
10208SOL    HW131218   2.137   2.748   6.990  0.0123  1.0567 -0.9700
10208SOL    HW231219   2.108   2.802   7.128 -0.6125  0.0420 -0.6960
10209SOL     OW31220   1.954   2.913   2.109  0.2323  0.4522 -0.1664
10209SOL    HW131221   1.950   2.882   2.018 -0.0201 -1.2156  0.3998
10209SOL    HW231222   2.037   2.878   2.142  0.7157  1.7350  0.0249
10210SOL     OW31223   5.143   3.488   6.788 -0.1393  0.5383  0.1093
10210SOL    HW131224   5.152   3.553   6.718 -1.2021  1.3146  0.6970
10210SOL    HW231225   5.063   3.440   6.766 -0.7407  1.0957  1.0400
10211SOL     OW31226   3.360   4.783   0.861 -0.2350 -0.3775 -0.5838
10211SOL    HW131227   3.430   4.744   0.913  0.7023  0.0924 -1.4700
10211SOL    HW231228   3.362   4.734   0.778 -0.7198 -0.1280 -0.7442
10212SOL     OW31229   5.972   1.912   4.207 -0.0214 -0.1172  0.2516
10212SOL    HW131230   5.980   1.833   4.154  0.5702  1.7878 -2.6266
10212SOL    HW231231   5.885   1.946   4.187 -0.2619  0.0132  1.4577
10213SOL     OW31232   1.507   2.256   2.495  0.5131  0.1195  0.3379
10213SOL    HW131233   1.414   2.233   2.489  0.4661 -0.1438  1.7423
10213SOL    HW231234   1.553   2.182   2.456  0.1791 -0.4332  0.9685
10214SOL     OW31235   4.831   0.408   2.848  0.0606  0.0505  0.0221
10214SOL    HW131236   4.886   0.486   2.845 -0.3959  0.4115  0.7725
10214SOL    HW231237   4.787   0.413   2.933 -3.0627  1.0655 -1.5955
10215SOL     OW31238   3.123   4.187   1.790  0.3562 -0.3098  0.4762
10215SOL    HW131239   3.095   4.125   1.857 -0.1556  1.4292  1.9019
10215SOL    HW231240   3.050   4.247   1.780  0.5052 -0.4223 -1.5234
10216SOL     OW31241   3.791   5.181   2.330  0.0738  0.5161  0.3725
10216SOL    HW131242   3.869   5.234   2.313  0.0692  0.3528 -0.1594
10216SOL    HW231243   3.801   5.105   2.273  0.2736 -0.2512  1.4082
10217SOL     OW31244   5.981   0.032   5.918 -0.2077 -0.1316  0.4999
10217SOL    HW131245   6.065  -0.014   5.924  1.8005  3.4119  1.4259
10217SOL    HW231246   5.930   0.001   5.993  1.1478 -0.7089  1.1985
10218SOL     OW31247   2.114   0.650   3.562 -0.6467 -0.4720 -0.0293
10218SOL    HW131248   2.175   0.657   3.636  0.3278  2.3631 -1.0194
10218SOL    HW231249   2.169   0.625   3.488 -0.9234  0.6507 -0.6208
10219SOL     OW31250   4.152   4.610   4.705 -0.2594 -0.3976  0.3260
10219SOL    HW131251   4.237   4.574   4.678 -1.0299 -1.4948 -0.6268
10219SOL    HW231252   4.151   4.597   4.800  0.2315 -1.2634  0.2219
10220SOL     OW31253   2.372   5.141   0.046 -0.4891 -0.5294 -0.1402
10220SOL    HW131254   2.375   5.053   0.082  2.5484 -0.4144 -0.0469
10220SOL    HW231255   2.454   5.151  -0.002 -0.5646  2.3860  0.2367
10221SOL     OW31256   5.314   1.197   0.465 -0.5453 -0.1219 -0.8089
10221SOL    HW131257   5.397   1.225   0.502 -1.2453 -0.8780  1.4924
10221SOL    HW231258   5.325   1.103   0.450 -1.4245 -0.5274  0.9103
10222SOL     OW31259   6.289   6.270   3.200  0.1567  0.2543  0.2785
10222SOL    HW131260   6.282   6.254   3.106 -1.1528 -0.5873  0.5120
10222SOL    HW231261   6.234   6.347   3.214  0.0135  0.1222  0.4276
10223SOL     OW31262   3.760   0.204   3.620 -0.0184 -0.5256  0.0927
10223SOL    HW131263   3.674   0.194   3.580  0.5743  2.1748 -2.0112
10223SOL    HW231264   3.799   0.279   3.574  2.8915 -0.8244  1.9675
10224SOL     OW31265   4.980   5.503   5.509  0.1229 -0.6108 -0.3928
10224SOL    HW131266   4.887   5.502   5.488 -0.1890 -0.3231  0.9236
10224SOL    HW231267   5.023   5.467   5.431 -1.0978 -0.9301 -0.9275
10225SOL     OW31268   6.364   5.600   5.733 -0.1579  0.0905  0.2162
10225SOL    HW131269   6.366   5.505   5.717 -0.5069  0.2702 -0.8961
10225SOL    HW231270   6.398   5.609   5.822 -0.6299 -1.1285  0.5382
10226SOL     OW31271   2.853   0.786   1.879 -0.0008  0.4663 -0.3242
10226SOL    HW131272   2.932   0.839   1.895 -0.4993  0.3625  2.6230
10226SOL    HW231273   2.864   0.709   1.934 -1.3430 -0.4457 -1.2919
10227SOL     OW31274   1.275   0.134   5.760  0.0319 -0.2713 -0.0622
10227SOL    HW131275   1.258   0.087   5.841  0.2182  0.4793  0.4148
10227SOL    HW231276   1.360   0.177   5.775 -0.1542  0.2428 -0.4830
10228SOL     OW31277   6.607   0.769   3.056 -0.0523  0.0166 -0.4040
10228SOL    HW131278   6.629   0.708   2.985 -0.6201 -0.7355  0.0627
10228SOL    HW231279   6.670   0.749   3.125  0.9796  1.2562 -0.9683
10229SOL     OW31280   3.203   3.702   4.774  0.3112 -0.4142  0.3731
10229SOL    HW131281   3.116   3.705   4.732  0.2436 -2.0234  0.3700
10229SOL    HW231282   3.205   3.779   4.831  0.2985  1.7086 -2.3859
10230SOL     OW31283   5.602   6.464   3.613 -0.3873  0.8444  0.0879
10230SOL    HW131284   5.680   6.409   3.604  0.7702  2.3730  0.6824
10230SOL    HW231285   5.555   6.426   3.687 -0.9898 -0.9680 -1.1670
10231SOL     OW31286   4.882   3.321   5.210  0.1123  0.1608  0.7527
10231SOL    HW131287   4.962   3.350   5.167 -0.4863  1.1655  0.2897
10231SOL    HW231288   4.910   3.287   5.294  1.0011  0.7077  0.6778
10232SOL     OW31289   6.368   1.780   1.533  0.1517 -0.4172  0.2977
10232SOL    HW131290   6.296   1.773   1.470  0.7669 -1.0862 -0.3360
10232SOL    HW231291   6.351   1.862   1.580 -0.1504  0.2305 -0.9366
10233SOL     OW31292   5.416   4.624   1.247 -0.3987 -0.2241  0.7240
10233SOL    HW131293   5.347   4.668   1.298  1.2004  1.8107  1.2034
10233SOL    HW231294   5.455   4.562   1.309  0.2476  0.8567  1.4227
10234SOL     OW31295   6.207   2.395   5.840  0.0811  0.1642 -0.0535
10234SOL    HW131296   6.194   2.401   5.935  2.8067 -0.0191  0.3486
10234SOL    HW231297   6.161   2.315   5.815 -0.4504  0.0907  1.1196
10235SOL     OW31298   6.063   0.198   5.075  0.5339  0.6184 -0.3411
10235SOL    HW131299   6.116   0.193   4.995  0.4009  0.5686 -0.4261
10235SOL    HW231300   6.036   0.290   5.079  0.6328  0.6454 -0.2937
10236SOL     OW31301   1.711   0.530   3.999 -0.0831  0.0369  0.1771
10236SOL    HW131302   1.735   0.440   3.975  0.4386  0.1758  0.1628
10236SOL    HW231303   1.659   0.561   3.925 -1.6693 -0.8098  0.9212
10237SOL     OW31304   0.812   6.026   5.384 -0.3346  0.0177 -0.0651
10237SOL    HW131305   0.859   6.109   5.391  0.8474 -0.7113  1.0854
10237SOL    HW231306   0.766   6.017   5.468 -1.1354 -0.0827 -0.5182
10238SOL     OW31307   2.253   1.848   0.384  0.8406  0.0402  0.6449
10238SOL    HW131308   2.162   1.856   0.354  0.8639 -0.1972  0.5145
10238SOL    HW231309   2.246   1.807   0.470  0.9308 -1.5200 -0.0806
10239SOL     OW31310   2.282   2.889   4.117  0.0317  0.1135 -0.5492
10239SOL    HW131311   2.361   2.900   4.168 -0.7579  0.4552  0.6183
10239SOL    HW231312   2.313   2.864   4.029  1.3756 -0.8706  0.1916
10240SOL     OW31313   1.469   0.795   6.663 -0.0591 -0.0388 -0.3529
10240SOL    HW131314   1.396   0.856   6.658  0.0188  0.1392  0.5374
10240SOL    HW231315   1.440   0.729   6.727  0.2523 -0.3810 -0.5639
10241SOL     OW31316   6.851   1.803   6.201 -0.6112 -0.5458 -0.3876
10241SOL    HW131317   6.937   1.760   6.208  0.2112  0.8585 -1.5770
10241SOL    HW231318   6.788   1.732   6.217  0.7326 -1.9365 -1.0709
10242SOL     OW31319   4.259   5.145   5.065  0.2880  0.3817  0.0800
10242SOL    HW131320   4.312   5.091   5.006  0.9180  2.2102 -1.0643
10242SOL    HW231321   4.170   5.138   5.030  0.3208 -0.1340  0.0990
10243SOL     OW31322   1.053   5.652   6.845  0.0532  0.0059 -0.1301
10243SOL    HW131323   0.996   5.642   6.768  1.6466  1.3599 -1.5111
10243SOL    HW231324   1.051   5.746   6.864 -1.2884 -0.4789  2.2519
10244SOL     OW31325   4.499   4.060   1.959  0.0526  0.2163 -0.2422
10244SOL    HW131326   4.577   4.010   1.936 -0.6601 -0.3647 -1.4569
10244SOL    HW231327   4.430   3.994   1.965 -0.4730  0.7999  0.2048
10245SOL     OW31328   2.624   7.144   4.244 -0.3355 -0.5094  0.0632
10245SOL    HW131329   2.615   7.065   4.297  0.2642  0.6024  1.8585
10245SOL    HW231330   2.718   7.163   4.245 -0.4593  0.1382 -0.4806
10246SOL     OW31331   3.982   0.492   2.827  0.1460 -0.5157  0.2187
10246SOL    HW131332   4.022   0.566   2.781  0.3388 -0.2830  0.7485
10246SOL    HW231333   3.955   0.432   2.758  1.1642 -0.5424 -0.1635
10247SOL     OW31334   7.207   2.859   1.926 -0.3013  0.3826 -0.1805
10247SOL    HW131335   7.221   2.898   2.013 -0.9980 -0.1425  0.1777
10247SOL    HW231336   7.251   2.774   1.931 -1.2061 -0.0826  0.0095
10248SOL     OW31337   1.774   0.078   3.096  0.2532  1.0407  0.3294
10248SOL    HW131338   1.775   0.050   3.005 -2.2423  0.0605  0.5727
10248SOL    HW231339   1.864   0.106   3.114  1.6230 -2.0369 -1.4302
10249SOL     OW31340   5.498   1.137   7.199 -0.5236  0.5515 -0.0626
10249SOL    HW131341   5.502   1.104   7.109 -1.8655 -0.8911  0.3797
10249SOL    HW231342   5.493   1.232   7.189  0.7408  0.4935 -1.4630
10250SOL     OW31343   1.036   5.258   4.966 -0.1363  0.3722  0.5430
10250SOL    HW131344   1.053   5.333   5.023  1.6364  0.4930 -0.1012
10250SOL    HW231345   1.094   5.189   5.000 -1.7259 -0.7093  1.1081
10251SOL     OW31346   1.990   4.339   1.454  0.0842  0.2420 -0.6670
10251SOL    HW131347   1.961   4.352   1.363 -0.4916  0.1285 -0.5040
10251SOL    HW231348   1.936   4.400   1.504  2.4557  2.4813 -0.7282
10252SOL     OW31349   6.615   5.234   7.177  0.3950  0.1757  0.1298
10252SOL    HW131350   6.654   5.168   7.233  1.4115  0.5789 -0.0995
10252SOL    HW231351   6.562   5.185   7.114  0.0997 -0.3345  0.7729
10253SOL     OW31352   5.247   3.280   2.663 -0.0104 -0.0287  0.4099
10253SOL    HW131353   5.193   3.202   2.673 -0.3705  0.3207  1.2577
10253SOL    HW231354   5.336   3.250   2.676 -0.1074 -0.3793  0.2706
10254SOL     OW31355   3.606   3.507   4.276  0.3394 -0.7342  0.1669
10254SOL    HW131356   3.588   3.589   4.322 -0.2539 -0.3110 -0.7886
10254SOL    HW231357   3.641   3.449   4.343  1.4402  0.5229  0.7236
10255SOL     OW31358   4.289   5.282   1.265  0.2247  0.2288  0.1478
10255SOL    HW131359   4.303   5.226   1.342  0.4212 -0.5430 -0.4529
10255SOL    HW231360   4.326   5.233   1.192  0.6058  1.2405 -0.3507
10256SOL     OW31361   6.482   4.604   3.290 -0.4656 -0.3307  0.2769
10256SOL    HW131362   6.569   4.603   3.250 -0.7354  0.4554 -0.3484
10256SOL    HW231363   6.493   4.654   3.370 -0.3253 -0.2871  0.2296
10257SOL     OW31364   6.186   1.681   6.566  0.3629 -0.0510 -0.0197
10257SOL    HW131365   6.141   1.621   6.507  0.3405 -0.9480  0.9062
10257SOL    HW231366   6.183   1.638   6.651  2.7449 -0.0273  0.1129
10258SOL     OW31367   4.462   7.159   2.328 -0.0825 -0.4778  0.4824
10258SOL    HW131368   4.539   7.116   2.291 -0.4600 -1.8668  1.2560
10258SOL    HW231369   4.491   7.188   2.415  0.5066  1.8860 -0.4456
10259SOL     OW31370   0.724   0.207   5.984  0.2906 -0.2215  0.2646
10259SOL    HW131371   0.687   0.278   6.036 -1.6761 -0.3020 -0.9583
10259SOL    HW231372   0.695   0.127   6.029  0.5502 -0.2751  0.3379
10260SOL     OW31373   6.494   6.406   6.242 -0.0114 -0.2207 -0.1512
10260SOL    HW131374   6.485   6.382   6.150  0.3128 -1.6086  0.1712
10260SOL    HW231375   6.585   6.436   6.250  0.7638 -2.5478  0.2389
10261SOL     OW31376   5.027   0.936   5.817 -0.0693  0.6199 -0.3078
10261SOL    HW131377   4.970   0.926   5.894 -0.2002 -0.1617 -0.5013
10261SOL    HW231378   4.967   0.936   5.743  0.2330 -1.0033 -0.5691
10262SOL     OW31379   2.809   2.797   7.150  0.4656  0.1265 -0.0778
10262SOL    HW131380   2.871   2.828   7.217  0.3548  1.1491 -0.4276
10262SOL    HW231381   2.798   2.873   7.091  0.9606 -0.9224 -1.5469
10263SOL     OW31382   0.381   2.645   3.844 -0.0888 -0.2084 -0.4362
10263SOL    HW131383   0.431   2.686   3.773 -0.2682 -0.4858 -0.7224
10263SOL    HW231384   0.321   2.585   3.800  0.3258 -0.9522 -0.0017
10264SOL     OW31385   3.278   5.346   0.277 -0.2439  0.1222 -0.4719
10264SOL    HW131386   3.342   5.343   0.348 -0.2870  0.1278 -0.4322
10264SOL    HW231387   3.315   5.407   0.213  0.0754 -0.3413 -0.7311
10265SOL     OW31388   0.118   2.988   5.892 -0.3769  0.0272  0.4113
10265SOL    HW131389   0.042   3.002   5.949 -0.4846  1.0731  0.0117
10265SOL    HW231390   0.090   2.919   5.832 -0.4344 -0.7430  1.2941
10266SOL     OW31391   5.780   2.760   1.757  0.0960  0.3782 -0.2105
10266SOL    HW131392   5.750   2.840   1.799 -0.4206 -0.7920  1.7223
10266SOL    HW231393   5.873   2.776   1.738  0.5336  0.7253  2.0260
10267SOL     OW31394   7.052   3.848   6.442  0.3783 -0.0738 -0.1491
10267SOL    HW131395   7.007   3.836   6.358 -0.4121 -1.4778  0.4585
10267SOL    HW231396   7.139   3.881   6.418 -0.8120  2.2954 -1.3499
10268SOL     OW31397   2.120   5.505   3.124  0.0923 -0.3314 -0.4843
10268SOL    HW131398   2.049   5.445   3.150 -0.6500  0.2424 -1.1693
10268SOL    HW231399   2.082   5.592   3.134  1.1195  0.0326  0.3486
10269SOL     OW31400   3.289   4.832   3.336 -0.3198  0.0415 -0.2427
10269SOL    HW131401   3.321   4.763   3.278 -1.7034 -0.3948 -0.4799
10269SOL    HW231402   3.286   4.910   3.280 -0.5992 -0.1284 -0.4622
10270SOL     OW31403   6.878   2.723   2.703  0.1395 -0.0859  0.2577
10270SOL    HW131404   6.922   2.804   2.729  0.0316 -0.7710  2.7329
10270SOL    HW231405   6.824   2.748   2.628 -1.4200  2.5833  2.2047
10271SOL     OW31406   3.896   5.334   6.697 -0.2868  0.2721 -0.3595
10271SOL    HW131407   3.961   5.314   6.630  1.0689  0.8737  0.7512
10271SOL    HW231408   3.812   5.314   6.656  0.6818 -2.2615 -1.1908
10272SOL     OW31409   4.862   2.040   4.460 -0.0840 -0.0783 -0.1568
10272SOL    HW131410   4.889   2.002   4.377 -0.0419 -0.8492  0.2066
10272SOL    HW231411   4.919   2.116   4.471  1.1038 -0.9746  0.0046
10273SOL     OW31412   2.275   4.245   2.985 -0.5011 -0.1630 -1.3436
10273SOL    HW131413   2.317   4.160   2.973 -0.7587 -0.2082 -1.9516
10273SOL    HW231414   2.347   4.306   2.998 -0.3858 -0.7805  1.0943
10274SOL     OW31415   6.949   1.182   6.698  0.3502  0.1782  0.1851
10274SOL    HW131416   6.901   1.260   6.674 -0.1442 -0.4767 -0.9678
10274SOL    HW231417   6.896   1.109   6.665  1.5817 -0.5861 -0.1353
10275SOL     OW31418   5.677   2.942   5.629 -0.3923  0.3371 -0.8519
10275SOL    HW131419   5.748   2.882   5.656 -0.5142 -0.1203 -1.5246
10275SOL    HW231420   5.653   2.988   5.709 -0.4432 -0.6807 -0.2699
10276SOL     OW31421   2.201   0.973   3.594  0.1105 -0.5631  0.4307
10276SOL    HW131422   2.248   0.917   3.656 -0.0473 -2.7978 -1.4089
10276SOL    HW231423   2.115   0.987   3.635  0.0446 -1.9151  0.7666
10277SOL     OW31424   3.482   6.511   6.729 -0.2269  0.0579  0.1821
10277SOL    HW131425   3.551   6.556   6.680  0.2322  0.0103  0.7839
10277SOL    HW231426   3.433   6.582   6.771 -0.9704  0.1358 -0.7853
10278SOL     OW31427   0.603   4.246   4.632 -0.8609 -0.1671 -0.3373
10278SOL    HW131428   0.546   4.317   4.604  0.9981  1.9027  0.8889
10278SOL    HW231429   0.587   4.238   4.726  0.5227  0.1544 -0.0570
10279SOL     OW31430   3.775   3.178   3.904 -0.6917  0.1131 -0.0059
10279SOL    HW131431   3.849   3.207   3.851 -0.2399  0.5480  0.8515
10279SOL    HW231432   3.755   3.253   3.960 -0.6233 -0.6430  1.0347
10280SOL     OW31433   6.185   0.712   0.701  0.5742  0.2593  0.2806
10280SOL    HW131434   6.094   0.722   0.672  0.3558  0.6013  1.0499
10280SOL    HW231435   6.222   0.647   0.642  0.0167  0.5978 -0.4543
10281SOL     OW31436   3.658   7.041   0.083 -0.0672 -0.0799  0.4386
10281SOL    HW131437   3.631   7.126   0.048  0.6017 -0.6946 -1.6481
10281SOL    HW231438   3.750   7.052   0.105  0.5821 -0.7929 -1.7328
10282SOL     OW31439   3.847   5.448   7.154  0.1544 -0.0623 -0.1878
10282SOL    HW131440   3.842   5.370   7.099 -1.0708 -0.0698 -0.0723
10282SOL    HW231441   3.919   5.429   7.215  0.7867 -0.5083 -1.0529
10283SOL     OW31442   3.557   0.073   0.254 -0.9259  0.5768  0.2890
10283SOL    HW131443   3.497   0.141   0.285 -2.8359 -0.9093 -0.1274
10283SOL    HW231444   3.567   0.014   0.328 -0.4437  0.4976  0.1627
10284SOL     OW31445   1.448   7.254   2.984  0.3587  0.4338 -0.1707
10284SOL    HW131446   1.394   7.279   3.060  0.1659 -1.3361  0.2875
10284SOL    HW231447   1.400   7.289   2.909 -0.0960  1.1174  0.4293
10285SOL     OW31448   1.769   4.785   4.189 -0.3008  0.2579 -0.0883
10285SOL    HW131449   1.817   4.814   4.111 -0.8058  0.0677 -0.4686
10285SOL    HW231450   1.734   4.700   4.166  1.2358 -0.7088  1.0606
10286SOL     OW31451   4.310   6.995   2.155  0.2507  0.0535 -0.0710
10286SOL    HW131452   4.357   7.065   2.201 -1.6067  1.3183 -0.0022
10286SOL    HW231453   4.312   7.020   2.063 -0.0645 -0.0078 -0.0972
10287SOL     OW31454   4.828   1.411   1.507  0.5319  0.0735  0.1631
10287SOL    HW131455   4.884   1.466   1.561  0.0863 -0.6305  1.3649
10287SOL    HW231456   4.888   1.358   1.455  0.9582  0.6573  0.0512
10288SOL     OW31457   3.627   3.719   6.045 -0.2847  0.1030 -0.6971
10288SOL    HW131458   3.707   3.731   5.994 -0.0389 -0.9016 -0.5550
10288SOL    HW231459   3.599   3.630   6.026 -1.3330  0.4141 -0.6741
10289SOL     OW31460   4.698   6.986   5.399  0.4830 -0.3211 -0.0119
10289SOL    HW131461   4.685   6.949   5.486  1.2258 -0.7976 -0.0935
10289SOL    HW231462   4.769   6.933   5.361 -0.5898 -0.8609 -1.3165
10290SOL     OW31463   5.747   5.200   7.225  0.0140 -0.0209 -0.1876
10290SOL    HW131464   5.718   5.109   7.238  0.7667 -0.5514 -2.0285
10290SOL    HW231465   5.842   5.194   7.215  0.0463  0.9484 -0.5184
10291SOL     OW31466   3.678   3.702   5.010  0.2515  0.2125 -0.0638
10291SOL    HW131467   3.656   3.610   5.005 -0.9204  0.5081 -0.5232
10291SOL    HW231468   3.595   3.746   5.028  0.7133  1.2127 -0.3413
10292SOL     OW31469   3.219   6.345   2.477  0.0133 -0.3376 -0.7930
10292SOL    HW131470   3.308   6.327   2.448 -0.4807 -1.2742 -1.7665
10292SOL    HW231471   3.214   6.440   2.485  1.3855 -0.3405  0.2080
10293SOL     OW31472   2.603   3.774   5.154  0.3436 -0.1014  0.4555
10293SOL    HW131473   2.513   3.807   5.160 -0.3533 -1.3784 -2.1475
10293SOL    HW231474   2.599   3.686   5.190  0.5270 -0.2456  0.1189
10294SOL     OW31475   1.493   3.107   0.593  0.4819  0.2605  0.1082
10294SOL    HW131476   1.462   3.045   0.527  0.3272 -0.4460  0.8383
10294SOL    HW231477   1.588   3.097   0.593  0.4565  0.0225  0.2268
10295SOL     OW31478   1.249   7.215   4.645  0.1991 -0.3039  0.0898
10295SOL    HW131479   1.322   7.277   4.645  2.0746 -2.4851  0.1886
10295SOL    HW231480   1.209   7.226   4.732  0.4864  0.7744  0.1003
10296SOL     OW31481   6.637   1.948   4.900  0.0363  0.2615 -0.0264
10296SOL    HW131482   6.546   1.920   4.914 -0.1661 -0.5335 -2.7622
10296SOL    HW231483   6.629   2.029   4.849  0.8623  0.8843  0.8120
10297SOL     OW31484   0.131   1.132   2.731 -0.3386  0.3809  0.2396
10297SOL    HW131485   0.202   1.157   2.789  0.1236 -0.8972  0.2513
10297SOL    HW231486   0.060   1.104   2.790  0.3994 -1.6394  0.2157
10298SOL     OW31487   6.152   1.131   4.186  0.0128  0.0382 -0.8092
10298SOL    HW131488   6.137   1.212   4.138  1.7016  2.1711  2.0822
10298SOL    HW231489   6.246   1.129   4.202  0.1301 -2.9523 -1.5122
10299SOL     OW31490   6.463   1.921   4.409  0.3386 -0.4836  0.1741
10299SOL    HW131491   6.429   1.915   4.499  1.7961 -0.8358  0.7206
10299SOL    HW231492   6.421   1.848   4.363 -1.5823  0.6001  0.1527
10300SOL     OW31493   1.393   3.968   5.165  0.3820 -0.0322 -0.1589
10300SOL    HW131494   1.431   3.971   5.253 -2.0738  0.6875  0.9194
10300SOL    HW231495   1.447   4.027   5.114  1.5613 -0.0961  0.9871
10301SOL     OW31496   0.678   1.413   6.645 -0.2005  0.1275 -0.2850
10301SOL    HW131497   0.644   1.467   6.716 -0.6548  1.3528 -1.4000
10301SOL    HW231498   0.763   1.451   6.624  0.3932 -0.8738  0.2890
10302SOL     OW31499   3.717   5.934   1.882 -0.1038  0.6445  0.3431
10302SOL    HW131500   3.725   5.994   1.808 -2.6697  0.4870 -0.0813
10302SOL    HW231501   3.699   5.848   1.842 -1.6288  0.5853  1.1360
10303SOL     OW31502   2.967   3.755   4.591  0.3023 -0.8452 -0.5354
10303SOL    HW131503   2.951   3.776   4.499 -0.3834  0.3213 -0.1734
10303SOL    HW231504   2.917   3.822   4.639  2.8081  0.2133  0.6761
10304SOL     OW31505   0.356   0.432   3.566  0.6216 -0.0666  0.1281
10304SOL    HW131506   0.314   0.347   3.577  1.2712 -0.3948  0.0582
10304SOL    HW231507   0.376   0.461   3.656  1.3417 -0.4584  0.0954
10305SOL     OW31508   0.248   5.709   3.165  0.4010 -0.1897 -0.3755
10305SOL    HW131509   0.190   5.637   3.189  0.0309  0.2151 -0.0325
10305SOL    HW231510   0.316   5.710   3.233 -0.9916  1.3454  1.0609
10306SOL     OW31511   1.090   5.163   1.010 -0.2985  0.3371  0.5313
10306SOL    HW131512   1.172   5.175   0.962 -0.3301 -0.3074  0.3050
10306SOL    HW231513   1.117   5.157   1.102  0.0010 -0.6570  0.3918
10307SOL     OW31514   3.188   2.566   5.882 -0.2548  0.0049  0.5803
10307SOL    HW131515   3.251   2.638   5.874 -0.1117 -0.3230 -1.3188
10307SOL    HW231516   3.105   2.609   5.905  0.2776  0.5860  1.4481
10308SOL     OW31517   0.547   2.628   0.433  0.4649 -0.0241 -0.0607
10308SOL    HW131518   0.512   2.694   0.373 -0.2238  0.6380  1.0417
10308SOL    HW231519   0.618   2.586   0.385  1.2521  1.8710 -0.5983
10309SOL     OW31520   0.010   2.798   2.664  0.6900 -0.8124 -0.2602
10309SOL    HW131521  -0.053   2.854   2.710  1.4150 -1.3997  1.5143
10309SOL    HW231522   0.093   2.816   2.708  1.6048 -0.6311 -2.0554
10310SOL     OW31523   4.914   3.388   4.746  0.2817 -0.4181 -0.0313
10310SOL    HW131524   4.943   3.395   4.837 -0.7184  0.5312  0.2230
10310SOL    HW231525   4.961   3.312   4.712 -0.3679 -1.6299  1.6947
10311SOL     OW31526   0.210   1.957   3.668 -0.3707  0.1665 -0.0601
10311SOL    HW131527   0.175   2.017   3.602 -0.1702 -0.5107 -0.7924
10311SOL    HW231528   0.285   1.915   3.625 -0.1305 -0.1560  0.6598
10312SOL     OW31529   2.584   3.322   4.368  0.0504  0.0112 -0.0634
10312SOL    HW131530   2.548   3.354   4.451  0.0364  0.9658 -0.4375
10312SOL    HW231531   2.538   3.372   4.301  1.4904  0.6817 -0.5719
10313SOL     OW31532   5.589   1.347   6.989 -0.1468  0.1521 -0.1336
10313SOL    HW131533   5.499   1.369   6.964 -0.2224  1.8602  1.5370
10313SOL    HW231534   5.615   1.417   7.049  2.4087 -0.1497 -0.8117
10314SOL     OW31535   4.588   2.457   4.353 -0.2624  0.1494  0.2399
10314SOL    HW131536   4.497   2.462   4.325  0.3859  0.1914 -1.8844
10314SOL    HW231537   4.587   2.391   4.423 -1.8793 -0.0358  0.0630
10315SOL     OW31538   5.647   4.737   1.148  0.3249  0.0255 -0.0261
10315SOL    HW131539   5.701   4.658   1.150 -0.6651 -0.6582  1.0316
10315SOL    HW231540   5.569   4.713   1.199  0.4946  2.0369  1.2471
10316SOL     OW31541   4.364   5.064   1.106  0.6918 -0.1181 -0.0352
10316SOL    HW131542   4.407   4.995   1.157 -1.2122 -0.2485  1.4446
10316SOL    HW231543   4.343   5.022   1.023 -2.0975 -1.9507  1.5082
10317SOL     OW31544   1.999   5.034   5.891 -0.3088  0.5482  0.1627
10317SOL    HW131545   2.028   4.949   5.857 -1.2603  0.5211 -0.5698
10317SOL    HW231546   2.060   5.053   5.963  1.0161  0.0918 -0.8317
10318SOL     OW31547   4.633   5.718   1.343  0.4373 -0.4471  0.1441
10318SOL    HW131548   4.658   5.805   1.311 -0.1335  0.3541  1.8532
10318SOL    HW231549   4.620   5.667   1.263  0.8648  1.0041 -0.8798
10319SOL     OW31550   2.206   0.882   5.126 -0.1061 -0.0553  0.9258
10319SOL    HW131551   2.262   0.879   5.048 -0.0416 -1.2349  0.9998
10319SOL    HW231552   2.129   0.832   5.101 -0.7939  0.9198  1.0852
10320SOL     OW31553   6.735   7.206   4.803  0.1247  0.1444  0.0452
10320SOL    HW131554   6.785   7.128   4.826 -1.6650 -1.0439  0.0221
10320SOL    HW231555   6.658   7.173   4.758 -0.4535  1.9620 -0.3620
10321SOL     OW31556   4.047   4.412   6.918  0.5993 -0.2452 -0.7869
10321SOL    HW131557   4.022   4.460   6.839  0.8295 -1.7663 -1.8005
10321SOL    HW231558   3.964   4.398   6.965  0.1407 -1.2446 -1.8618
10322SOL     OW31559   6.940   3.030   5.086  0.7493  0.3140 -0.1819
10322SOL    HW131560   6.852   2.991   5.084 -0.2201  2.2391  2.4268
10322SOL    HW231561   6.934   3.104   5.026  0.4754  0.6452  0.2493
10323SOL     OW31562   4.430   0.077   5.771 -0.3701  0.1847 -0.3569
10323SOL    HW131563   4.496   0.097   5.837  0.0543  0.5487 -0.8883
10323SOL    HW231564   4.394  -0.007   5.798  1.9991 -1.2161 -1.3973
10324SOL     OW31565   4.005   2.240   0.927  0.6635 -0.4237 -0.0534
10324SOL    HW131566   3.925   2.254   0.978  1.3738  0.3822  0.8650
10324SOL    HW231567   4.074   2.232   0.993  1.7920  1.9771 -0.8993
10325SOL     OW31568   1.046   0.782   2.051  0.3118  0.1396  0.2479
10325SOL    HW131569   1.096   0.702   2.068  0.7539  0.3999  0.2023
10325SOL    HW231570   1.105   0.836   1.998  0.7560  1.2704  1.8459
10326SOL     OW31571   2.125   2.112   0.074  0.4086  0.3642  0.2161
10326SOL    HW131572   2.175   2.033   0.096 -0.6446 -0.3804  0.0282
10326SOL    HW231573   2.132   2.119  -0.021 -1.8402 -1.1620 -0.1076
10327SOL     OW31574   0.261   6.199   0.221 -0.1196  0.1135  0.4294
10327SOL    HW131575   0.244   6.125   0.278 -0.9148  0.4931  0.6862
10327SOL    HW231576   0.199   6.188   0.148 -1.7823  1.7154  1.5689
10328SOL     OW31577   2.414   0.978   4.491  0.1770 -0.3851  0.8336
10328SOL    HW131578   2.424   1.073   4.497 -1.4933 -0.1916  0.9216
10328SOL    HW231579   2.502   0.943   4.502  0.7724  1.1480  0.9910
10329SOL     OW31580   0.958   0.801   2.592 -0.4812  0.2257  1.0791
10329SOL    HW131581   1.030   0.860   2.571 -0.9069 -0.0979 -1.3997
10329SOL    HW231582   0.995   0.713   2.583 -0.8968  0.0757  0.7973
10330SOL     OW31583   4.367   2.631   2.064  0.3557 -0.0500  0.0268
10330SOL    HW131584   4.335   2.556   2.013  0.9284 -0.6179  0.5028
10330SOL    HW231585   4.462   2.622   2.064  0.5730  1.8209 -1.6606
10331SOL     OW31586   2.649   6.729   0.486 -0.0084  0.4252  0.3859
10331SOL    HW131587   2.645   6.780   0.406  0.6444  2.2998  1.5338
10331SOL    HW231588   2.591   6.775   0.547 -0.1624 -0.7367  1.1391
10332SOL     OW31589   3.302   2.613   5.414 -0.2592  0.4082 -0.0507
10332SOL    HW131590   3.391   2.587   5.439 -0.6751  0.2160  1.2111
10332SOL    HW231591   3.276   2.677   5.480 -0.0503  2.5247 -1.9271
10333SOL     OW31592   1.812   5.954   0.260 -0.2994  0.2808  0.9577
10333SOL    HW131593   1.879   5.893   0.229 -2.0706 -1.4497  0.4702
10333SOL    HW231594   1.729   5.910   0.243 -1.5905  2.4302  1.4716
10334SOL     OW31595   1.648   5.863   6.686  0.1554 -0.0042  1.0254
10334SOL    HW131596   1.685   5.775   6.678 -1.8681 -0.7923  0.1907
10334SOL    HW231597   1.573   5.852   6.744 -0.3459  1.1060  0.5941
10335SOL     OW31598   3.279   6.261   0.056 -0.6939 -0.6777 -0.5259
10335SOL    HW131599   3.371   6.253   0.080  0.0691  1.4224 -2.5193
10335SOL    HW231600   3.271   6.211  -0.025 -0.6802  1.2427 -1.7441
10336SOL     OW31601   1.355   7.187   6.871  0.0456  0.3084 -0.1308
10336SOL    HW131602   1.404   7.216   6.948 -0.1268  0.7858 -0.1957
10336SOL    HW231603   1.302   7.263   6.847  1.8199  0.9767 -2.1137
10337SOL     OW31604   0.460   7.172   3.649 -0.4898  0.9318 -0.4439
10337SOL    HW131605   0.533   7.154   3.708 -0.2488 -0.0710 -1.0360
10337SOL    HW231606   0.455   7.268   3.646  0.9236  1.0137 -0.5561
10338SOL     OW31607   6.739   5.286   4.209 -0.3801  0.6263  0.2091
10338SOL    HW131608   6.659   5.325   4.244  0.6736  2.9338  0.1657
10338SOL    HW231609   6.761   5.340   4.133  1.3593  0.2339  0.3957
10339SOL     OW31610   5.932   5.951   2.639  0.7070 -0.0624  0.0987
10339SOL    HW131611   5.842   5.919   2.625  0.1355 -0.2148  3.5181
10339SOL    HW231612   5.926   6.045   2.626 -0.3137  0.1197  1.6708
10340SOL     OW31613   6.057   3.070   2.740  0.0167 -0.8170  0.6257
10340SOL    HW131614   6.065   2.975   2.742 -0.9915 -0.9565 -1.1890
10340SOL    HW231615   5.991   3.087   2.673 -0.2839  1.1360  1.3850
10341SOL     OW31616   5.440   5.980   1.705  0.3633 -0.1100  0.1697
10341SOL    HW131617   5.450   6.075   1.700  0.9985 -0.2192 -0.8993
10341SOL    HW231618   5.527   5.948   1.729  0.4483 -0.4941 -0.6315
10342SOL     OW31619   0.905   5.476   3.004 -0.5733  0.3652 -0.3799
10342SOL    HW131620   0.923   5.509   3.091  1.2569 -2.3304  0.3062
10342SOL    HW231621   0.982   5.499   2.952 -1.7386  2.1403 -1.3658
10343SOL     OW31622   2.170   3.690   2.288  0.1204 -0.5623 -0.1445
10343SOL    HW131623   2.085   3.654   2.314 -0.1826 -0.4448 -0.9790
10343SOL    HW231624   2.216   3.702   2.371 -0.9039 -0.0537  0.3578
10344SOL     OW31625   1.136   5.895   6.018  0.4590 -0.2615  0.3602
10344SOL    HW131626   1.165   5.876   6.107 -0.2573  1.1249  0.9206
10344SOL    HW231627   1.216   5.922   5.972  0.8468 -1.0701  0.5627
10345SOL     OW31628   1.073   2.993   6.301 -0.6536  0.0350 -0.4923
10345SOL    HW131629   1.049   2.907   6.335  0.0717 -0.2914 -0.7713
10345SOL    HW231630   1.076   2.981   6.206 -1.1711  0.5326 -0.5685
10346SOL     OW31631   3.404   1.191   4.884 -0.5510  0.5285 -0.4026
10346SOL    HW131632   3.491   1.200   4.843 -1.0006  1.7558 -1.1337
10346SOL    HW231633   3.364   1.116   4.841  0.8444 -1.2108  1.2439
10347SOL     OW31634   4.599   0.448   5.822 -0.7620  0.1767  0.2644
10347SOL    HW131635   4.541   0.399   5.881 -1.0444 -0.9323 -0.9157
10347SOL    HW231636   4.589   0.540   5.849 -2.4271 -0.0969  0.6199
10348SOL     OW31637   6.634   2.056   2.467  0.7339 -0.2801  0.1020
10348SOL    HW131638   6.635   1.961   2.462 -1.5536 -0.4448  1.7491
10348SOL    HW231639   6.718   2.080   2.505  1.2042 -1.6646 -0.0605
10349SOL     OW31640   4.200   3.016   3.253 -0.0517 -0.3991  0.2801
10349SOL    HW131641   4.180   3.092   3.199 -0.0444 -0.5310  0.0930
10349SOL    HW231642   4.277   3.042   3.304 -1.0027  0.3167  1.3932
10350SOL     OW31643   3.815   6.319   7.031 -0.7709  0.0917  0.4081
10350SOL    HW131644   3.748   6.295   6.966 -1.2168  0.4748  0.7229
10350SOL    HW231645   3.877   6.246   7.030 -1.9295 -0.9137  1.0997
10351SOL     OW31646   6.437   3.918   4.606  0.3618  0.1548 -0.1903
10351SOL    HW131647   6.451   3.823   4.613 -1.0423 -0.1226 -0.9748
10351SOL    HW231648   6.377   3.939   4.677  0.9203  0.5202  0.1775
10352SOL     OW31649   5.206   4.134   2.651  0.2293 -0.2407 -0.4567
10352SOL    HW131650   5.122   4.127   2.698  0.3394 -1.4686 -0.4073
10352SOL    HW231651   5.216   4.049   2.608  0.2189  0.7965 -2.5838
10353SOL     OW31652   0.146   6.479   0.101 -0.1688  0.3299 -0.2217
10353SOL    HW131653   0.113   6.406   0.049 -0.3070 -0.4868  0.9855
10353SOL    HW231654   0.205   6.525   0.043 -0.7641 -0.2355 -1.2861
10354SOL     OW31655   5.626   5.365   4.235 -0.3970  0.1821  0.0669
10354SOL    HW131656   5.646   5.377   4.328  1.7985 -1.0134 -0.2191
10354SOL    HW231657   5.563   5.434   4.215 -0.7738  0.5624  2.4009
10355SOL     OW31658   4.402   0.586   6.919  0.1668 -0.4423  0.6884
10355SOL    HW131659   4.399   0.654   6.851  0.3377 -1.2049 -0.0967
10355SOL    HW231660   4.455   0.625   6.989  1.4219 -0.2739 -0.3330
10356SOL     OW31661   2.752   4.070   6.090 -0.2494 -0.1527  0.4046
10356SOL    HW131662   2.684   4.122   6.132  0.5997  0.1922  1.3837
10356SOL    HW231663   2.706   4.016   6.026 -1.4354  0.0492  1.0799
10357SOL     OW31664   3.596   4.081   6.588  0.0319 -0.4750 -0.3943
10357SOL    HW131665   3.597   4.172   6.619 -0.3530 -0.8861  0.8430
10357SOL    HW231666   3.509   4.070   6.549 -1.1022 -1.1907  2.1962
10358SOL     OW31667   3.788   0.478   4.223 -0.1418 -0.1045  0.1805
10358SOL    HW131668   3.825   0.400   4.264  1.5033  0.4314 -0.2529
10358SOL    HW231669   3.730   0.444   4.154  1.7878 -0.9684 -1.0679
10359SOL     OW31670   0.976   1.955   0.472  0.9145  0.5406  0.5681
10359SOL    HW131671   0.907   1.903   0.513  2.0560 -0.7484  0.8855
10359SOL    HW231672   0.938   1.983   0.389 -0.2400  0.4250  1.0431
10360SOL     OW31673   2.834   1.420   5.251 -0.2571 -0.0849 -0.3936
10360SOL    HW131674   2.893   1.475   5.200  1.6095 -0.7514  1.0081
10360SOL    HW231675   2.885   1.342   5.272 -1.7464 -0.8369  0.5578
10361SOL     OW31676   6.800   4.876   6.092 -0.1830  0.6544  0.2839
10361SOL    HW131677   6.863   4.939   6.126  0.9496 -0.4356  0.2238
10361SOL    HW231678   6.841   4.841   6.013 -0.2770 -1.0003  0.9440
10362SOL     OW31679   6.924   4.715   6.572  0.0391  0.1279 -0.0194
10362SOL    HW131680   6.952   4.805   6.585  0.8180 -0.2829  1.2346
10362SOL    HW231681   6.860   4.700   6.642  1.5164 -0.9554  1.1244
10363SOL     OW31682   3.392   1.280   1.567  0.0486 -0.1089  0.1625
10363SOL    HW131683   3.451   1.312   1.635  0.5703 -0.6456 -0.0318
10363SOL    HW231684   3.433   1.308   1.485 -0.4081  0.2527  0.0528
10364SOL     OW31685   1.160   7.222   5.438 -0.0157 -0.1073 -0.7146
10364SOL    HW131686   1.215   7.282   5.387 -1.5378  1.9674  0.0334
10364SOL    HW231687   1.203   7.217   5.523  1.1825 -1.6479 -1.3901
10365SOL     OW31688   5.891   6.396   2.543  0.0752 -0.0612  0.0268
10365SOL    HW131689   5.943   6.458   2.493 -0.6866  0.9864  0.5127
10365SOL    HW231690   5.882   6.320   2.486  3.1557 -0.7775  0.3862
10366SOL     OW31691   1.225   3.766   5.085  0.0406 -0.5835 -0.1669
10366SOL    HW131692   1.147   3.788   5.136  0.4373  0.5360 -0.0295
10366SOL    HW231693   1.297   3.809   5.131  0.2480  1.3572 -2.2730
10367SOL     OW31694   1.873   5.993   4.140 -0.2421 -0.3383  0.1209
10367SOL    HW131695   1.883   5.963   4.050  1.9663  1.4261 -0.2613
10367SOL    HW231696   1.918   5.928   4.192  0.7907  0.0252 -0.3091
10368SOL     OW31697   0.743   5.342   0.196 -0.0487 -0.6937 -0.0749
10368SOL    HW131698   0.706   5.370   0.112 -1.7436 -1.0196  0.5452
10368SOL    HW231699   0.836   5.365   0.189 -0.3491  0.1883 -1.6529
10369SOL     OW31700   4.655   4.096   4.922  0.6128  0.0044  0.2561
10369SOL    HW131701   4.569   4.055   4.920  0.0783  1.1045 -3.2376
10369SOL    HW231702   4.717   4.023   4.915 -0.1018 -0.6405  0.5896
10370SOL     OW31703   5.631   0.266   0.759 -0.6651  0.5061 -0.2852
10370SOL    HW131704   5.709   0.321   0.753  1.3588 -2.0625  1.3588
10370SOL    HW231705   5.647   0.195   0.698 -1.3551 -0.4671  0.6453
10371SOL     OW31706   1.079   3.911   5.939  0.2438  0.1176 -0.4460
10371SOL    HW131707   1.059   3.973   5.868  1.2299  0.0658 -0.7670
10371SOL    HW231708   1.059   3.825   5.902  0.5567  0.1069 -0.5912
10372SOL     OW31709   5.745   2.029   4.527 -0.5302 -0.2040  0.2332
10372SOL    HW131710   5.653   2.012   4.507 -0.2074 -2.7301  0.7961
10372SOL    HW231711   5.779   2.072   4.448 -2.2786  1.1607  0.1956
10373SOL     OW31712   1.967   7.171   3.366  0.1311 -0.7867 -0.1039
10373SOL    HW131713   2.062   7.171   3.362  0.1273 -2.1920 -0.6253
10373SOL    HW231714   1.942   7.080   3.348 -1.3555 -0.1349 -1.5291
10374SOL     OW31715   5.874   5.856   6.390  0.1914 -0.0907  0.7902
10374SOL    HW131716   5.834   5.921   6.332 -1.9100 -1.8524  0.1979
10374SOL    HW231717   5.968   5.866   6.375 -0.2579  0.2459 -2.1064
10375SOL     OW31718   2.609   4.355   6.053  0.3300 -0.2820 -0.2804
10375SOL    HW131719   2.633   4.441   6.089 -0.3210  0.1580 -0.8916
10375SOL    HW231720   2.646   4.356   5.965 -0.0177 -0.4768 -0.4277
10376SOL     OW31721   6.877   6.075   3.598 -0.6446 -0.2788  0.2573
10376SOL    HW131722   6.818   6.079   3.523 -0.1757  0.0309 -0.1002
10376SOL    HW231723   6.959   6.042   3.561 -0.5033 -0.4174  0.6955
10377SOL     OW31724   0.491   2.471   5.136 -0.1564 -0.2503  0.0618
10377SOL    HW131725   0.420   2.504   5.192  1.1247 -0.8171  2.0713
10377SOL    HW231726   0.451   2.461   5.050 -1.8016  2.0978  0.4994
10378SOL     OW31727   2.279   5.761   2.825  0.0840 -0.3305  0.6429
10378SOL    HW131728   2.249   5.828   2.887 -1.0975  1.6070 -1.9197
10378SOL    HW231729   2.276   5.805   2.740  3.5592 -2.3045 -0.5929
10379SOL     OW31730   5.692   5.875   3.529  0.9680 -0.1832  0.2132
10379SOL    HW131731   5.679   5.860   3.435 -0.6779  2.2422 -0.0059
10379SOL    HW231732   5.782   5.908   3.535  1.3801 -1.1855 -0.4049
10380SOL     OW31733   6.088   5.516   2.097 -0.2806  0.1786 -0.0035
10380SOL    HW131734   6.140   5.571   2.038 -0.5458 -0.3765 -0.7668
10380SOL    HW231735   6.141   5.509   2.176  1.4420 -1.4769 -1.2574
10381SOL     OW31736   2.269   4.593   2.133 -0.9176  0.2592  0.0102
10381SOL    HW131737   2.248   4.672   2.182  0.0491 -0.3844  1.4975
10381SOL    HW231738   2.273   4.524   2.199  0.5272 -0.6104 -0.9548
10382SOL     OW31739   6.221   3.903   5.387  0.2053 -0.1450  0.0146
10382SOL    HW131740   6.276   3.921   5.463  0.6987 -0.6621 -0.2160
10382SOL    HW231741   6.255   3.821   5.351 -0.0455  0.0793 -0.7455
10383SOL     OW31742   3.472   5.253   6.399  0.1367 -0.3740 -0.2621
10383SOL    HW131743   3.399   5.313   6.416  0.6168 -0.0259  0.5824
10383SOL    HW231744   3.436   5.166   6.417  0.9310  0.0491  3.6674
10384SOL     OW31745   1.737   4.278   0.968 -0.3774  0.3414 -0.0330
10384SOL    HW131746   1.684   4.351   1.001 -3.6224 -1.4496 -1.1115
10384SOL    HW231747   1.740   4.290   0.873  0.0025 -0.3176 -0.1110
10385SOL     OW31748   1.334   5.067   1.793 -0.6704 -0.8790  0.3234
10385SOL    HW131749   1.374   5.153   1.801 -0.3973 -0.9633 -0.0955
10385SOL    HW231750   1.241   5.082   1.812 -0.5040 -0.6249  0.9629
10386SOL     OW31751   0.280   4.753   7.047 -0.4399  0.2305  0.0827
10386SOL    HW131752   0.364   4.742   7.002 -0.4627  0.6992 -0.0752
10386SOL    HW231753   0.303   4.764   7.139 -0.2228  1.9917 -0.1670
10387SOL     OW31754   1.106   4.755   2.727  0.0536  0.4368 -0.2930
10387SOL    HW131755   1.057   4.818   2.674  0.2521  0.9500  0.1248
10387SOL    HW231756   1.166   4.809   2.778 -0.6542  0.0250  1.0088
10388SOL     OW31757   6.207   1.225   3.051  0.1077  0.1913  0.1584
10388SOL    HW131758   6.278   1.165   3.026  0.1699  0.4555 -0.3065
10388SOL    HW231759   6.129   1.169   3.057  0.5899 -0.3155  1.8962
10389SOL     OW31760   3.998   4.068   1.362  0.2910 -0.2752 -0.4495
10389SOL    HW131761   4.004   3.973   1.349  0.2334 -0.5119  1.1737
10389SOL    HW231762   3.977   4.103   1.275  0.9335 -1.6871 -1.1892
10390SOL     OW31763   3.628   4.337   6.650 -0.2225 -0.2099 -0.3226
10390SOL    HW131764   3.568   4.411   6.653 -1.4857 -1.1658 -1.1767
10390SOL    HW231765   3.665   4.340   6.562  0.0069 -0.3751 -0.2318
10391SOL     OW31766   1.492   1.808   0.407 -0.4611  0.0414  0.0517
10391SOL    HW131767   1.405   1.848   0.403 -0.1168  0.9519  1.1627
10391SOL    HW231768   1.534   1.835   0.325 -1.3876 -0.8106 -0.7123
10392SOL     OW31769   2.482   1.731   0.271  0.4672  0.5341  0.2410
10392SOL    HW131770   2.554   1.755   0.329  0.4393 -0.2072  0.5954
10392SOL    HW231771   2.403   1.763   0.314  0.4307 -0.1672  0.7078
10393SOL     OW31772   2.842   4.464   4.235 -0.0083  0.2635  0.5170
10393SOL    HW131773   2.924   4.419   4.253 -0.1524  0.1034  0.7810
10393SOL    HW231774   2.836   4.532   4.303  0.6290  1.2529 -0.3966
10394SOL     OW31775   5.554   6.164   1.402  0.7626  0.2413 -0.4033
10394SOL    HW131776   5.606   6.102   1.454 -0.8721 -0.8807 -0.0631
10394SOL    HW231777   5.499   6.209   1.466  1.4052  1.5335 -0.7420
10395SOL     OW31778   0.274   4.203   3.261  0.8122  0.9044 -0.4615
10395SOL    HW131779   0.192   4.164   3.230 -0.1469  1.2497  1.5427
10395SOL    HW231780   0.289   4.277   3.203  1.5008 -1.1199 -2.9408
10396SOL     OW31781   0.664   2.236   6.212 -0.1089 -0.2425  0.0208
10396SOL    HW131782   0.585   2.183   6.205  0.0556 -0.1812 -2.5597
10396SOL    HW231783   0.718   2.188   6.276 -1.6978 -0.9214  0.8919
10397SOL     OW31784   1.522   3.837   4.201  0.3553  0.8166  0.0528
10397SOL    HW131785   1.575   3.768   4.161  0.5959 -0.1404  1.9141
10397SOL    HW231786   1.579   3.913   4.204  0.6739  0.5987 -0.5162
10398SOL     OW31787   0.293   3.406   5.446  0.0049 -0.3886  0.1238
10398SOL    HW131788   0.304   3.468   5.375  1.5662 -0.0718  0.6165
10398SOL    HW231789   0.249   3.455   5.515 -1.2264 -0.6080 -0.5004
10399SOL     OW31790   3.440   0.358   1.802  0.0208  0.3817  0.2534
10399SOL    HW131791   3.523   0.403   1.817  0.6367 -0.5526 -0.3580
10399SOL    HW231792   3.464   0.276   1.759 -1.3021  0.5880 -0.9018
10400SOL     OW31793   0.463   4.297   5.136  0.4489 -0.9522 -0.0529
10400SOL    HW131794   0.427   4.304   5.224 -1.4878 -1.7260 -0.7579
10400SOL    HW231795   0.394   4.254   5.085  1.5680 -0.5820 -1.9294
10401SOL     OW31796   1.584   2.519   1.998 -0.3137 -0.3334  0.2879
10401SOL    HW131797   1.632   2.441   2.025  1.0240  1.0787  2.0523
10401SOL    HW231798   1.493   2.500   2.022  0.0222 -1.2910  0.8375
10402SOL     OW31799   7.127   3.351   2.987  0.4149  0.6583  0.2581
10402SOL    HW131800   7.055   3.414   2.994  0.7747  1.1999 -0.9719
10402SOL    HW231801   7.117   3.296   3.065  0.3122  2.4487  1.5316
10403SOL     OW31802   5.623   7.255   5.359 -0.5863  0.0312 -0.2100
10403SOL    HW131803   5.557   7.212   5.414  0.3194 -2.5534 -1.0376
10403SOL    HW231804   5.687   7.186   5.340  0.8774  1.7417 -1.7320
10404SOL     OW31805   3.765   2.632   5.268  0.0241  0.1108 -0.1271
10404SOL    HW131806   3.835   2.580   5.308  0.0092  0.0111 -0.2294
10404SOL    HW231807   3.807   2.681   5.198 -0.2363 -0.8882 -0.9946
10405SOL     OW31808   5.389   2.515   0.291  0.1072  0.0353  0.3387
10405SOL    HW131809   5.307   2.540   0.248 -0.1090  1.2618  1.4316
10405SOL    HW231810   5.457   2.540   0.229 -0.2664  0.5922  0.1512
10406SOL     OW31811   0.502   0.345   1.422 -0.0626  0.0521 -0.0672
10406SOL    HW131812   0.555   0.374   1.497  0.0978 -0.6522  0.0965
10406SOL    HW231813   0.480   0.425   1.375  0.2414  0.4502  0.4734
10407SOL     OW31814   1.325   2.743   2.704  0.4708  0.3005 -0.0134
10407SOL    HW131815   1.402   2.742   2.761 -0.0841 -0.7891  0.7367
10407SOL    HW231816   1.328   2.659   2.658 -0.8502 -0.2344  0.8400
10408SOL     OW31817   3.755   1.274   7.247 -0.2429  0.1057  0.3350
10408SOL    HW131818   3.680   1.263   7.188  0.1435 -0.5551 -0.0402
10408SOL    HW231819   3.744   1.362   7.283 -1.4628 -0.1586  0.6565
10409SOL     OW31820   6.852   4.201   1.987  1.4405  0.2671  0.0160
10409SOL    HW131821   6.929   4.238   1.944  2.2637  1.1008  2.1304
10409SOL    HW231822   6.855   4.236   2.076 -1.2926  0.1738  0.1952
10410SOL     OW31823   5.159   6.977   4.800  0.3952  0.0014 -0.0101
10410SOL    HW131824   5.075   7.023   4.804 -0.2814 -1.3565  2.2979
10410SOL    HW231825   5.157   6.917   4.874  2.5007 -1.6376 -1.2301
10411SOL     OW31826   3.870   4.821   2.746 -0.0873  0.1180  0.1949
10411SOL    HW131827   3.783   4.783   2.732  0.1228 -0.9614  1.6330
10411SOL    HW231828   3.863   4.911   2.715 -1.1555 -0.5280 -1.5190
10412SOL     OW31829   6.268   5.855   4.723 -0.1815 -0.3322  0.5814
10412SOL    HW131830   6.347   5.907   4.736 -1.2793  1.0145  2.0623
10412SOL    HW231831   6.213   5.909   4.665 -1.0478 -0.1249  1.5865
10413SOL     OW31832   7.096   3.813   3.665 -0.0290 -0.5028  0.2427
10413SOL    HW131833   7.144   3.868   3.603 -0.0959 -0.2866  0.3813
10413SOL    HW231834   7.074   3.872   3.737 -1.1148 -0.4232 -0.1469
10414SOL     OW31835   1.793   4.881   2.573 -0.4034 -0.2426 -0.2046
10414SOL    HW131836   1.882   4.904   2.601 -0.9854  0.8792  0.7840
10414SOL    HW231837   1.793   4.896   2.478 -0.0523  1.5596  0.0499
10415SOL     OW31838   1.455   0.466   4.474 -0.2233 -0.0661  0.0560
10415SOL    HW131839   1.489   0.495   4.389 -1.3232 -0.1266 -0.4101
10415SOL    HW231840   1.370   0.427   4.454  0.6804 -2.5481  0.8137
10416SOL     OW31841   2.133   3.747   3.372  0.3383  0.1183  0.6319
10416SOL    HW131842   2.124   3.705   3.287 -0.0276 -0.0928  0.7700
10416SOL    HW231843   2.120   3.676   3.435  2.3617 -0.0602  0.8582
10417SOL     OW31844   3.425   1.579   7.231  0.3432 -0.9196  0.6313
10417SOL    HW131845   3.482   1.601   7.157 -0.2305 -0.5210  0.3069
10417SOL    HW231846   3.458   1.631   7.304 -0.4820  0.3884  0.0820
10418SOL     OW31847   4.662   3.728   4.394  0.2946  0.0753 -0.0081
10418SOL    HW131848   4.711   3.810   4.403  0.6442  0.0707 -1.5943
10418SOL    HW231849   4.669   3.686   4.479  1.6179  0.8676  0.2873
10419SOL     OW31850   6.861   4.160   6.320 -1.2944 -0.0033  0.8799
10419SOL    HW131851   6.877   4.245   6.279  0.6481 -1.5060 -1.6409
10419SOL    HW231852   6.784   4.125   6.274 -0.8178 -0.4996  0.4574
10420SOL     OW31853   3.814   4.709   1.567  0.0513 -0.0835 -0.6844
10420SOL    HW131854   3.725   4.742   1.555 -0.1022 -0.1457  0.3200
10420SOL    HW231855   3.864   4.785   1.596 -0.0898 -0.4909  0.6459
10421SOL     OW31856   2.237   3.326   3.938 -0.0573  0.4548  0.1248
10421SOL    HW131857   2.175   3.383   3.892 -0.2689  0.6529  0.6489
10421SOL    HW231858   2.186   3.249   3.961  0.7652 -0.9255 -2.4725
10422SOL     OW31859   5.943   3.191   4.735  0.2728  0.2186  0.1962
10422SOL    HW131860   5.952   3.129   4.809  0.0651 -0.5884 -0.4441
10422SOL    HW231861   5.856   3.228   4.746 -0.2201 -0.7769 -0.3057
10423SOL     OW31862   1.641   6.130   4.233 -0.0030  0.4252 -0.2055
10423SOL    HW131863   1.722   6.088   4.203 -0.0277  0.5984 -0.5058
10423SOL    HW231864   1.655   6.143   4.327 -0.4818 -1.4041  0.1535
10424SOL     OW31865   2.575   4.461   1.092  0.5505 -0.1591  0.0796
10424SOL    HW131866   2.599   4.458   0.999  0.6995  1.5197  0.0666
10424SOL    HW231867   2.479   4.467   1.091  0.3185 -2.8898  0.0968
10425SOL     OW31868   0.029   6.280   6.949  0.5425  0.4516 -0.0370
10425SOL    HW131869   0.045   6.196   6.992  2.0387 -0.8354 -3.0141
10425SOL    HW231870  -0.029   6.327   7.010 -0.4866 -2.7804  1.5899
10426SOL     OW31871   4.930   5.993   3.650 -0.0747  0.3151 -0.2194
10426SOL    HW131872   4.989   6.049   3.600 -0.4215  1.0791  0.2267
10426SOL    HW231873   4.972   5.907   3.647  0.2556  0.4950 -1.2415
10427SOL     OW31874   2.658   1.082   4.908 -0.2769 -0.0837  0.6480
10427SOL    HW131875   2.696   1.022   4.844  0.2742  1.2364 -0.2785
10427SOL    HW231876   2.697   1.056   4.991  0.2710 -0.7450  0.1877
10428SOL     OW31877   3.981   0.613   4.084  0.1569 -0.4080 -0.3887
10428SOL    HW131878   3.926   0.557   4.139  0.0009 -1.9095 -2.0429
10428SOL    HW231879   3.920   0.660   4.028  0.3339  0.9377  0.5184
10429SOL     OW31880   6.896   6.949   1.901 -0.1161 -0.2060  0.4449
10429SOL    HW131881   6.857   6.885   1.960 -0.0111 -1.5994 -0.9777
10429SOL    HW231882   6.978   6.909   1.872 -1.3149 -0.6063 -2.5241
10430SOL     OW31883   5.203   1.144   1.354  0.1849  0.1650  0.2945
10430SOL    HW131884   5.131   1.166   1.294 -1.6818 -0.3873  2.2658
10430SOL    HW231885   5.233   1.058   1.324  0.4131  0.6326 -0.8720
10431SOL     OW31886   6.859   1.379   6.094 -0.6517  0.0327 -0.1466
10431SOL    HW131887   6.933   1.435   6.072  0.6750 -0.6877  2.3168
10431SOL    HW231888   6.879   1.295   6.052 -1.8562  0.8390 -2.4647
10432SOL     OW31889   6.334   6.203   4.998 -0.2128 -0.0614 -0.6436
10432SOL    HW131890   6.245   6.181   4.968 -0.2027 -0.7816 -0.1533
10432SOL    HW231891   6.368   6.121   5.034 -0.0574  0.6698  0.9222
10433SOL     OW31892   7.162   3.755   5.243 -0.6660  0.2146 -0.1730
10433SOL    HW131893   7.113   3.732   5.322 -0.4597 -1.8767 -0.6296
10433SOL    HW231894   7.227   3.819   5.272  0.0015 -1.2032  1.5394
10434SOL     OW31895   0.201   6.887   6.100 -0.2144 -0.7480 -0.1236
10434SOL    HW131896   0.167   6.933   6.023  0.5948  0.7137  0.3788
10434SOL    HW231897   0.124   6.874   6.156 -0.1849  1.5558  0.5033
10435SOL     OW31898   0.222   5.333   6.050  0.4488 -0.1994 -0.2332
10435SOL    HW131899   0.158   5.405   6.049  0.0723 -0.5385 -0.5516
10435SOL    HW231900   0.263   5.339   6.137 -1.2997 -1.1217  0.6755
10436SOL     OW31901   4.959   5.795   6.883  0.2566 -0.4889  0.5424
10436SOL    HW131902   5.004   5.857   6.825 -0.1583 -1.6282 -1.0479
10436SOL    HW231903   4.976   5.710   6.843 -0.5070 -1.2468  1.8215
10437SOL     OW31904   1.787   4.339   2.571 -0.0548  0.4009 -0.2944
10437SOL    HW131905   1.788   4.244   2.583  0.1244  0.5277  0.7222
10437SOL    HW231906   1.838   4.354   2.491  0.5684 -0.3013 -0.0314
10438SOL     OW31907   6.086   0.824   0.391 -0.3281 -0.2761 -0.5721
10438SOL    HW131908   6.036   0.783   0.320  0.8227 -4.0206  0.6238
10438SOL    HW231909   6.048   0.788   0.471  0.5152  1.3436  0.5841
10439SOL     OW31910   0.836   0.355   3.303 -0.3679 -0.0719  0.2962
10439SOL    HW131911   0.852   0.424   3.368  1.0117 -1.3886  1.3823
10439SOL    HW231912   0.838   0.274   3.354 -0.3095 -1.0394 -1.2408
10440SOL     OW31913   4.718   0.702   6.868 -0.1626  0.3036  0.0279
10440SOL    HW131914   4.668   0.729   6.945 -0.5579 -0.7239  0.1432
10440SOL    HW231915   4.705   0.773   6.805 -0.6041  0.7138  0.5764
10441SOL     OW31916   1.704   1.334   3.515 -0.0054  0.1697  0.1150
10441SOL    HW131917   1.694   1.247   3.476  1.2207  0.8893 -1.8419
10441SOL    HW231918   1.798   1.340   3.535 -0.1270  0.9720  0.4277
10442SOL     OW31919   0.744   6.082   4.315  0.3213  0.1074  0.0361
10442SOL    HW131920   0.683   6.155   4.315  1.4266  1.0488 -0.0338
10442SOL    HW231921   0.812   6.107   4.377  1.7657  0.0639 -1.4872
10443SOL     OW31922   2.341   6.663   2.201  0.0507  0.0208  0.2032
10443SOL    HW131923   2.311   6.573   2.213  0.8120 -0.4392 -1.2554
10443SOL    HW231924   2.396   6.660   2.123  1.1457  1.5007  0.8907
10444SOL     OW31925   5.327   5.445   1.174 -0.0729 -0.0220  0.2402
10444SOL    HW131926   5.280   5.390   1.111  0.2001 -0.5759  0.5089
10444SOL    HW231927   5.348   5.385   1.246  1.6277  0.0552 -0.1731
10445SOL     OW31928   6.123   4.001   1.601 -0.8565  0.0511  0.2407
10445SOL    HW131929   6.148   4.073   1.659  1.4344 -0.9593  0.5716
10445SOL    HW231930   6.175   3.926   1.632  0.7473 -0.4214 -3.3847
10446SOL     OW31931   2.588   4.378   4.204 -0.7710 -0.6474 -0.1473
10446SOL    HW131932   2.683   4.391   4.211 -0.6800 -1.2531 -0.2060
10446SOL    HW231933   2.569   4.388   4.111 -0.3256 -3.3078 -0.5626
10447SOL     OW31934   3.181   2.489   6.835 -0.1201 -0.0632  0.0381
10447SOL    HW131935   3.101   2.523   6.875 -0.6801 -1.8896  0.5189
10447SOL    HW231936   3.248   2.495   6.903 -0.0003  0.8883 -0.1640
10448SOL     OW31937   6.240   3.018   5.008 -0.3383  0.4568 -0.0585
10448SOL    HW131938   6.295   3.029   4.930  0.1100  1.0744  0.3491
10448SOL    HW231939   6.299   3.031   5.082 -1.1157  1.5468  0.3851
10449SOL     OW31940   5.816   3.278   2.900 -0.1803 -0.0627  0.0052
10449SOL    HW131941   5.773   3.273   2.814 -0.8506  2.0564  0.1838
10449SOL    HW231942   5.768   3.217   2.955 -0.6264 -0.4222 -0.7760
10450SOL     OW31943   2.312   3.975   3.192  0.0652  0.5629  0.0235
10450SOL    HW131944   2.403   3.950   3.208 -0.1326 -0.6659 -0.7056
10450SOL    HW231945   2.302   3.971   3.097 -1.1063 -0.5998  0.1871
10451SOL     OW31946   2.749   4.342   0.515 -0.4706 -0.1000 -0.6740
10451SOL    HW131947   2.730   4.266   0.460 -0.9627 -0.0680 -0.5477
10451SOL    HW231948   2.668   4.360   0.562 -0.1550  0.0868 -0.1892
10452SOL     OW31949   5.625   1.732   1.230 -0.1623 -0.3071 -0.2299
10452SOL    HW131950   5.571   1.700   1.158  0.6028 -1.2232 -0.4287
10452SOL    HW231951   5.600   1.677   1.305 -1.7807  1.4215  0.5149
10453SOL     OW31952   6.567   3.204   1.221 -0.5506 -0.0422 -0.3988
10453SOL    HW131953   6.519   3.249   1.291 -2.2920 -1.6359 -0.5196
10453SOL    HW231954   6.536   3.244   1.140 -0.7191 -0.1989 -0.4116
10454SOL     OW31955   1.853   1.736   3.519 -0.1992  0.6680 -0.0383
10454SOL    HW131956   1.832   1.764   3.429  0.6878  0.4256 -0.3248
10454SOL    HW231957   1.941   1.770   3.535 -0.2442  0.4715  0.6407
10455SOL     OW31958   4.082   6.652   1.366  0.5023  0.5966  0.3843
10455SOL    HW131959   4.064   6.568   1.408 -1.7900 -1.2417 -3.9758
10455SOL    HW231960   4.162   6.637   1.315  0.8018  1.4265  0.6011
10456SOL     OW31961   2.839   4.552   2.304 -0.7496  0.0298 -0.0189
10456SOL    HW131962   2.873   4.617   2.243  0.6324 -0.9287 -0.2838
10456SOL    HW231963   2.917   4.512   2.342 -1.5932 -0.4609  1.2333
10457SOL     OW31964   4.984   6.169   3.266 -0.5047  0.1776 -0.1981
10457SOL    HW131965   5.036   6.229   3.213  0.5641 -0.9461 -0.4270
10457SOL    HW231966   5.032   6.161   3.348 -1.1824  0.4377  0.2277
10458SOL     OW31967   7.089   2.295   4.369 -0.5198  0.0549 -0.2760
10458SOL    HW131968   7.110   2.368   4.312 -1.0847  0.5909  0.1959
10458SOL    HW231969   7.065   2.224   4.309  1.3753 -0.1911 -0.7747
10459SOL     OW31970   2.719   2.787   1.012  0.3513 -0.0898  0.4729
10459SOL    HW131971   2.807   2.791   1.048  1.1573 -1.0370 -1.3650
10459SOL    HW231972   2.683   2.704   1.045 -0.1796  0.6619  1.8681
10460SOL     OW31973   0.415   6.690   6.002 -0.2667  0.1446 -0.1584
10460SOL    HW131974   0.465   6.771   5.989 -0.2841  0.1238 -0.3601
10460SOL    HW231975   0.332   6.720   6.039 -0.1379  0.1862  0.0941
10461SOL     OW31976   5.685   4.261   0.064 -0.0103  0.6588  0.5371
10461SOL    HW131977   5.717   4.254  -0.026  0.3863  1.7491  0.5973
10461SOL    HW231978   5.661   4.171   0.087 -0.6184  0.4525 -0.8416
10462SOL     OW31979   0.215   6.576   1.186 -0.1065  0.3543  0.4065
10462SOL    HW131980   0.125   6.552   1.211 -0.1556  2.9453  3.0292
10462SOL    HW231981   0.204   6.637   1.114 -0.3372 -1.0705 -0.7779
10463SOL     OW31982   5.689   7.168   2.371  0.0908  0.5403  0.0889
10463SOL    HW131983   5.703   7.081   2.407  0.2845  0.3809 -0.3696
10463SOL    HW231984   5.601   7.165   2.334 -0.5987  1.0802  1.6257
10464SOL     OW31985   2.076   6.636   6.156  0.0113  0.3461  0.3909
10464SOL    HW131986   1.987   6.625   6.190 -0.0446 -0.0161  0.1327
10464SOL    HW231987   2.100   6.726   6.180 -0.0956  0.1581  1.2199
10465SOL     OW31988   5.374   7.075   6.730  0.5498  0.1684  0.1644
10465SOL    HW131989   5.352   6.981   6.733  0.4565  0.1781 -0.2242
10465SOL    HW231990   5.313   7.115   6.791 -0.2243  0.1340 -0.5771
10466SOL     OW31991   6.768   2.623   0.598  0.0853 -0.4663 -0.7212
10466SOL    HW131992   6.792   2.603   0.508  0.0699 -0.3365 -0.7547
10466SOL    HW231993   6.772   2.718   0.603  3.1229 -0.5685  0.2411
10467SOL     OW31994   0.895   7.193   2.342 -0.2367 -0.3488 -0.0084
10467SOL    HW131995   0.858   7.119   2.295  1.2594  0.7387 -3.0081
10467SOL    HW231996   0.839   7.267   2.319 -0.4242 -0.0873  1.2209
10468SOL     OW31997   0.082   4.512   1.196  0.1186  0.3240  0.2706
10468SOL    HW131998   0.045   4.599   1.187  0.8873  0.4752 -1.8975
10468SOL    HW231999   0.163   4.515   1.144 -0.1171 -1.8104 -0.2988
10469SOL     OW32000   5.489   4.426   2.307  0.5663  0.2066  0.1883
10469SOL    HW132001   5.426   4.365   2.345  1.1019  0.1755  1.0382
10469SOL    HW232002   5.473   4.509   2.351 -0.8553  0.9756 -1.6966
10470SOL     OW32003   2.907   3.160   3.127 -0.3768 -0.2348  0.0009
10470SOL    HW132004   2.949   3.209   3.198  0.0434  0.0831 -0.4666
10470SOL    HW232005   2.915   3.068   3.153  0.7082 -0.1837 -0.1384
10471SOL     OW32006   4.533   6.060   7.184 -0.3069  0.3889  0.2805
10471SOL    HW132007   4.454   6.042   7.134 -0.5546 -0.9563  1.1238
10471SOL    HW232008   4.602   6.068   7.118 -1.2726  2.4319 -0.5139
10472SOL     OW32009   3.092   3.563   1.236  0.5263 -0.3274 -0.0890
10472SOL    HW132010   3.163   3.602   1.287  0.9689  1.0878 -1.7406
10472SOL    HW232011   3.013   3.580   1.289  1.1077  0.1235  0.6511
10473SOL     OW32012   7.157   4.048   1.305  0.1358 -0.3629  0.3469
10473SOL    HW132013   7.156   4.024   1.398 -0.5809 -1.8096 -0.0273
10473SOL    HW232014   7.219   4.121   1.300  0.4228 -0.4805  1.9090
10474SOL     OW32015   3.742   6.425   1.036 -0.2175  0.5843  0.1962
10474SOL    HW132016   3.742   6.338   0.996  1.6221  0.4477  0.4519
10474SOL    HW232017   3.766   6.484   0.964  1.9628  0.4681  0.8070
10475SOL     OW32018   4.842   4.694   4.876  1.0496  0.2338  0.5342
10475SOL    HW132019   4.909   4.750   4.917  0.8937  0.0266  1.0813
10475SOL    HW232020   4.871   4.605   4.894  0.9971  0.1440  0.1599
10476SOL     OW32021   5.371   6.116   3.202  0.0425  0.0696  0.7477
10476SOL    HW132022   5.391   6.048   3.137  2.4918  1.6127 -0.2132
10476SOL    HW232023   5.323   6.070   3.270  0.4715 -2.3545 -0.5006
10477SOL     OW32024   1.634   2.496   3.099  0.1539  0.2484  0.1741
10477SOL    HW132025   1.605   2.581   3.132 -0.0612  0.6249 -0.9878
10477SOL    HW232026   1.589   2.485   3.016  0.6068 -0.7572  0.0516
10478SOL     OW32027   1.275   4.908   5.474 -0.5788 -0.2185 -0.1180
10478SOL    HW132028   1.235   4.891   5.559 -2.2049 -1.5387 -1.1040
10478SOL    HW232029   1.263   5.002   5.459 -0.0432  0.0671  1.2137
10479SOL     OW32030   6.178   3.301   1.027  0.2873  0.1268  0.1812
10479SOL    HW132031   6.098   3.354   1.018  1.1495  1.2421 -1.0722
10479SOL    HW232032   6.146   3.216   1.058 -1.3715  0.6336 -0.0481
10480SOL     OW32033   2.356   5.346   6.421  0.2536  0.7453  0.1810
10480SOL    HW132034   2.379   5.433   6.453 -3.1174  1.7111  0.2110
10480SOL    HW232035   2.350   5.356   6.326  0.5758  0.3765  0.1236
10481SOL     OW32036   4.082   4.900   1.138 -0.0113  0.5035 -0.7410
10481SOL    HW132037   4.177   4.912   1.128  0.8675 -1.0473  4.0568
10481SOL    HW232038   4.066   4.810   1.108 -0.2168  1.1948 -2.7447
10482SOL     OW32039   6.947   1.986   2.217  0.0980  0.1306  0.2010
10482SOL    HW132040   6.920   1.902   2.178 -0.7239  0.1542  0.7362
10482SOL    HW232041   7.041   1.990   2.198  0.6206 -1.9577  2.0739
10483SOL     OW32042   1.251   5.660   2.490  0.1103 -0.0955  0.4394
10483SOL    HW132043   1.221   5.705   2.569 -1.1546 -0.5946  0.2540
10483SOL    HW232044   1.256   5.729   2.424 -1.4755 -0.1366  0.2490
10484SOL     OW32045   0.434   3.474   1.167  0.3546  0.4831  0.7385
10484SOL    HW132046   0.362   3.535   1.149  1.1102  0.9087 -0.9731
10484SOL    HW232047   0.396   3.387   1.151  0.4258  0.7485 -0.9482
10485SOL     OW32048   1.969   2.741   0.907  0.8447  0.6801 -0.0784
10485SOL    HW132049   1.944   2.733   0.999  0.2465  1.3554 -0.1798
10485SOL    HW232050   2.029   2.815   0.905 -0.9068  2.1257 -0.5655
10486SOL     OW32051   6.580   4.625   6.344 -0.4141  0.2214  0.5260
10486SOL    HW132052   6.534   4.669   6.273  0.3236  0.9490  0.4856
10486SOL    HW232053   6.671   4.622   6.315 -0.2453 -0.1875  1.0891
10487SOL     OW32054   0.428   3.408   2.268  0.7288 -0.2160 -0.1556
10487SOL    HW132055   0.413   3.348   2.341 -0.9295  0.6494  0.2523
10487SOL    HW232056   0.523   3.411   2.259  1.0943  1.1666  3.2767
10488SOL     OW32057   1.744   4.574   3.191  0.2689  0.0029 -0.6096
10488SOL    HW132058   1.838   4.575   3.175  0.5463 -0.6728  0.8929
10488SOL    HW232059   1.718   4.666   3.190  1.3099  0.3319  0.9842
10489SOL     OW32060   1.887   1.518   6.575 -0.0483  0.3511  0.3283
10489SOL    HW132061   1.941   1.483   6.645  0.0400 -0.3845 -0.1056
10489SOL    HW232062   1.944   1.581   6.530  0.9647 -1.4702 -1.0238
10490SOL     OW32063   0.867   3.241   3.119 -0.0423 -0.0211  0.3998
10490SOL    HW132064   0.946   3.210   3.162  0.7747  0.9286 -0.3832
10490SOL    HW232065   0.824   3.161   3.089  1.4865 -0.4789 -0.6525
10491SOL     OW32066   4.064   6.470   3.548  0.3566  0.8113  0.1843
10491SOL    HW132067   4.063   6.558   3.585 -0.1318  0.1748  1.7652
10491SOL    HW232068   4.157   6.446   3.544  0.4512  1.1552  0.3544
10492SOL     OW32069   4.459   4.612   2.697 -0.4860 -0.4671  0.8337
10492SOL    HW132070   4.481   4.632   2.788 -0.0543 -1.0646  0.8644
10492SOL    HW232071   4.532   4.646   2.646 -0.2011 -1.1071  0.8069
10493SOL     OW32072   5.033   3.158   0.389 -0.2457  0.6213 -0.7005
10493SOL    HW132073   5.029   3.172   0.484 -0.2329 -0.8099 -0.4747
10493SOL    HW232074   4.942   3.163   0.361 -0.4488 -0.7627 -0.3260
10494SOL     OW32075   1.751   0.834   5.854  0.6042 -0.2039  0.2550
10494SOL    HW132076   1.706   0.762   5.811 -0.3316  1.6520 -2.0149
10494SOL    HW232077   1.749   0.812   5.947  0.3069 -3.0438 -0.3840
10495SOL     OW32078   6.624   3.354   6.652 -0.2176  0.2402 -0.2306
10495SOL    HW132079   6.587   3.398   6.729 -1.0851 -0.3365 -0.3014
10495SOL    HW232080   6.702   3.404   6.630 -1.0182  1.5533 -0.1244
10496SOL     OW32081   1.853   2.576   6.011  0.2205 -0.0565 -0.0828
10496SOL    HW132082   1.821   2.502   6.063 -0.8199  1.0068  0.7978
10496SOL    HW232083   1.945   2.585   6.038  0.5200 -1.3731 -0.6113
10497SOL     OW32084   2.563   2.772   2.106  0.0596 -0.0960  0.2650
10497SOL    HW132085   2.617   2.724   2.043 -0.0135 -0.4448  0.4680
10497SOL    HW232086   2.475   2.773   2.067  0.7467  2.7730 -1.3484
10498SOL     OW32087   0.271   6.752   3.610 -0.0158  0.1447  0.5159
10498SOL    HW132088   0.220   6.701   3.547 -0.4516  1.0682  0.1105
10498SOL    HW232089   0.362   6.740   3.581 -0.2971  1.5265 -1.0379
10499SOL     OW32090   0.687   3.999   1.660 -0.4730  0.2294  0.0565
10499SOL    HW132091   0.781   4.006   1.675 -0.9763  1.5170  2.9272
10499SOL    HW232092   0.678   4.002   1.565  2.2832  1.5055 -0.2218
10500SOL     OW32093   5.482   0.906   2.883  0.4041 -0.0453  0.4374
10500SOL    HW132094   5.415   0.961   2.843  0.8725 -0.8694 -1.5472
10500SOL    HW232095   5.486   0.828   2.828  2.9384 -0.0485  0.5329
10501SOL     OW32096   4.705   7.067   5.952 -0.1926  0.6828 -0.2012
10501SOL    HW132097   4.760   7.093   6.026  0.2141 -2.1024  0.5431
10501SOL    HW232098   4.746   7.108   5.876  2.7277 -0.9964  0.3998
10502SOL     OW32099   0.813   5.068   2.180 -0.5905  0.7868 -0.4923
10502SOL    HW132100   0.858   5.138   2.227 -0.0842  0.1293  0.0062
10502SOL    HW232101   0.768   5.018   2.248  0.0616 -0.1087 -0.7164
10503SOL     OW32102   2.727   4.666   6.993 -0.2041  0.3998 -0.5379
10503SOL    HW132103   2.735   4.596   6.929  1.3897 -0.7317  0.8735
10503SOL    HW232104   2.633   4.687   6.994 -0.5071 -0.8621 -1.8550
10504SOL     OW32105   4.149   3.563   3.558  0.2442 -0.0922 -0.2062
10504SOL    HW132106   4.163   3.656   3.539  0.4473  0.0133  0.4361
10504SOL    HW232107   4.056   3.556   3.578  0.7272  0.4833  2.4657
10505SOL     OW32108   6.245   0.859   4.907  0.4112  0.6199 -0.7513
10505SOL    HW132109   6.282   0.859   4.819  2.7665  0.4425  0.1911
10505SOL    HW232110   6.264   0.771   4.940 -1.0129  0.4807 -0.2874
10506SOL     OW32111   5.913   4.526   3.161  0.2741  0.0629 -0.4994
10506SOL    HW132112   5.979   4.558   3.099  0.4575  1.0292  0.1689
10506SOL    HW232113   5.960   4.464   3.216  0.3393 -0.1168 -0.7577
10507SOL     OW32114   5.851   1.021   0.069  0.3343 -0.0770 -0.8851
10507SOL    HW132115   5.871   1.114   0.062 -1.1477  0.2588 -0.6419
10507SOL    HW232116   5.910   0.980   0.006 -0.4850  1.2349 -2.5452
10508SOL     OW32117   2.869   6.886   5.938  0.0026  0.4679  0.4793
10508SOL    HW132118   2.884   6.959   5.998  0.3436  0.1233  0.8203
10508SOL    HW232119   2.882   6.923   5.851  0.1475  0.8174  0.6487
10509SOL     OW32120   3.736   3.299   6.673 -0.1390 -0.1340  0.5386
10509SOL    HW132121   3.733   3.356   6.597 -0.4098 -0.0522  0.6101
10509SOL    HW232122   3.644   3.281   6.693 -0.0429 -1.2663  0.0041
10510SOL     OW32123   5.104   6.421   5.751 -0.0796  0.0924  0.4857
10510SOL    HW132124   5.163   6.497   5.748 -0.1489  0.1245 -0.5236
10510SOL    HW232125   5.030   6.447   5.696 -0.5001 -0.3898  0.8227
10511SOL     OW32126   3.277   3.779   6.240 -0.4493 -0.6690  0.5267
10511SOL    HW132127   3.263   3.742   6.327  1.0947 -1.4015  0.4917
10511SOL    HW232128   3.199   3.756   6.191 -1.1396 -0.6323  1.5992
10512SOL     OW32129   0.627   4.519   1.033 -1.1751 -0.2249  0.3668
10512SOL    HW132130   0.642   4.495   0.941  0.5315 -1.9406  1.0641
10512SOL    HW232131   0.697   4.581   1.053 -0.7770 -0.8368  0.8765
10513SOL     OW32132   6.553   6.724   6.455  0.0069 -0.5527  0.2007
10513SOL    HW132133   6.580   6.661   6.522 -1.2553 -0.4512  0.8193
10513SOL    HW232134   6.554   6.809   6.499  1.7055 -0.1185 -0.6340
10514SOL     OW32135   2.245   5.174   2.649  0.1549 -0.2957 -0.8050
10514SOL    HW132136   2.279   5.219   2.726  0.2451 -0.9421 -0.4603
10514SOL    HW232137   2.323   5.156   2.596  0.0650  0.3561 -1.1560
10515SOL     OW32138   0.229   4.331   6.234  0.4975  0.5625  0.1584
10515SOL    HW132139   0.275   4.414   6.221  1.7193  0.0789  1.3930
10515SOL    HW232140   0.273   4.289   6.307 -0.2208 -1.1237 -0.3424
10516SOL     OW32141   1.187   6.989   4.970  0.1707 -0.3732 -0.3441
10516SOL    HW132142   1.189   6.960   5.061 -0.8260  1.1243  0.1598
10516SOL    HW232143   1.272   7.032   4.957  0.9128 -1.8554 -0.5709
10517SOL     OW32144   5.311   6.253   4.089  0.9146  0.0621 -0.1081
10517SOL    HW132145   5.269   6.182   4.040  2.2516 -1.0372  0.2822
10517SOL    HW232146   5.248   6.325   4.087 -0.2079 -0.9280 -1.0503
10518SOL     OW32147   3.756   4.879   4.769 -0.0697  0.0507  0.1736
10518SOL    HW132148   3.816   4.831   4.827  1.7050  0.8857 -0.9156
10518SOL    HW232149   3.700   4.811   4.731  0.6828 -0.8515  0.6437
10519SOL     OW32150   3.201   1.672   6.065 -0.3304 -0.1435 -0.3458
10519SOL    HW132151   3.209   1.628   6.150 -0.4233 -2.0981 -1.3363
10519SOL    HW232152   3.108   1.689   6.055 -0.5512 -1.6198 -0.8925
10520SOL     OW32153   3.984   6.632   2.375 -0.5573  0.6562  0.0266
10520SOL    HW132154   4.059   6.692   2.366 -0.4840  0.4579 -0.7884
10520SOL    HW232155   3.994   6.594   2.462  0.5162  0.3508 -0.2160
10521SOL     OW32156   2.549   5.724   6.067 -0.2983  0.1285 -0.0898
10521SOL    HW132157   2.489   5.781   6.019  1.2716  2.5098  0.6814
10521SOL    HW232158   2.516   5.724   6.157 -0.3837 -0.2936 -0.1218
10522SOL     OW32159   3.823   3.500   6.095  0.1946  0.1886  0.2820
10522SOL    HW132160   3.731   3.489   6.071 -0.3517  2.2556  1.2690
10522SOL    HW232161   3.831   3.454   6.179  0.3394 -0.9290 -0.3394
10523SOL     OW32162   3.668   4.016   2.390 -0.1613  0.0680 -0.1259
10523SOL    HW132163   3.687   3.923   2.383  0.4499  0.2927 -1.8307
10523SOL    HW232164   3.680   4.037   2.483  0.7266 -1.3255  0.0807
10524SOL     OW32165   6.068   4.989   0.112 -0.5836  0.0515  0.7892
10524SOL    HW132166   5.985   4.988   0.160 -1.6722  1.6246 -0.9260
10524SOL    HW232167   6.115   5.065   0.147 -0.2376 -0.3576  1.2016
10525SOL     OW32168   6.766   3.614   2.004  0.3133 -0.2736  0.5697
10525SOL    HW132169   6.777   3.623   1.910 -0.7397 -0.3779  0.4226
10525SOL    HW232170   6.796   3.698   2.040 -1.2502  0.5776 -0.0525
10526SOL     OW32171   0.040   4.784   5.979  0.6409  0.3295  0.1305
10526SOL    HW132172   0.015   4.842   5.907 -0.0285  0.5302  0.5131
10526SOL    HW232173   0.015   4.697   5.949 -0.5500  0.5309  0.5094
10527SOL     OW32174   3.738   4.980   3.934  0.2476  0.1295 -0.1426
10527SOL    HW132175   3.773   4.931   4.009  1.7274 -2.0571 -2.1870
10527SOL    HW232176   3.645   4.958   3.932 -0.3840  2.3502  2.6243
10528SOL     OW32177   1.309   6.236   7.220  0.3243  0.1589 -0.0571
10528SOL    HW132178   1.217   6.245   7.194  0.2339 -0.7279 -0.0752
10528SOL    HW232179   1.333   6.321   7.256 -0.7682  0.1172  0.7720
10529SOL     OW32180   4.716   4.962   5.195  0.1654 -0.5388 -0.2978
10529SOL    HW132181   4.804   4.998   5.201 -0.6813  1.5664 -0.0547
10529SOL    HW232182   4.671   4.997   5.272 -0.4699 -2.8270  0.4236
10530SOL     OW32183   4.770   4.845   4.481 -0.4794  0.0931  0.4035
10530SOL    HW132184   4.818   4.926   4.464  0.7738 -0.8477 -0.6700
10530SOL    HW232185   4.831   4.792   4.532 -0.6402 -0.8321 -0.3534
10531SOL     OW32186   6.955   1.043   3.019 -0.2249  0.0645  0.4111
10531SOL    HW132187   6.982   1.033   3.110  1.4691 -0.8750 -0.1637
10531SOL    HW232188   6.931   0.955   2.991 -0.6148  0.3256 -0.0791
10532SOL     OW32189   5.354   3.225   2.409  0.5785  0.1997 -0.4493
10532SOL    HW132190   5.315   3.256   2.328  0.0408  2.4523  0.6100
10532SOL    HW232191   5.283   3.179   2.454  0.8554 -0.9772 -1.2073
10533SOL     OW32192   1.003   7.228   1.463 -0.1089 -0.5462 -0.2357
10533SOL    HW132193   0.927   7.285   1.477  0.4446 -0.0485  0.9227
10533SOL    HW232194   1.057   7.243   1.541  1.2838 -0.7054 -1.1615
10534SOL     OW32195   3.384   0.358   1.481 -0.2182  0.3129 -0.0299
10534SOL    HW132196   3.429   0.378   1.563  0.1469  0.4059 -0.2503
10534SOL    HW232197   3.315   0.424   1.474 -1.4783 -0.8578  1.1418
10535SOL     OW32198   2.833   3.891   3.914  0.1161  0.5694 -0.5484
10535SOL    HW132199   2.768   3.831   3.950  2.5824 -2.3989 -0.8124
10535SOL    HW232200   2.832   3.966   3.974 -1.6830 -0.5851  0.9293
10536SOL     OW32201   2.705   3.171   3.993 -0.4076  0.1937  0.1494
10536SOL    HW132202   2.625   3.216   3.965  0.2308 -0.3899 -2.7515
10536SOL    HW232203   2.720   3.203   4.082 -3.0598  1.4124  0.2199
10537SOL     OW32204   7.190   6.177   0.581 -0.1452 -0.1150 -0.1395
10537SOL    HW132205   7.277   6.200   0.614 -0.3722 -1.6802  1.6121
10537SOL    HW232206   7.134   6.248   0.612  0.2538  0.2031 -0.1309
10538SOL     OW32207   0.137   6.586   2.224 -0.1021  0.3945 -0.8936
10538SOL    HW132208   0.163   6.529   2.151  0.9977  1.1078 -1.0739
10538SOL    HW232209   0.202   6.570   2.292 -0.5252  0.4992 -0.4582
10539SOL     OW32210   2.062   6.371   6.054 -0.3854 -0.1232 -0.4530
10539SOL    HW132211   2.108   6.334   6.129 -3.0816 -1.3316  0.6929
10539SOL    HW232212   2.071   6.466   6.063  0.8277 -0.3116  0.3709
10540SOL     OW32213   1.415   5.156   4.887 -0.0683  0.0193 -0.3491
10540SOL    HW132214   1.364   5.088   4.842 -2.0648  1.1413  0.1764
10540SOL    HW232215   1.454   5.207   4.816 -0.9725  0.1130 -0.7937
10541SOL     OW32216   5.419   6.654   5.314 -1.0753 -0.4390 -0.1129
10541SOL    HW132217   5.388   6.705   5.388  0.8800  0.2786  0.2203
10541SOL    HW232218   5.457   6.575   5.353 -0.7792 -0.4386 -0.4000
10542SOL     OW32219   0.062   2.947   2.411  0.4396  0.1048 -0.2104
10542SOL    HW132220   0.037   2.887   2.481  0.8232 -0.5868 -0.6519
10542SOL    HW232221   0.076   3.031   2.454  0.8501 -0.3584  0.5750
10543SOL     OW32222   3.379   2.873   6.015  0.0189  1.1133 -0.5440
10543SOL    HW132223   3.402   2.952   6.063 -2.1726  2.6048 -1.8754
10543SOL    HW232224   3.410   2.888   5.926  2.7396 -1.0293 -0.0057
10544SOL     OW32225   0.694   3.503   2.715  0.3158 -0.3540  0.2143
10544SOL    HW132226   0.726   3.495   2.804 -0.0463 -0.7974  0.3100
10544SOL    HW232227   0.758   3.455   2.662  1.1471  0.8741  0.0849
10545SOL     OW32228   3.872   5.937   0.969  0.5111  0.1057  0.6354
10545SOL    HW132229   3.935   5.902   0.905  0.4464  2.0731 -0.5341
10545SOL    HW232230   3.895   5.894   1.051  1.7921 -1.0699 -0.3183
10546SOL     OW32231   5.929   2.955   3.155 -0.1264  0.1171 -0.0239
10546SOL    HW132232   5.870   3.016   3.112 -0.1777  1.1374  1.4799
10546SOL    HW232233   5.884   2.929   3.235  0.6337 -0.5886  0.1925
10547SOL     OW32234   3.012   0.666   4.641 -0.9088 -0.4355  0.1783
10547SOL    HW132235   3.100   0.691   4.669 -0.8681 -1.1043  0.6671
10547SOL    HW232236   2.994   0.722   4.566  0.3226 -0.9788 -0.5437
10548SOL     OW32237   4.450   4.738   0.986 -0.8710 -0.3950  0.1050
10548SOL    HW132238   4.427   4.824   0.951 -0.9118  0.5134  2.2950
10548SOL    HW232239   4.423   4.676   0.918 -1.3436  1.2813 -1.2553
10549SOL     OW32240   3.201   1.491   6.340 -0.0915  0.6364 -0.0761
10549SOL    HW132241   3.225   1.576   6.377  0.0003 -0.0346  1.4435
10549SOL    HW232242   3.272   1.433   6.366  0.7072  0.4307 -2.5401
10550SOL     OW32243   0.483   2.775   3.543 -0.0798  0.0993 -0.2726
10550SOL    HW132244   0.513   2.836   3.611 -0.5168  1.1161 -0.9794
10550SOL    HW232245   0.462   2.831   3.468 -1.3513 -0.8500 -0.6306
10551SOL     OW32246   2.261   5.976   3.596  0.3276  1.0878  0.2878
10551SOL    HW132247   2.220   6.062   3.595  0.0423  0.9480 -0.0036
10551SOL    HW232248   2.298   5.968   3.684 -0.6428  1.0303  0.6884
10552SOL     OW32249   3.798   2.494   0.245  0.0420  0.2536 -0.8061
10552SOL    HW132250   3.844   2.453   0.319 -0.4034 -0.1017 -0.7266
10552SOL    HW232251   3.865   2.503   0.178 -0.1914 -2.0195 -1.3941
10553SOL     OW32252   2.066   6.010   6.692  0.0228 -0.0778 -0.3684
10553SOL    HW132253   1.982   6.042   6.659 -0.6112 -1.1990  0.1510
10553SOL    HW232254   2.073   6.049   6.779 -0.1731 -0.3670 -0.2248
10554SOL     OW32255   6.524   1.936   2.822 -0.3395 -0.1670  0.0229
10554SOL    HW132256   6.593   2.003   2.829 -0.0909 -0.2131 -1.6294
10554SOL    HW232257   6.572   1.854   2.814 -0.6607 -0.7546  3.5325
10555SOL     OW32258   1.156   0.733   5.171 -0.0455 -0.4881  0.1137
10555SOL    HW132259   1.077   0.695   5.134 -0.5096  1.9448 -1.4814
10555SOL    HW232260   1.133   0.752   5.262 -2.2469  2.6740 -1.0336
10556SOL     OW32261   7.197   5.481   4.729 -0.5790  0.1110 -0.7611
10556SOL    HW132262   7.189   5.512   4.819  0.9473  0.6102 -0.7907
10556SOL    HW232263   7.187   5.560   4.676  0.1231  0.0607 -0.9677
10557SOL     OW32264   2.327   0.970   2.004 -0.0927  0.2133  0.1580
10557SOL    HW132265   2.271   0.898   1.975  0.4723  0.0533 -0.5626
10557SOL    HW232266   2.318   0.972   2.099 -0.0869 -0.8308  0.1810
10558SOL     OW32267   5.127   5.620   1.655  0.5943 -0.0339 -0.2132
10558SOL    HW132268   5.161   5.710   1.652  1.8237 -0.5120 -0.5218
10558SOL    HW232269   5.165   5.577   1.579  0.9631 -1.1723  0.6063
10559SOL     OW32270   7.165   1.299   5.280  0.1109 -0.2825  0.3316
10559SOL    HW132271   7.092   1.361   5.280 -0.8601 -1.3937  0.1790
10559SOL    HW232272   7.243   1.353   5.276 -0.7558  0.8859 -1.2854
10560SOL     OW32273   5.672   6.936   6.669 -0.1049 -0.0797  0.0015
10560SOL    HW132274   5.667   6.923   6.763  1.7167 -1.2249 -0.0355
10560SOL    HW232275   5.609   6.873   6.632 -0.6947  0.2549  0.4286
10561SOL     OW32276   6.254   1.569   1.160 -0.2380 -0.1227 -0.4307
10561SOL    HW132277   6.200   1.587   1.237 -0.3531 -1.7455 -0.1086
10561SOL    HW232278   6.343   1.562   1.195  0.3322  3.2936 -1.0649
10562SOL     OW32279   1.615   4.276   5.687 -0.5499  0.5363 -0.5722
10562SOL    HW132280   1.703   4.314   5.679  0.4250 -1.7574 -1.1582
10562SOL    HW232281   1.561   4.328   5.628  0.7853  0.8661 -1.5219
10563SOL     OW32282   4.147   4.935   6.462  0.1719  0.5994 -0.2920
10563SOL    HW132283   4.185   4.961   6.546  0.2799 -2.5647  0.6914
10563SOL    HW232284   4.138   5.018   6.414  0.2842  2.4692  2.7244
10564SOL     OW32285   3.807   2.909   5.088  0.0349  0.3934 -0.0597
10564SOL    HW132286   3.883   2.950   5.129  0.4262 -0.0136 -0.3786
10564SOL    HW232287   3.747   2.982   5.070 -0.2429  0.5486  1.4321
10565SOL     OW32288   4.422   1.621   2.976  0.2692 -0.3834 -0.0622
10565SOL    HW132289   4.453   1.647   3.063 -0.7969 -1.5249  0.6664
10565SOL    HW232290   4.426   1.526   2.977 -0.1166 -0.4094 -1.1348
10566SOL     OW32291   1.064   5.700   4.585 -0.3823  0.5718 -0.2561
10566SOL    HW132292   1.100   5.770   4.640 -1.8666  1.9738 -1.0448
10566SOL    HW232293   0.989   5.740   4.541 -1.0363 -1.4169 -0.9952
10567SOL     OW32294   7.252   6.509   5.226  0.3315 -0.2610 -0.1413
10567SOL    HW132295   7.235   6.417   5.210  1.2424 -0.4730  0.0741
10567SOL    HW232296   7.211   6.527   5.311 -0.3880 -0.3106 -0.4785
10568SOL     OW32297   3.025   5.994   5.172  0.5642  0.0259 -0.2237
10568SOL    HW132298   3.035   6.064   5.237 -1.0225  0.3223 -0.2867
10568SOL    HW232299   3.103   5.940   5.184  0.2282 -0.0059  2.0331
10569SOL     OW32300   5.276   1.445   0.581  0.2813  0.1615  0.3768
10569SOL    HW132301   5.281   1.350   0.573  1.1132  0.4250 -2.7404
10569SOL    HW232302   5.351   1.478   0.531 -2.3090  2.5725 -2.0557
10570SOL     OW32303   2.001   0.150   1.042  0.1611  0.6620  0.2760
10570SOL    HW132304   2.017   0.060   1.072  0.6043  0.4300 -0.6358
10570SOL    HW232305   2.026   0.205   1.116 -0.3165  0.0178  0.9155
10571SOL     OW32306   6.626   4.890   0.394 -0.0327 -0.0434  0.0893
10571SOL    HW132307   6.582   4.861   0.314  0.7403  0.6602 -0.6003
10571SOL    HW232308   6.682   4.816   0.418  0.9453  0.3437 -0.9298
10572SOL     OW32309   1.273   4.116   1.340  0.1220 -0.6169 -0.6504
10572SOL    HW132310   1.359   4.159   1.347 -0.6738  0.7095  1.5794
10572SOL    HW232311   1.212   4.188   1.325 -0.6657 -1.5148 -1.7499
10573SOL     OW32312   2.964   6.669   5.006  0.4120  0.3921 -0.1146
10573SOL    HW132313   3.019   6.684   5.083  2.7897 -0.5823 -1.5966
10573SOL    HW232314   2.902   6.601   5.033  2.6394 -1.5214  0.2806
10574SOL     OW32315   0.170   0.951   0.906 -0.3817 -0.0003 -0.9301
10574SOL    HW132316   0.150   1.041   0.933 -1.5945  0.3658 -2.9265
10574SOL    HW232317   0.240   0.923   0.965  1.2301  2.8733 -1.3776
10575SOL     OW32318   6.795   2.627   1.471 -0.3703 -0.5529 -0.4490
10575SOL    HW132319   6.857   2.616   1.398  0.0015  0.0633 -0.2282
10575SOL    HW232320   6.848   2.613   1.549 -0.4877  0.0632 -0.2564
10576SOL     OW32321   5.449   0.465   3.101  0.2316  0.2011  0.0002
10576SOL    HW132322   5.413   0.385   3.140 -0.3642  1.4865  2.2092
10576SOL    HW232323   5.373   0.524   3.095  0.4629  0.2728 -2.5326
10577SOL     OW32324   4.119   2.761   3.253  0.3478  0.2879  0.0523
10577SOL    HW132325   4.165   2.844   3.264  0.6673  0.2271 -0.8299
10577SOL    HW232326   4.186   2.694   3.266  0.9480  0.2139 -3.0213
10578SOL     OW32327   5.552   3.795   3.178  0.6504 -0.3636 -0.3854
10578SOL    HW132328   5.526   3.703   3.169  0.5697 -0.2089 -1.9052
10578SOL    HW232329   5.624   3.793   3.241  1.0043 -1.5443 -0.8061
10579SOL     OW32330   2.957   1.425   2.536  0.3537 -0.6607  0.0315
10579SOL    HW132331   2.862   1.419   2.549  0.5407 -0.3218  1.7897
10579SOL    HW232332   2.988   1.335   2.544  0.2865 -0.6452  0.4829
10580SOL     OW32333   5.952   1.917   2.596  0.0137 -0.4250  0.3940
10580SOL    HW132334   5.948   1.905   2.691  0.7539 -1.2845  0.3158
10580SOL    HW232335   6.040   1.888   2.572 -0.7398 -1.7385 -0.7800
10581SOL     OW32336   0.318   5.896   1.414  0.2582 -0.0250  0.1367
10581SOL    HW132337   0.307   5.873   1.506  0.3825 -0.8541 -0.0487
10581SOL    HW232338   0.355   5.984   1.415 -1.3981  0.6747  0.8472
10582SOL     OW32339   1.089   0.353   2.160  0.1665  0.4974 -0.4781
10582SOL    HW132340   1.153   0.284   2.142  0.4948  0.6796 -0.0385
10582SOL    HW232341   1.138   0.435   2.147 -0.1052  0.6430 -0.5915
10583SOL     OW32342   2.447   4.457   2.764 -0.0455 -0.0289  0.1895
10583SOL    HW132343   2.351   4.460   2.771  0.0362  0.0961  1.3264
10583SOL    HW232344   2.465   4.477   2.672 -1.0887  0.4368  0.0815
10584SOL     OW32345   0.517   6.557   2.721 -0.4830  0.1271  0.3849
10584SOL    HW132346   0.563   6.522   2.644 -0.3063  1.4271 -0.1198
10584SOL    HW232347   0.587   6.578   2.783 -0.6453 -1.2214  1.0456
10585SOL     OW32348   5.333   3.264   4.577  0.1026  0.4290 -0.3580
10585SOL    HW132349   5.363   3.349   4.543  0.2764  1.3842  2.0917
10585SOL    HW232350   5.363   3.263   4.668 -0.4472 -2.0114 -0.1849
10586SOL     OW32351   1.234   2.155   5.922  0.7761  0.3885  0.0865
10586SOL    HW132352   1.190   2.127   5.842 -0.9323  0.0593  1.1060
10586SOL    HW232353   1.312   2.099   5.927  0.9464  0.4751 -1.3715
10587SOL     OW32354   0.820   1.445   5.443 -0.1785  0.1172 -0.7034
10587SOL    HW132355   0.831   1.414   5.353  0.9329 -0.2625 -0.4554
10587SOL    HW232356   0.870   1.383   5.495 -1.0427  0.1816  0.2097
10588SOL     OW32357   4.546   6.252   5.351  0.2563 -0.1240 -0.0161
10588SOL    HW132358   4.590   6.311   5.290 -0.0107  0.7261  0.6050
10588SOL    HW232359   4.453   6.273   5.342  0.2273  0.1302  0.8057
10589SOL     OW32360   0.010   4.117   1.584  0.1109  0.0480 -0.4268
10589SOL    HW132361   0.049   4.204   1.582  0.2050  0.0109 -0.1665
10589SOL    HW232362   0.076   4.061   1.624  0.2520 -0.2466 -1.0679
10590SOL     OW32363   1.796   6.271   5.437 -0.9053  0.1083  0.2048
10590SOL    HW132364   1.749   6.299   5.515  0.3644 -0.6586  1.2800
10590SOL    HW232365   1.731   6.272   5.367 -1.9359  1.3102  1.1590
10591SOL     OW32366   4.413   2.799   1.625 -0.0645 -0.1268  0.6030
10591SOL    HW132367   4.475   2.732   1.653  0.2505 -0.5075 -0.9835
10591SOL    HW232368   4.424   2.870   1.689 -0.0777 -1.3800  2.0218
10592SOL     OW32369   5.056   2.585   2.414 -0.0108 -0.0321 -0.2211
10592SOL    HW132370   5.003   2.554   2.488  1.1286 -0.3675  0.4722
10592SOL    HW232371   5.011   2.551   2.337  0.4511 -2.2667  0.4537
10593SOL     OW32372   5.990   4.886   2.815 -0.4460 -0.1881 -0.3320
10593SOL    HW132373   5.940   4.960   2.779 -0.3535 -0.5346 -1.1798
10593SOL    HW232374   5.926   4.837   2.867 -0.2271  1.1747  1.3036
10594SOL     OW32375   3.281   5.038   6.206 -0.0588  0.0456 -0.6396
10594SOL    HW132376   3.345   5.004   6.269 -0.1626 -0.2678 -0.6997
10594SOL    HW232377   3.252   4.960   6.158 -0.9516  0.0891 -0.1850
10595SOL     OW32378   1.380   5.892   3.852 -0.0760 -0.0777 -0.3570
10595SOL    HW132379   1.350   5.949   3.923  1.5100 -1.3135  1.3620
10595SOL    HW232380   1.416   5.953   3.787 -1.8339  1.0889 -0.2749
10596SOL     OW32381   1.922   4.414   4.403 -0.8408 -0.1456  0.0133
10596SOL    HW132382   1.945   4.458   4.321 -1.6162 -0.5337 -0.4129
10596SOL    HW232383   1.838   4.451   4.428 -0.8721 -0.4314  0.3463
10597SOL     OW32384   5.934   3.849   4.378  0.0528  0.1192  0.2310
10597SOL    HW132385   5.892   3.834   4.462 -0.5669 -1.5004 -0.3540
10597SOL    HW232386   6.028   3.842   4.396 -0.1227 -1.7107  0.5255
10598SOL     OW32387   1.263   0.284   5.026 -0.2582  0.2820 -0.3397
10598SOL    HW132388   1.319   0.360   5.040 -1.2066  1.0849 -0.8793
10598SOL    HW232389   1.174   0.317   5.038 -0.7931 -0.3112 -2.4706
10599SOL     OW32390   5.467   4.326   1.053  0.0960 -0.1815 -0.3668
10599SOL    HW132391   5.535   4.391   1.070 -1.2557  1.3150 -0.5286
10599SOL    HW232392   5.442   4.294   1.139 -0.3058  0.6431 -0.1750
10600SOL     OW32393   7.060   6.548   4.929 -0.2474  0.5240  0.1538
10600SOL    HW132394   7.006   6.470   4.945  0.3368  0.3444  1.2787
10600SOL    HW232395   7.138   6.513   4.885  0.1472  0.4411  0.9265
10601SOL     OW32396   3.507   0.264   4.722  0.3721 -0.4673 -0.4564
10601SOL    HW132397   3.594   0.298   4.701 -0.0720  0.6430 -0.5071
10601SOL    HW232398   3.455   0.281   4.643  0.2099 -1.4862 -0.5760
10602SOL     OW32399   5.355   2.578   0.704 -0.6717  0.6151 -0.0284
10602SOL    HW132400   5.377   2.645   0.769  0.1939  0.0902  0.2199
10602SOL    HW232401   5.267   2.549   0.729 -0.3391  0.3992  0.9230
10603SOL     OW32402   5.650   3.935   0.612 -0.0161 -0.1438  0.0940
10603SOL    HW132403   5.676   3.857   0.661 -1.1669 -0.5239  0.1105
10603SOL    HW232404   5.655   3.908   0.520  3.3292  0.9329 -0.0959
10604SOL     OW32405   3.228   7.245   1.794 -0.3599  0.3203  0.3320
10604SOL    HW132406   3.162   7.247   1.725  0.8507 -1.1239 -0.9137
10604SOL    HW232407   3.289   7.316   1.771  0.8755 -1.1310 -0.9717
10605SOL     OW32408   6.043   5.824   1.856  0.3948  0.1590  0.1407
10605SOL    HW132409   6.012   5.800   1.768  0.2535 -1.1698  0.5443
10605SOL    HW232410   6.129   5.864   1.841 -0.5584  1.9313 -0.7960
10606SOL     OW32411   3.243   2.559   3.721  0.3052  0.8276  0.1283
10606SOL    HW132412   3.216   2.640   3.679 -1.3878 -0.1934 -0.8241
10606SOL    HW232413   3.212   2.567   3.811  1.9577  2.0694  0.6220
10607SOL     OW32414   1.683   1.864   2.750 -0.3662  0.3105  0.0832
10607SOL    HW132415   1.695   1.878   2.656 -1.3931  2.4437  0.2421
10607SOL    HW232416   1.766   1.891   2.790  0.4196 -1.5109 -0.2607
10608SOL     OW32417   6.258   2.553   7.038 -0.5196  0.0767  0.0700
10608SOL    HW132418   6.315   2.492   7.086 -0.4671  0.8058  0.9603
10608SOL    HW232419   6.317   2.602   6.981 -0.3396  0.4069  0.5403
10609SOL     OW32420   1.610   0.908   4.816  0.2246  0.7397 -0.2042
10609SOL    HW132421   1.560   0.878   4.740 -1.4775  2.4716  0.1981
10609SOL    HW232422   1.561   0.874   4.891  1.4363 -0.2573  0.1378
10610SOL     OW32423   2.808   6.499   3.680 -0.0307 -0.5072  0.2688
10610SOL    HW132424   2.791   6.588   3.709  0.8910 -0.2305 -0.0227
10610SOL    HW232425   2.754   6.488   3.601  0.8030  0.2218 -0.4176
10611SOL     OW32426   6.686   3.233   6.098 -0.2696 -0.4053 -0.0147
10611SOL    HW132427   6.663   3.285   6.021 -1.1369  0.0466  0.5403
10611SOL    HW232428   6.699   3.144   6.064  1.9118  0.2854 -1.0769
10612SOL     OW32429   6.763   4.666   1.674 -0.0426  0.2201  0.0030
10612SOL    HW132430   6.854   4.640   1.692 -0.1982  0.4361  1.1070
10612SOL    HW232431   6.749   4.744   1.726 -0.9148  0.1094 -0.0563
10613SOL     OW32432   0.559   6.352   3.810  0.1287 -0.5908 -0.1533
10613SOL    HW132433   0.580   6.427   3.867 -1.4280  0.1052 -0.4682
10613SOL    HW232434   0.553   6.390   3.722  1.6771 -1.5165 -0.6718
10614SOL     OW32435   6.614   3.855   1.628  0.2433  0.2479 -0.7777
10614SOL    HW132436   6.554   3.787   1.596  1.0048 -1.3438  1.1003
10614SOL    HW232437   6.566   3.937   1.614 -1.5336 -0.8262 -1.1878
10615SOL     OW32438   2.031   3.372   3.716  0.1708  0.4029 -0.6385
10615SOL    HW132439   1.997   3.383   3.804  1.7724  0.0374  0.0524
10615SOL    HW232440   1.960   3.329   3.668 -0.2638 -0.5504  0.8124
10616SOL     OW32441   2.227   0.243   3.481 -0.1433  0.8172 -0.8300
10616SOL    HW132442   2.164   0.250   3.409  0.3748 -0.4620 -1.4241
10616SOL    HW232443   2.232   0.150   3.499 -0.6857  1.1683  1.2726
10617SOL     OW32444   6.904   3.361   5.434 -0.4941  0.4355 -0.5216
10617SOL    HW132445   6.861   3.390   5.353 -0.8611 -1.9211 -1.1954
10617SOL    HW232446   6.907   3.266   5.427  1.1225  0.3170  1.4295
10618SOL     OW32447   2.692   2.138   0.572 -0.7153 -0.2069  0.7042
10618SOL    HW132448   2.743   2.059   0.590  0.4194  1.0576  3.2097
10618SOL    HW232449   2.728   2.204   0.631 -0.6395  2.6265 -2.3844
10619SOL     OW32450   2.516   2.013   2.013  0.1851 -0.2610 -0.5759
10619SOL    HW132451   2.506   2.040   2.105  1.0126  0.5303 -0.7079
10619SOL    HW232452   2.477   2.085   1.963  1.0247 -0.0119 -0.8817
10620SOL     OW32453   6.981   0.081   7.221 -0.2273  0.1559  0.5113
10620SOL    HW132454   6.970   0.151   7.286 -0.3718 -0.1613  0.8323
10620SOL    HW232455   7.005   0.126   7.140  2.8556  0.3837  1.4795
10621SOL     OW32456   4.209   6.628   1.823  0.0803  0.5018  0.3597
10621SOL    HW132457   4.210   6.532   1.826  0.8485  0.5309  1.7243
10621SOL    HW232458   4.251   6.654   1.905 -0.1015  2.0089 -0.0202
10622SOL     OW32459   5.278   0.767   2.503 -0.1235 -0.3029  0.6128
10622SOL    HW132460   5.286   0.731   2.415  0.2473  0.6968  0.2327
10622SOL    HW232461   5.186   0.792   2.510 -0.0002  0.2468  0.2651
10623SOL     OW32462   6.700   5.224   4.932  0.1646 -0.1201  0.2853
10623SOL    HW132463   6.681   5.297   4.991  2.6027  0.8471 -0.0690
10623SOL    HW232464   6.674   5.147   4.981 -0.0013  0.8183  1.7124
10624SOL     OW32465   1.597   3.957   6.012 -0.3189  0.2844 -0.6564
10624SOL    HW132466   1.574   3.999   5.930 -0.9413  1.0641 -0.0960
10624SOL    HW232467   1.513   3.929   6.050  0.0495 -1.1045 -0.8253
10625SOL     OW32468   3.194   5.314   1.701 -0.5155 -0.4560 -0.5800
10625SOL    HW132469   3.166   5.402   1.677  0.1194 -0.1431 -0.1705
10625SOL    HW232470   3.272   5.327   1.754 -0.0602 -1.2987 -1.0402
10626SOL     OW32471   5.188   6.227   6.105 -0.6299 -0.0020  0.2730
10626SOL    HW132472   5.268   6.203   6.152 -1.0780  1.3337  1.7562
10626SOL    HW232473   5.156   6.305   6.150 -1.8606  0.4743 -1.3752
10627SOL     OW32474   1.812   1.557   1.727 -0.2389 -0.7134  0.2559
10627SOL    HW132475   1.794   1.503   1.803 -0.1858 -0.5945  0.3524
10627SOL    HW232476   1.726   1.570   1.685 -0.2500 -0.8821  0.2244
10628SOL     OW32477   1.126   4.087   7.076  0.1449  0.1410 -0.5271
10628SOL    HW132478   1.077   4.134   7.009  2.4562 -0.1721 -2.5083
10628SOL    HW232479   1.203   4.052   7.030  1.4436 -0.6649  2.1303
10629SOL     OW32480   0.490   3.524   5.152 -0.9662  0.1413 -0.7551
10629SOL    HW132481   0.523   3.588   5.090  0.5956  0.2153  0.1278
10629SOL    HW232482   0.500   3.566   5.238  0.2699 -1.3334 -0.1521
10630SOL     OW32483   1.485   0.685   2.962 -0.3615 -0.1079  0.2136
10630SOL    HW132484   1.552   0.718   2.903  0.7133 -0.7681  1.0449
10630SOL    HW232485   1.412   0.746   2.952  0.8555  1.3859  0.2843
10631SOL     OW32486   4.152   5.032   1.911 -0.0659  0.2481  0.4204
10631SOL    HW132487   4.214   5.105   1.919  0.7587 -0.4594  0.5675
10631SOL    HW232488   4.110   5.046   1.826 -1.0670  1.7669  1.1458
10632SOL     OW32489   2.852   3.341   5.144 -0.2798  0.3873 -0.0819
10632SOL    HW132490   2.850   3.428   5.106  0.1389  0.3414 -0.2065
10632SOL    HW232491   2.789   3.345   5.216 -1.7273  0.2300 -1.3023
10633SOL     OW32492   6.038   5.464   2.821 -0.1050 -0.2164 -0.1078
10633SOL    HW132493   6.015   5.545   2.867 -1.4674 -1.1231  0.8576
10633SOL    HW232494   5.966   5.404   2.841  0.0385 -1.1409 -2.1759
10634SOL     OW32495   1.425   3.408   0.385 -0.0457 -0.5489  0.0275
10634SOL    HW132496   1.352   3.436   0.440 -0.8533 -0.1201 -1.2711
10634SOL    HW232497   1.476   3.487   0.369 -0.5528 -0.4185 -0.9588
10635SOL     OW32498   5.690   0.717   5.956 -0.0301 -0.8344 -0.8494
10635SOL    HW132499   5.691   0.748   5.865 -1.5516  0.9358 -0.2954
10635SOL    HW232500   5.634   0.639   5.953 -1.3461  0.0957 -1.1977
10636SOL     OW32501   0.234   1.304   7.160 -0.1057 -0.0204  0.1976
10636SOL    HW132502   0.256   1.326   7.070  3.4485  1.0814  1.2613
10636SOL    HW232503   0.188   1.382   7.193 -2.3302 -0.8210 -0.9013
10637SOL     OW32504   7.180   3.603   4.014 -0.3131 -0.2429  0.6679
10637SOL    HW132505   7.094   3.640   4.032 -0.7058 -0.2777 -1.0188
10637SOL    HW232506   7.241   3.675   4.027 -0.8998  0.5630 -0.9203
10638SOL     OW32507   7.212   4.743   2.335  0.0911  0.0203  0.1223
10638SOL    HW132508   7.308   4.742   2.336  0.0995 -0.1802 -0.4658
10638SOL    HW232509   7.190   4.718   2.245 -0.5071  0.4617  0.1500
10639SOL     OW32510   1.105   1.337   1.183 -0.2873 -0.0250  0.1097
10639SOL    HW132511   1.186   1.350   1.233 -0.8446  0.9794  0.7509
10639SOL    HW232512   1.132   1.283   1.108  1.4132  2.1744 -0.8992
10640SOL     OW32513   6.068   2.659   6.475 -0.1243 -0.3851  0.1113
10640SOL    HW132514   6.075   2.686   6.566 -0.3748 -0.0579  0.0344
10640SOL    HW232515   6.012   2.581   6.477 -1.0080  0.2449  0.1263
10641SOL     OW32516   6.118   3.446   5.144 -0.0764 -0.1104 -0.0891
10641SOL    HW132517   6.094   3.357   5.169  0.7681 -0.0857  0.8368
10641SOL    HW232518   6.131   3.492   5.227  0.7453  0.5306 -0.5580
10642SOL     OW32519   4.074   6.320   2.375 -0.0396 -0.2309  0.7301
10642SOL    HW132520   4.129   6.360   2.308 -0.7917  0.0820  0.2840
10642SOL    HW232521   4.069   6.385   2.445 -0.0199 -0.1639  0.6698
10643SOL     OW32522   5.988   0.538   6.115  0.0546 -0.6681  0.0461
10643SOL    HW132523   6.046   0.499   6.180  1.3882 -0.4424 -1.0050
10643SOL    HW232524   5.960   0.465   6.060  1.0929 -0.4337 -0.7960
10644SOL     OW32525   5.789   0.241   4.788  0.2899 -0.1172  0.1631
10644SOL    HW132526   5.780   0.146   4.786  0.3930 -0.1495  0.9789
10644SOL    HW232527   5.841   0.262   4.710 -2.6397 -0.3801 -1.9595
10645SOL     OW32528   3.700   5.596   4.637 -0.2383  0.8892 -0.6759
10645SOL    HW132529   3.712   5.526   4.573 -0.0784 -0.3474  0.6783
10645SOL    HW232530   3.733   5.675   4.593  0.6914 -0.0953 -1.7782
10646SOL     OW32531   1.551   3.280   3.272 -0.3622  0.7696  0.1764
10646SOL    HW132532   1.514   3.365   3.248 -1.7479  0.4387  1.0792
10646SOL    HW232533   1.617   3.301   3.339 -0.4661  1.1543  0.1631
10647SOL     OW32534   0.277   5.652   2.215  0.2165 -0.2145 -0.1576
10647SOL    HW132535   0.264   5.720   2.281 -0.9961 -1.3561  0.8144
10647SOL    HW232536   0.230   5.576   2.250 -0.5301 -0.8145 -2.3873
10648SOL     OW32537   1.975   5.736   1.934 -0.1160 -0.6266  0.2043
10648SOL    HW132538   1.949   5.822   1.902  0.2587 -0.2871  0.7952
10648SOL    HW232539   2.000   5.688   1.855 -3.2409 -1.2241 -0.4619
10649SOL     OW32540   2.921   0.537   0.879  0.2710 -0.0422  0.1930
10649SOL    HW132541   2.884   0.625   0.873  1.3945  0.5293  1.1564
10649SOL    HW232542   2.871   0.494   0.948 -0.9733 -0.5296 -1.0014
10650SOL     OW32543   5.686   3.818   4.566 -0.3597 -0.9717 -0.4339
10650SOL    HW132544   5.628   3.870   4.510 -0.8130 -0.1526  0.7573
10650SOL    HW232545   5.628   3.756   4.610 -0.1043 -1.1806 -0.3906
10651SOL     OW32546   2.450   7.107   4.474  0.4286  0.8109  0.0219
10651SOL    HW132547   2.524   7.055   4.506 -0.0824 -0.1911 -0.3985
10651SOL    HW232548   2.477   7.134   4.386  0.6597  1.1730  0.2068
10652SOL     OW32549   5.730   6.660   4.041 -0.0245  0.2033 -0.4789
10652SOL    HW132550   5.648   6.679   4.087 -1.1290 -0.9278 -1.9181
10652SOL    HW232551   5.705   6.657   3.948  1.3844 -1.3943 -0.8318
10653SOL     OW32552   3.826   3.626   5.806  0.4204  0.7517  0.4130
10653SOL    HW132553   3.906   3.590   5.768  1.4366  2.9497  0.3968
10653SOL    HW232554   3.848   3.716   5.829 -1.3712  0.6971  2.5451
10654SOL     OW32555   5.252   1.748   0.148 -0.1507  0.5408  0.0151
10654SOL    HW132556   5.232   1.691   0.074 -0.7795  1.3483 -0.4342
10654SOL    HW232557   5.204   1.710   0.222  0.7560 -0.4644  0.0950
10655SOL     OW32558   3.731   3.860   3.168  0.1084 -0.2446 -0.2401
10655SOL    HW132559   3.639   3.885   3.156 -0.3889 -2.0746 -0.4249
10655SOL    HW232560   3.768   3.931   3.221 -2.2530 -1.0831  2.7086
10656SOL     OW32561   7.157   4.330   7.172 -0.0232 -0.3891  0.2420
10656SOL    HW132562   7.246   4.297   7.189  0.7511  1.2787 -0.4148
10656SOL    HW232563   7.145   4.400   7.236  0.7246  2.0947 -2.2270
10657SOL     OW32564   5.899   0.756   6.267 -0.0118 -0.0162  0.3906
10657SOL    HW132565   5.945   0.700   6.204 -1.4495 -2.3624  1.3693
10657SOL    HW232566   5.956   0.758   6.344 -0.8578 -1.7792  1.0839
10658SOL     OW32567   0.562   2.036   4.586 -0.1498  0.3187 -0.7488
10658SOL    HW132568   0.473   2.030   4.619 -0.4435  1.7161 -1.2547
10658SOL    HW232569   0.555   2.016   4.493  0.3858 -1.6650 -0.3759
10659SOL     OW32570   2.322   3.514   1.749 -0.4786 -0.1468  0.1775
10659SOL    HW132571   2.406   3.468   1.758 -0.1775  0.1210 -1.1377
10659SOL    HW232572   2.258   3.454   1.787  0.2099 -0.6967  0.4920
10660SOL     OW32573   3.027   0.561   0.457 -0.3163  0.0948  0.4430
10660SOL    HW132574   3.076   0.586   0.379  0.0055  0.9026  0.9013
10660SOL    HW232575   3.060   0.474   0.478 -1.3664 -0.6970 -1.0941
10661SOL     OW32576   2.408   4.266   4.989  0.0565 -0.0804 -0.6333
10661SOL    HW132577   2.339   4.219   5.035  1.6759 -0.3372  1.6171
10661SOL    HW232578   2.375   4.355   4.979 -0.0712  0.1406  1.5955
10662SOL     OW32579   0.821   4.052   4.140 -0.9211  0.1115  0.1363
10662SOL    HW132580   0.789   3.994   4.071 -3.7761 -1.5007  2.6804
10662SOL    HW232581   0.900   4.010   4.172 -1.8320 -1.3261  0.5535
10663SOL     OW32582   3.487   0.213   3.558 -0.1581  0.3553  0.1648
10663SOL    HW132583   3.433   0.220   3.636 -0.9769 -0.3778 -0.3350
10663SOL    HW232584   3.438   0.156   3.499  1.3867 -0.7525 -0.0953
10664SOL     OW32585   1.956   4.547   0.133 -0.1301 -0.0003 -0.2433
10664SOL    HW132586   1.978   4.595   0.213  1.8546 -0.2261 -0.6191
10664SOL    HW232587   1.889   4.600   0.091  0.6257  1.4439  0.3274
10665SOL     OW32588   1.458   3.588   3.247 -0.1808  0.5113  0.0220
10665SOL    HW132589   1.456   3.566   3.340  0.4603 -0.1239 -0.1070
10665SOL    HW232590   1.507   3.671   3.244  0.4919  0.1246  0.1796
10666SOL     OW32591   1.708   0.934   3.980  0.2898 -0.0472 -0.0352
10666SOL    HW132592   1.773   1.000   3.955  0.5113 -0.4133 -0.4417
10666SOL    HW232593   1.625   0.980   3.977  0.3074 -0.0975 -1.5389
10667SOL     OW32594   5.587   7.125   0.031 -0.1892  0.2773 -0.3832
10667SOL    HW132595   5.546   7.065  -0.030  0.0106 -1.3369  1.0286
10667SOL    HW232596   5.625   7.069   0.099  0.5588  1.9544  0.6381
10668SOL     OW32597   4.762   6.812   2.685  0.1132  0.1959 -0.6640
10668SOL    HW132598   4.726   6.804   2.773  0.1610  0.5661 -0.6094
10668SOL    HW232599   4.727   6.737   2.638  0.0234  0.0410 -0.3502
10669SOL     OW32600   0.564   2.622   0.733  0.7796  0.4354  0.5119
10669SOL    HW132601   0.586   2.663   0.649  1.4394  1.6931  1.2721
10669SOL    HW232602   0.488   2.671   0.764  1.1867  0.6848  1.1328
10670SOL     OW32603   4.963   2.283   1.994  1.2900  0.2832 -0.6322
10670SOL    HW132604   4.937   2.350   1.930  1.1678 -1.0066 -1.9493
10670SOL    HW232605   5.055   2.266   1.974  0.9628 -0.8948 -1.1892
10671SOL     OW32606   5.825   0.964   6.837 -0.1798  0.0537 -0.0081
10671SOL    HW132607   5.794   1.039   6.888  2.0897  0.6480  0.5720
10671SOL    HW232608   5.799   0.888   6.888  0.9683  0.6088  1.4627
10672SOL     OW32609   2.298   7.132   5.018  0.1818  0.2391  0.1880
10672SOL    HW132610   2.209   7.110   4.991  0.4014  0.8107 -1.0323
10672SOL    HW232611   2.320   7.210   4.967  0.9766  0.7656  1.3070
10673SOL     OW32612   0.714   1.522   0.541 -0.7659  0.5249  0.0979
10673SOL    HW132613   0.776   1.455   0.570  1.5535  2.7881  0.5957
10673SOL    HW232614   0.725   1.524   0.446  0.2206  1.1521  0.2135
10674SOL     OW32615   2.908   4.084   2.508 -0.3024 -0.1995  0.1269
10674SOL    HW132616   2.955   4.149   2.560  2.9215 -1.1758 -1.3996
10674SOL    HW232617   2.905   4.006   2.563  0.5720 -0.3462 -0.0128
10675SOL     OW32618   6.947   7.181   5.589  0.4382 -0.3172  0.1806
10675SOL    HW132619   6.863   7.201   5.630 -0.0507 -1.0384 -0.4458
10675SOL    HW232620   7.009   7.174   5.662 -0.0457  0.2290  0.6446
10676SOL     OW32621   5.079   5.946   2.073  0.1997 -0.1308  0.1151
10676SOL    HW132622   5.161   5.903   2.047  0.0792 -0.4830  0.3112
10676SOL    HW232623   5.031   5.955   1.991 -0.0971 -1.0703  0.1742
10677SOL     OW32624   2.812   2.154   5.118  0.1017  0.1137  0.2044
10677SOL    HW132625   2.788   2.181   5.029  1.4492  0.7719  0.0357
10677SOL    HW232626   2.861   2.229   5.153  0.7227 -0.6742  1.0349
10678SOL     OW32627   5.099   2.600   3.063 -0.1978  0.5915  0.1774
10678SOL    HW132628   5.185   2.614   3.022  0.3549 -0.2324  1.0307
10678SOL    HW232629   5.115   2.531   3.127 -1.2205  1.3477  1.2559
10679SOL     OW32630   1.512   5.721   1.725 -0.1186  0.1419  0.5704
10679SOL    HW132631   1.583   5.717   1.661  2.0796  2.6286  2.7415
10679SOL    HW232632   1.432   5.714   1.672  1.6599  0.2172 -2.2452
10680SOL     OW32633   6.893   4.372   1.236 -0.5226  0.3699  0.1739
10680SOL    HW132634   6.920   4.432   1.167  0.0648  0.0763  0.1433
10680SOL    HW232635   6.927   4.287   1.208  1.5497  0.6198  1.8506
10681SOL     OW32636   4.122   2.726   4.540 -0.1634  0.2165 -0.1257
10681SOL    HW132637   4.182   2.732   4.466  0.4199  1.4311  0.4273
10681SOL    HW232638   4.112   2.817   4.570 -0.6451 -0.2259  1.0758
10682SOL     OW32639   3.453   2.359   5.896  0.2475  0.0083 -0.0374
10682SOL    HW132640   3.516   2.395   5.834  0.1175 -0.8787 -0.6812
10682SOL    HW232641   3.380   2.328   5.843 -0.5406  0.6142  0.6723
10683SOL     OW32642   4.634   4.554   4.734  0.1008 -0.2443 -0.1786
10683SOL    HW132643   4.687   4.589   4.806  0.3959 -1.4296  0.1843
10683SOL    HW232644   4.675   4.471   4.711 -0.9203 -0.6309 -0.6675
10684SOL     OW32645   2.754   5.477   0.671 -0.1330  0.3640 -0.1961
10684SOL    HW132646   2.688   5.534   0.632 -0.4576  3.2851  4.2909
10684SOL    HW232647   2.837   5.507   0.632 -0.8214  0.4362 -1.6515
10685SOL     OW32648   5.732   3.760   2.948  0.0167  0.4483 -0.8396
10685SOL    HW132649   5.793   3.690   2.973 -0.7130  0.1366  0.0909
10685SOL    HW232650   5.659   3.751   3.009 -0.2891  1.7429 -1.0028
10686SOL     OW32651   1.706   1.650   6.736  0.2135 -0.0678 -0.4659
10686SOL    HW132652   1.640   1.582   6.736  1.2969 -1.1344  0.6181
10686SOL    HW232653   1.774   1.618   6.677  0.3809  0.4365 -0.5540
10687SOL     OW32654   3.438   0.395   6.348  0.1892  0.9221  0.4342
10687SOL    HW132655   3.398   0.364   6.267  0.0878 -0.4372  0.9807
10687SOL    HW232656   3.364   0.421   6.404  0.0910 -0.5588  1.0319
10688SOL     OW32657   4.250   5.730   2.225  0.2530  0.2649 -0.3434
10688SOL    HW132658   4.313   5.703   2.159 -0.0726  2.2242 -1.4763
10688SOL    HW232659   4.282   5.815   2.256 -1.2434  0.7954 -0.1920
10689SOL     OW32660   0.413   5.770   4.638  0.7373 -0.4378  0.4982
10689SOL    HW132661   0.372   5.770   4.724  0.3650 -1.2446  0.3284
10689SOL    HW232662   0.494   5.720   4.650  1.8753  1.4768  0.9209
10690SOL     OW32663   6.601   6.626   0.470  0.3508 -0.4288  0.0414
10690SOL    HW132664   6.678   6.653   0.520  1.3421 -2.0801 -0.5482
10690SOL    HW232665   6.577   6.541   0.507 -1.6400  0.3547  0.6808
10691SOL     OW32666   4.704   0.081   0.467  0.2604  0.5770 -0.4793
10691SOL    HW132667   4.628   0.130   0.437  0.3931  0.6110 -0.7600
10691SOL    HW232668   4.678  -0.011   0.457  0.1286  0.5870 -0.2465
10692SOL     OW32669   4.797   0.538   1.011  0.3059  0.1985  0.2606
10692SOL    HW132670   4.707   0.535   1.042  0.0524 -1.7251 -0.6067
10692SOL    HW232671   4.804   0.621   0.964 -1.6082 -0.5482 -1.4031
10693SOL     OW32672   4.821   7.037   4.769 -0.4303 -0.1785  0.3588
10693SOL    HW132673   4.817   7.000   4.681  1.2719 -0.6853  0.4641
10693SOL    HW232674   4.869   7.119   4.759  0.2263 -0.4890  0.8723
10694SOL     OW32675   0.115   2.990   4.515 -0.5526  0.1716 -0.3682
10694SOL    HW132676   0.195   2.969   4.468 -0.8435  0.5124 -1.0325
10694SOL    HW232677   0.073   3.057   4.461 -0.7227  0.8279  0.5657
10695SOL     OW32678   0.980   3.531   3.305 -0.0492 -0.3935 -0.2298
10695SOL    HW132679   0.945   3.579   3.230  1.0064  1.2546  0.3094
10695SOL    HW232680   1.051   3.478   3.268  0.9437  0.9555 -0.3058
10696SOL     OW32681   6.725   2.823   3.064 -0.0795  0.1078  0.3445
10696SOL    HW132682   6.748   2.885   2.995 -2.9162 -0.7945 -1.5062
10696SOL    HW232683   6.649   2.863   3.107  0.4875 -0.2612  1.7169
10697SOL     OW32684   0.113   3.936   1.744  0.5085  0.0959  0.0483
10697SOL    HW132685   0.038   3.922   1.801  0.5177  1.2078  0.3387
10697SOL    HW232686   0.145   3.847   1.724 -0.0546 -0.3291  1.0126
10698SOL     OW32687   1.597   6.710   6.534 -0.0454  0.1438  0.3073
10698SOL    HW132688   1.544   6.787   6.513 -0.2326  0.0024  0.2604
10698SOL    HW232689   1.536   6.637   6.530 -0.0518  0.1002  1.2136
10699SOL     OW32690   5.876   0.410   2.645  0.2915  0.4126 -0.1912
10699SOL    HW132691   5.852   0.341   2.583 -2.0297  0.7415  0.2888
10699SOL    HW232692   5.922   0.364   2.716 -0.7224 -0.5584 -0.1515
10700SOL     OW32693   4.839   0.078   6.615  0.3529  0.6399 -0.3119
10700SOL    HW132694   4.827   0.130   6.694  2.0414  0.8128 -0.1527
10700SOL    HW232695   4.926   0.038   6.625 -1.0959 -2.6960 -0.1500
10701SOL     OW32696   5.433   5.398   2.498 -0.2576 -0.4049 -0.3301
10701SOL    HW132697   5.524   5.393   2.526  0.2668 -3.0935 -2.3459
10701SOL    HW232698   5.387   5.336   2.555 -0.5564 -0.2928 -0.4477
10702SOL     OW32699   2.576   1.181   6.199  0.0941  0.5740 -0.3761
10702SOL    HW132700   2.565   1.130   6.119 -0.6063  0.1589 -0.0264
10702SOL    HW232701   2.513   1.252   6.191 -0.3191  0.2579  0.0139
10703SOL     OW32702   5.373   6.423   2.545 -0.3510  0.0410 -0.0561
10703SOL    HW132703   5.322   6.492   2.502 -0.6594 -0.2267 -0.1269
10703SOL    HW232704   5.320   6.344   2.534  0.7046 -0.5208 -1.3425
10704SOL     OW32705   3.755   3.384   1.871 -0.4964  0.0419 -0.6788
10704SOL    HW132706   3.836   3.341   1.844  0.0298 -0.4999  1.6560
10704SOL    HW232707   3.694   3.312   1.888 -1.0755  0.4017 -1.2152
10705SOL     OW32708   4.858   6.961   7.176 -0.1881  0.1360 -0.1883
10705SOL    HW132709   4.773   6.918   7.184  0.0852 -0.2894  0.5137
10705SOL    HW232710   4.906   6.910   7.111 -0.6711  0.7175 -1.0133
10706SOL     OW32711   2.701   5.002   0.737  0.3376 -0.0969  0.7093
10706SOL    HW132712   2.758   5.030   0.666  1.0437 -2.1486  0.4336
10706SOL    HW232713   2.729   5.053   0.813  0.1251  1.5013 -0.2759
10707SOL     OW32714   2.196   6.272   6.250  0.2231 -0.4723  0.1760
10707SOL    HW132715   2.206   6.334   6.322 -1.4410 -0.0014  0.0313
10707SOL    HW232716   2.212   6.186   6.290 -2.1604 -0.3536  1.4784
10708SOL     OW32717   2.578   5.423   2.344 -0.4346  0.2662  0.0504
10708SOL    HW132718   2.656   5.479   2.339 -0.9758  1.1612  1.3425
10708SOL    HW232719   2.520   5.455   2.275  0.0338  0.0734 -0.4369
10709SOL     OW32720   0.957   0.957   0.805 -0.5534 -0.3415 -0.1575
10709SOL    HW132721   1.011   0.897   0.857 -0.1786 -0.9981 -1.3065
10709SOL    HW232722   1.008   0.973   0.726 -2.0236 -0.9297 -1.2328
10710SOL     OW32723   2.488   6.902   3.344  0.0097  0.4020 -0.1740
10710SOL    HW132724   2.472   6.809   3.324 -1.2197  0.4412  0.5863
10710SOL    HW232725   2.537   6.900   3.427 -1.5844  0.4762  0.7863
10711SOL     OW32726   4.892   0.581   0.622 -0.0113 -0.2976 -0.0080
10711SOL    HW132727   4.851   0.495   0.637 -0.3178 -0.2867 -0.7766
10711SOL    HW232728   4.976   0.560   0.581  0.5625 -0.2960  1.1394
10712SOL     OW32729   5.975   5.862   4.258  0.1619 -0.1906  0.6960
10712SOL    HW132730   6.025   5.943   4.276  1.1164 -0.9857  1.7386
10712SOL    HW232731   6.043   5.797   4.240 -0.6467 -0.5056 -1.3171
10713SOL     OW32732   3.618   6.718   5.002 -0.7334 -0.6034 -0.7353
10713SOL    HW132733   3.619   6.706   5.097 -1.6162 -0.7892 -0.7433
10713SOL    HW232734   3.671   6.645   4.968 -0.1232 -0.3297 -0.3667
10714SOL     OW32735   5.320   6.177   5.227 -0.9319 -0.3453  0.1660
10714SOL    HW132736   5.226   6.167   5.243 -1.1037  1.1896  0.1685
10714SOL    HW232737   5.330   6.267   5.197  0.6131 -0.3142  0.7154
10715SOL     OW32738   5.413   7.243   2.310  0.0809 -0.0080  0.2269
10715SOL    HW132739   5.352   7.174   2.333 -0.5336  0.5781  0.3752
10715SOL    HW232740   5.411   7.303   2.385  0.1292  0.5012 -0.1732
10716SOL     OW32741   5.312   3.232   0.455 -0.1698 -0.4487 -0.2730
10716SOL    HW132742   5.345   3.143   0.470 -0.6072 -1.2852 -3.7739
10716SOL    HW232743   5.230   3.219   0.409  0.5983  1.7879 -2.3472
10717SOL     OW32744   3.711   0.685   0.097  0.1116 -0.6735  0.7549
10717SOL    HW132745   3.657   0.758   0.066 -0.4457 -1.3863  0.0177
10717SOL    HW232746   3.797   0.701   0.057  0.2423  0.0519  1.3150
10718SOL     OW32747   3.330   2.409   0.815  0.1819 -0.6368  0.3606
10718SOL    HW132748   3.299   2.386   0.902  0.7476  0.4331  0.8625
10718SOL    HW232749   3.339   2.505   0.818 -0.4208 -0.5307 -1.0717
10719SOL     OW32750   6.325   3.660   5.255 -0.7200 -0.5441 -0.1767
10719SOL    HW132751   6.361   3.632   5.171 -0.6404 -0.0453 -0.3140
10719SOL    HW232752   6.390   3.632   5.320 -0.7256 -0.8255 -0.2903
10720SOL     OW32753   2.857   2.423   3.364 -0.3880 -0.0072  0.3874
10720SOL    HW132754   2.772   2.466   3.360 -0.2655  0.4330  2.1635
10720SOL    HW232755   2.892   2.447   3.450  0.8815 -1.3880  0.2762
10721SOL     OW32756   6.636   0.520   1.131  0.0248  0.2767 -0.2827
10721SOL    HW132757   6.727   0.546   1.115 -0.1939  1.4421  0.2990
10721SOL    HW232758   6.595   0.520   1.045  0.3705  0.5643 -0.4472
10722SOL     OW32759   3.165   4.593   2.907 -0.0257  0.2126  0.5883
10722SOL    HW132760   3.122   4.556   2.829 -0.2894  0.8908  0.4106
10722SOL    HW232761   3.160   4.688   2.894 -1.2457  0.3554  2.0772
10723SOL     OW32762   3.379   6.331   1.899  0.4902 -0.1800  0.0738
10723SOL    HW132763   3.454   6.290   1.943  1.6136  1.7610  0.0281
10723SOL    HW232764   3.325   6.364   1.971  0.3814 -0.3657  0.0771
10724SOL     OW32765   0.347   6.603   1.883  0.0220  0.0753 -0.2159
10724SOL    HW132766   0.442   6.597   1.884 -0.0279 -0.7990 -0.9477
10724SOL    HW232767   0.323   6.603   1.790 -0.7163 -0.0846 -0.0302
10725SOL     OW32768   0.510   4.160   2.908  0.1087 -0.2125 -0.2989
10725SOL    HW132769   0.490   4.204   2.826  3.2358 -0.3539 -1.1816
10725SOL    HW232770   0.501   4.066   2.888 -0.4452 -0.2098 -0.0876
10726SOL     OW32771   6.560   4.441   2.968  0.4493 -0.7009 -0.1702
10726SOL    HW132772   6.605   4.506   3.022 -0.5607 -1.2745  1.3832
10726SOL    HW232773   6.530   4.491   2.891  0.3603  0.4959  0.6237
10727SOL     OW32774   3.126   0.481   1.472  0.3899  0.1002 -0.9216
10727SOL    HW132775   3.096   0.406   1.523 -1.4608  0.1616 -1.8745
10727SOL    HW232776   3.089   0.557   1.516  0.3652  0.2880 -1.2591
10728SOL     OW32777   2.829   3.735   6.842 -0.4200 -0.2309 -0.1931
10728SOL    HW132778   2.853   3.717   6.933  0.3476  1.5226 -0.0237
10728SOL    HW232779   2.830   3.831   6.836 -0.2618 -0.3414 -2.1022
10729SOL     OW32780   3.370   0.835   5.304  0.0154 -0.5053 -0.0915
10729SOL    HW132781   3.319   0.915   5.293  0.2430 -0.4051 -0.4189
10729SOL    HW232782   3.333   0.775   5.239  0.5144 -0.3343 -0.5334
10730SOL     OW32783   1.871   3.690   0.709  0.2527  0.3679  0.6502
10730SOL    HW132784   1.951   3.642   0.729  0.4592  0.3035 -0.3129
10730SOL    HW232785   1.805   3.652   0.767  0.8893  0.3654  1.3894
10731SOL     OW32786   1.324   4.354   5.611 -0.5141 -0.0716  0.2220
10731SOL    HW132787   1.332   4.318   5.699  1.3881 -0.6856 -0.1692
10731SOL    HW232788   1.311   4.448   5.624 -0.5891 -0.2161  1.1639
10732SOL     OW32789   3.278   1.428   4.336  0.0271  0.0691  0.4645
10732SOL    HW132790   3.270   1.487   4.412  0.0540  0.9954 -0.2421
10732SOL    HW232791   3.209   1.363   4.349 -0.7648  0.9346  0.6626
10733SOL     OW32792   5.467   1.750   3.947 -0.3628  1.0723  0.1451
10733SOL    HW132793   5.503   1.688   3.882  0.9250 -2.2767  3.8197
10733SOL    HW232794   5.544   1.792   3.984 -1.1957  4.3018 -1.6507
10734SOL     OW32795   6.765   6.572   6.228  0.3107  0.2071  0.3352
10734SOL    HW132796   6.772   6.660   6.264 -0.9947  0.6620 -0.4985
10734SOL    HW232797   6.723   6.583   6.143  0.8652 -1.1413 -0.1439
10735SOL     OW32798   2.878   4.763   5.567  0.0800  0.1793 -0.2253
10735SOL    HW132799   2.908   4.845   5.528 -0.8893  0.6416 -0.0196
10735SOL    HW232800   2.797   4.742   5.520 -1.4961  1.1260  1.9682
10736SOL     OW32801   3.095   4.522   1.997  0.0210  0.5781 -0.0295
10736SOL    HW132802   3.037   4.454   1.962 -1.3443  1.8130 -0.1979
10736SOL    HW232803   3.153   4.544   1.925 -1.2026  1.3967 -0.7711
10737SOL     OW32804   4.038   5.356   2.264 -0.1910  0.1764  1.1161
10737SOL    HW132805   4.099   5.318   2.201 -0.4897 -0.4176  1.1802
10737SOL    HW232806   4.033   5.449   2.239  0.8440  0.2665  1.2040
10738SOL     OW32807   0.561   1.498   1.156  0.2326  0.0021  0.5108
10738SOL    HW132808   0.601   1.415   1.184  0.1424 -0.4899 -0.7600
10738SOL    HW232809   0.471   1.494   1.189 -0.4880 -1.4701 -1.4972
10739SOL     OW32810   0.965   7.055   3.578  0.2625 -0.5501  0.6186
10739SOL    HW132811   0.885   7.105   3.595  1.1012  0.5822  1.2862
10739SOL    HW232812   1.036   7.119   3.584  1.2788 -1.6437  0.5737
10740SOL     OW32813   1.629   2.964   2.015  0.2300  0.3072 -0.0128
10740SOL    HW132814   1.635   2.889   2.074 -1.0527 -0.7745 -1.1955
10740SOL    HW232815   1.650   3.040   2.069  0.2621 -0.7790  1.5256
10741SOL     OW32816   1.018   1.698   5.658 -0.9200 -0.0690  0.7112
10741SOL    HW132817   0.936   1.648   5.655 -0.6410 -0.4018 -1.6803
10741SOL    HW232818   1.046   1.706   5.567  1.6505  0.1695  1.4659
10742SOL     OW32819   5.201   6.897   0.402 -0.2144  0.0209 -0.1152
10742SOL    HW132820   5.286   6.852   0.408 -1.3609 -2.0387  1.4389
10742SOL    HW232821   5.170   6.876   0.314 -0.3330 -1.5592  0.2780
10743SOL     OW32822   3.211   3.009   7.185  0.2098  0.3900 -0.3674
10743SOL    HW132823   3.193   3.027   7.093  2.1638  1.4041 -0.5750
10743SOL    HW232824   3.233   2.916   7.187  1.2820  0.6058 -1.1358
10744SOL     OW32825   1.254   6.096   6.302 -0.3060  0.2971  0.1042
10744SOL    HW132826   1.325   6.040   6.270 -1.5743 -0.6040 -1.1854
10744SOL    HW232827   1.182   6.035   6.319 -1.1127  1.3320  0.4029
10745SOL     OW32828   3.816   3.005   2.085 -0.0561 -0.4976 -0.2681
10745SOL    HW132829   3.788   2.919   2.118 -0.3583 -0.5099 -0.5525
10745SOL    HW232830   3.911   3.001   2.088 -0.0404 -1.2981 -1.4151
10746SOL     OW32831   5.495   4.690   1.955  0.2206  0.2430  0.0834
10746SOL    HW132832   5.488   4.614   1.898 -0.8676  1.1377 -1.0088
10746SOL    HW232833   5.408   4.700   1.993  0.8738 -0.2049  1.7562
10747SOL     OW32834   3.686   5.406   1.126 -0.3302  0.3345  0.2499
10747SOL    HW132835   3.634   5.327   1.141 -1.2196  0.7756 -0.4963
10747SOL    HW232836   3.685   5.452   1.210 -0.5224 -0.0130  0.4410
10748SOL     OW32837   2.798   3.522   3.102 -0.6664 -0.1349 -0.0216
10748SOL    HW132838   2.758   3.597   3.146 -0.9596 -0.4272  0.2108
10748SOL    HW232839   2.728   3.484   3.051 -0.7934 -0.8833  0.6943
10749SOL     OW32840   0.206   2.217   1.115 -0.1491 -0.3740 -0.2010
10749SOL    HW132841   0.288   2.215   1.065 -0.5644  1.3484 -0.9955
10749SOL    HW232842   0.232   2.244   1.203  0.1190  0.5589 -0.5514
10750SOL     OW32843   4.297   6.226   0.399  0.1091 -0.6859  0.2525
10750SOL    HW132844   4.343   6.197   0.320 -2.2456 -1.9770 -0.6788
10750SOL    HW232845   4.204   6.221   0.376 -0.5260  4.0442  1.3134
10751SOL     OW32846   4.169   4.298   5.988  0.0125 -0.6718  0.0020
10751SOL    HW132847   4.189   4.329   5.900  0.8889 -3.1568 -0.7434
10751SOL    HW232848   4.085   4.252   5.978 -2.3068  2.9924  1.4953
10752SOL     OW32849   1.204   5.481   4.718 -0.8454  0.1682 -0.2982
10752SOL    HW132850   1.169   5.554   4.668 -0.5866 -0.1159 -0.8971
10752SOL    HW232851   1.131   5.420   4.727 -0.8291  0.1131 -0.5369
10753SOL     OW32852   2.160   4.914   6.345  0.2447 -0.0261 -0.0939
10753SOL    HW132853   2.199   4.951   6.424 -0.1772 -0.1519  0.1763
10753SOL    HW232854   2.197   4.826   6.338  1.0619  0.3520 -0.6007
10754SOL     OW32855   0.193   6.186   0.965 -0.0150  0.4242  0.6278
10754SOL    HW132856   0.209   6.104   1.012 -1.2889 -0.7724 -0.9649
10754SOL    HW232857   0.130   6.233   1.020 -1.6570 -1.0522  0.0789
10755SOL     OW32858   1.320   2.183   1.336  0.2366  0.2598  0.2954
10755SOL    HW132859   1.311   2.275   1.359 -1.4741  0.5034 -1.1930
10755SOL    HW232860   1.375   2.184   1.258 -1.6316  0.2479 -1.0623
10756SOL     OW32861   1.524   2.939   0.231 -0.1344  0.1796  0.1484
10756SOL    HW132862   1.486   2.961   0.146  1.1218 -0.0622 -0.4901
10756SOL    HW232863   1.483   3.000   0.292 -1.0059  0.3940 -0.6429
10757SOL     OW32864   1.864   6.800   3.996  0.0246  0.0251  0.4355
10757SOL    HW132865   1.768   6.805   4.000  0.0691  0.0841  1.5590
10757SOL    HW232866   1.893   6.833   4.081  1.0950  1.3323 -0.4055
10758SOL     OW32867   0.366   1.180   6.548 -0.4215 -0.2255  0.2231
10758SOL    HW132868   0.365   1.276   6.552  1.3195 -0.2482  1.6212
10758SOL    HW232869   0.317   1.153   6.626 -1.2892 -0.4925 -0.4014
10759SOL     OW32870   5.185   0.974   6.802 -0.4931  0.7049 -0.7570
10759SOL    HW132871   5.263   0.921   6.823 -0.6923  0.6808 -0.0580
10759SOL    HW232872   5.120   0.909   6.775 -0.8081  0.5673  0.3161
10760SOL     OW32873   4.790   2.500   0.851  0.4170 -0.6820 -0.5737
10760SOL    HW132874   4.698   2.501   0.828  0.4026  0.2231 -0.4850
10760SOL    HW232875   4.806   2.586   0.890  0.6626 -1.7928  1.8724
10761SOL     OW32876   2.448   1.064   3.987 -0.1197 -0.0906  0.0618
10761SOL    HW132877   2.390   1.140   3.984  0.5560  0.4393  0.0216
10761SOL    HW232878   2.424   1.018   4.067  0.6772  1.1688  1.0520
10762SOL     OW32879   7.112   6.559   5.472  0.1384 -0.3428 -0.0905
10762SOL    HW132880   7.123   6.652   5.453 -0.9884  0.0039  0.8664
10762SOL    HW232881   7.109   6.555   5.568  0.2572 -1.3698 -0.1324
10763SOL     OW32882   4.860   5.548   0.473  0.0079  0.9263  0.3307
10763SOL    HW132883   4.935   5.513   0.520  1.5619 -0.3499 -2.9192
10763SOL    HW232884   4.791   5.482   0.486 -0.0244  1.2442  1.8666
10764SOL     OW32885   4.793   1.379   0.435  0.1783  0.4621  0.0566
10764SOL    HW132886   4.800   1.474   0.421 -1.1721  0.4959 -0.4807
10764SOL    HW232887   4.713   1.354   0.389 -0.3941 -0.6596  1.6246
10765SOL     OW32888   3.553   4.485   3.515 -0.3008 -0.1549 -0.4762
10765SOL    HW132889   3.607   4.553   3.475 -0.8433  1.3708  1.3030
10765SOL    HW232890   3.471   4.529   3.535 -1.0724 -1.6426 -0.3172
10766SOL     OW32891   7.108   2.426   0.231 -0.0504 -0.4585 -0.3635
10766SOL    HW132892   7.104   2.332   0.249  0.0641 -0.3912  0.0131
10766SOL    HW232893   7.197   2.452   0.257  0.1549 -0.3824 -1.1221
10767SOL     OW32894   0.915   6.825   5.552 -0.6641  0.0425  0.4430
10767SOL    HW132895   0.865   6.899   5.518 -0.6466 -0.6030 -1.0208
10767SOL    HW232896   0.850   6.772   5.599 -0.4524  1.5855  2.5823
10768SOL     OW32897   6.016   1.204   0.717  0.1419 -0.0123  0.4776
10768SOL    HW132898   6.002   1.198   0.623  1.1506  1.5872  0.2202
10768SOL    HW232899   6.102   1.164   0.731  0.3010  0.3875  0.6351
10769SOL     OW32900   3.763   2.367   1.027  0.0562  0.0546 -0.3694
10769SOL    HW132901   3.779   2.461   1.031  1.1029 -0.1288 -0.1959
10769SOL    HW232902   3.706   2.357   0.950 -0.0849  0.8268 -0.3762
10770SOL     OW32903   4.709   4.455   7.007 -0.1879 -1.0303  0.0190
10770SOL    HW132904   4.655   4.450   7.086 -0.3204  0.3636  0.0214
10770SOL    HW232905   4.798   4.434   7.038  0.1166  1.4744  0.9344
10771SOL     OW32906   4.413   6.292   6.253 -0.7265 -0.1365  1.1277
10771SOL    HW132907   4.455   6.241   6.183  1.2943 -0.0870  2.2648
10771SOL    HW232908   4.369   6.363   6.207  0.7069 -0.0079 -0.1214
10772SOL     OW32909   0.493   1.322   0.408  0.9243 -0.0786  0.3135
10772SOL    HW132910   0.477   1.400   0.460  2.3007  0.6693 -0.3484
10772SOL    HW232911   0.473   1.348   0.318 -2.2616 -1.6022  0.5214
10773SOL     OW32912   6.679   4.907   6.960  0.1308  0.2402 -0.0849
10773SOL    HW132913   6.673   4.959   6.880  0.5031  0.1072 -0.1984
10773SOL    HW232914   6.767   4.923   6.993 -0.8931  2.3981  1.7346
10774SOL     OW32915   6.188   5.958   6.546  0.0689  0.0368  0.3525
10774SOL    HW132916   6.175   5.865   6.564 -0.9528  0.2173  0.5713
10774SOL    HW232917   6.257   5.985   6.606 -0.1573 -0.4037  0.8090
10775SOL     OW32918   2.958   5.218   0.649  0.4538  0.6483  0.6558
10775SOL    HW132919   3.012   5.226   0.570 -0.8180 -0.3708 -0.3633
10775SOL    HW232920   2.892   5.287   0.640  0.4346  0.6669  0.9379
10776SOL     OW32921   4.554   2.131   5.716 -0.4308 -0.3775  0.4030
10776SOL    HW132922   4.530   2.137   5.808  2.2490  0.9341  1.0528
10776SOL    HW232923   4.595   2.045   5.707 -0.7694 -0.5405  0.3965
10777SOL     OW32924   2.612   4.756   3.822 -0.7829 -0.1087 -0.5090
10777SOL    HW132925   2.676   4.795   3.881 -1.2670 -0.7864  0.4889
10777SOL    HW232926   2.642   4.779   3.735  0.0396  0.7713 -0.0032
10778SOL     OW32927   4.529   0.240   7.066 -0.6545 -0.3294  0.3122
10778SOL    HW132928   4.455   0.292   7.098 -0.4517  0.4028 -0.3957
10778SOL    HW232929   4.605   0.297   7.077 -0.4487 -0.4112 -0.6046
10779SOL     OW32930   0.644   4.919   0.434  0.3275  0.2349 -0.3906
10779SOL    HW132931   0.648   4.870   0.352 -0.2849  2.1170 -1.5878
10779SOL    HW232932   0.556   4.958   0.434  0.3033  0.2316  1.1954
10780SOL     OW32933   1.597   0.407   6.246 -0.4157  0.0488 -0.3972
10780SOL    HW132934   1.521   0.407   6.304 -0.3451 -1.1142 -0.2750
10780SOL    HW232935   1.658   0.468   6.287 -0.2053 -1.0582  1.0135
10781SOL     OW32936   0.934   6.357   6.452 -0.0827 -0.0871 -0.2839
10781SOL    HW132937   0.844   6.337   6.428 -0.2489 -0.8201  0.9173
10781SOL    HW232938   0.928   6.440   6.500  0.2933  1.5760 -2.9729
10782SOL     OW32939   6.413   0.970   0.537  0.6823  0.1035  0.3389
10782SOL    HW132940   6.389   1.054   0.498  1.1699 -0.4869 -1.2543
10782SOL    HW232941   6.364   0.968   0.620  0.0169  1.5865  0.0028
10783SOL     OW32942   4.065   1.447   0.870 -0.4583  0.4648 -0.1934
10783SOL    HW132943   4.021   1.377   0.821  0.8374 -1.7440  1.6688
10783SOL    HW232944   4.128   1.483   0.808 -2.0270  0.8847 -1.5917
10784SOL     OW32945   3.257   0.649   0.295 -0.1159  0.0405  0.5363
10784SOL    HW132946   3.311   0.600   0.358 -0.5414 -1.8767 -0.5568
10784SOL    HW232947   3.289   0.740   0.302  0.0358 -0.1841  3.2886
10785SOL     OW32948   2.521   4.438   7.003 -0.0050  0.3550  0.0913
10785SOL    HW132949   2.577   4.423   6.928 -0.4058  0.0425 -0.1454
10785SOL    HW232950   2.432   4.444   6.966 -0.2303 -0.0326  0.5623
10786SOL     OW32951   3.184   5.830   5.628  0.1928  0.1668  0.0520
10786SOL    HW132952   3.132   5.765   5.676 -0.0926 -0.0462 -0.5458
10786SOL    HW232953   3.140   5.913   5.645  0.9991  0.3330  1.4523
10787SOL     OW32954   0.530   7.060   0.570 -0.8000  0.1190  0.7377
10787SOL    HW132955   0.450   7.105   0.544 -0.6119  0.3857  0.6104
10787SOL    HW232956   0.568   7.028   0.488 -1.5286 -1.3020  0.9389
10788SOL     OW32957   6.555   2.536   1.568  0.2194  0.5743  0.3064
10788SOL    HW132958   6.610   2.503   1.638  0.7113 -1.1007 -0.8450
10788SOL    HW232959   6.616   2.568   1.502 -0.2104  0.2865 -0.2372
10789SOL     OW32960   5.607   3.326   2.721 -0.2484 -0.1116 -0.4358
10789SOL    HW132961   5.531   3.309   2.777 -0.3324  2.3403  0.2478
10789SOL    HW232962   5.604   3.421   2.705  2.9528  0.0926  0.0140
10790SOL     OW32963   2.889   7.184   6.664  0.2305  0.1997 -0.0199
10790SOL    HW132964   2.887   7.224   6.577  0.1250 -1.3407 -0.7256
10790SOL    HW232965   2.904   7.258   6.724  1.3759  1.1061 -1.4198
10791SOL     OW32966   2.609   6.841   0.876  0.7898  0.0764  0.0499
10791SOL    HW132967   2.559   6.871   0.951  1.1268  1.4934 -0.2786
10791SOL    HW232968   2.557   6.867   0.800  1.5942  0.8061 -0.2662
10792SOL     OW32969   4.303   1.210   5.332 -0.0136  0.3056 -0.2884
10792SOL    HW132970   4.334   1.169   5.251 -0.3127  0.0836 -0.2908
10792SOL    HW232971   4.357   1.172   5.401 -0.2698 -0.0757 -0.2945
10793SOL     OW32972   6.714   6.270   2.632  0.2134 -0.6409 -0.3071
10793SOL    HW132973   6.769   6.208   2.681 -0.5454 -0.4414  0.8028
10793SOL    HW232974   6.775   6.336   2.600  0.6880 -0.6759  0.5191
10794SOL     OW32975   5.561   2.884   4.430 -0.0509  0.4950 -0.9002
10794SOL    HW132976   5.606   2.955   4.475  2.1493 -2.1398  1.2094
10794SOL    HW232977   5.625   2.850   4.369 -0.4307 -0.8784 -0.5439
10795SOL     OW32978   3.800   0.839   4.721  0.2936 -0.3140 -0.1468
10795SOL    HW132979   3.881   0.836   4.772 -0.3689 -0.7251  0.8867
10795SOL    HW232980   3.730   0.837   4.786 -0.5797 -1.8715 -1.0858
10796SOL     OW32981   3.773   5.735   0.583 -0.0006  0.6276 -0.8118
10796SOL    HW132982   3.782   5.650   0.626  0.6002  1.2093  0.2380
10796SOL    HW232983   3.703   5.778   0.630  1.4576  1.7365  0.3827
10797SOL     OW32984   0.724   5.708   6.770 -0.0764 -0.2454  0.5342
10797SOL    HW132985   0.702   5.620   6.739  0.5371 -0.0430 -0.4937
10797SOL    HW232986   0.752   5.755   6.692  0.5138  0.5857  1.2318
10798SOL     OW32987   4.896   1.950   2.852 -0.0663  0.6795  0.0490
10798SOL    HW132988   4.827   1.908   2.904  1.4169 -1.0804  0.6485
10798SOL    HW232989   4.916   2.030   2.900 -0.0517  0.0151  1.1832
10799SOL     OW32990   3.359   5.207   3.426  0.4428  0.1887 -0.1267
10799SOL    HW132991   3.441   5.248   3.453  0.7704 -1.3727  1.2725
10799SOL    HW232992   3.293   5.275   3.440  1.1182  0.5709  1.2816
10800SOL     OW32993   3.437   5.557   5.183 -0.3727 -0.4266  0.5004
10800SOL    HW132994   3.504   5.578   5.117 -1.9508  0.9624 -0.6832
10800SOL    HW232995   3.384   5.636   5.190 -0.5381 -0.7124  3.1234
10801SOL     OW32996   4.913   2.035   6.732 -0.3297 -0.2781  0.0375
10801SOL    HW132997   4.943   2.017   6.821 -0.5025 -2.7174 -0.3844
10801SOL    HW232998   4.989   2.076   6.689 -0.3073  1.0931  1.3200
10802SOL     OW32999   4.666   6.873   3.973  0.5570  0.2752 -1.1232
10802SOL    HW133000   4.728   6.917   3.915  1.1336 -1.0272 -1.4957
10802SOL    HW233001   4.720   6.823   4.034 -0.1266 -0.9402 -1.5060
10803SOL     OW33002   4.191   4.368   2.462  0.4059  0.4958 -0.2204
10803SOL    HW133003   4.194   4.405   2.550 -2.2679 -1.9751  0.9789
10803SOL    HW233004   4.208   4.275   2.475 -1.4732 -0.1386 -2.1448
10804SOL     OW33005   2.449   5.325   1.872  0.1226  0.5300  0.1997
10804SOL    HW133006   2.533   5.298   1.907  0.4586  1.2402 -0.0517
10804SOL    HW233007   2.440   5.276   1.790  0.7953  1.2910 -0.3291
10805SOL     OW33008   3.686   2.670   3.468 -0.5026  0.0769  0.0006
10805SOL    HW133009   3.620   2.715   3.415 -0.2767 -1.3724 -1.5330
10805SOL    HW233010   3.635   2.624   3.535 -0.7716  2.0823  1.2293
10806SOL     OW33011   5.129   0.981   0.651  0.0022  0.5919 -0.6716
10806SOL    HW133012   5.107   1.019   0.566  0.2673  0.5930 -0.7410
10806SOL    HW233013   5.223   0.963   0.645 -0.1930 -0.4645 -0.8078
10807SOL     OW33014   3.781   6.449   5.390  0.0727 -0.1513  0.0047
10807SOL    HW133015   3.753   6.529   5.433 -0.7442 -0.2363 -0.3547
10807SOL    HW233016   3.706   6.423   5.337  0.1124 -1.4946  0.5993
10808SOL     OW33017   3.269   6.348   6.639 -0.4786  0.2027  0.3109
10808SOL    HW133018   3.361   6.370   6.652 -0.4728  0.2751  0.1517
10808SOL    HW233019   3.236   6.327   6.726  0.4010 -2.6155  0.0133
10809SOL     OW33020   3.953   6.652   2.779  0.3801  0.3206 -0.2745
10809SOL    HW133021   3.981   6.678   2.867  0.1359  0.6212 -0.2847
10809SOL    HW233022   3.910   6.730   2.743 -1.5461 -0.4996  0.1921
10810SOL     OW33023   5.432   1.977   5.433 -0.0237  0.4753 -0.1098
10810SOL    HW133024   5.400   2.022   5.511  0.0575 -1.1350  0.8889
10810SOL    HW233025   5.405   1.886   5.445  1.1344 -0.0552 -1.3355
10811SOL     OW33026   2.210   6.993   2.609 -0.4174 -0.4056 -0.4985
10811SOL    HW133027   2.271   7.050   2.563  1.2418 -2.4106 -0.8452
10811SOL    HW233028   2.202   6.915   2.554  0.5628 -2.2885  1.8867
10812SOL     OW33029   3.077   3.463   3.123 -0.1439  0.5756 -0.2094
10812SOL    HW133030   3.076   3.401   3.196  1.5045 -1.5944 -1.9619
10812SOL    HW233031   2.985   3.485   3.109 -0.5299  0.6478  2.1828
10813SOL     OW33032   2.354   0.667   2.896 -0.2820 -0.3136 -0.0384
10813SOL    HW133033   2.365   0.756   2.862 -1.4800 -0.0215  0.3165
10813SOL    HW233034   2.407   0.612   2.838 -0.9508  0.3931 -1.3299
10814SOL     OW33035   0.868   4.129   5.166 -0.1573 -0.5187 -0.0372
10814SOL    HW133036   0.815   4.086   5.233  0.1642 -1.2298 -0.2375
10814SOL    HW233037   0.956   4.094   5.178  0.0215 -0.2217 -0.4658
10815SOL     OW33038   1.920   4.705   2.837 -0.5519 -0.1403  0.4328
10815SOL    HW133039   2.009   4.741   2.840 -1.3782  2.1301 -1.0222
10815SOL    HW233040   1.864   4.778   2.861 -2.0939 -1.3506  0.5659
10816SOL     OW33041   0.247   1.673   3.790  0.4432 -0.1963  0.0174
10816SOL    HW133042   0.243   1.761   3.752  1.8777  0.0451  0.4074
10816SOL    HW233043   0.276   1.687   3.880 -1.0413 -0.9288  0.6241
10817SOL     OW33044   5.187   4.778   3.489  0.1464  0.4433 -0.3184
10817SOL    HW133045   5.099   4.760   3.523  0.7602  0.3569  1.2463
10817SOL    HW233046   5.197   4.873   3.498  0.4909  0.3595  0.1947
10818SOL     OW33047   6.919   3.773   0.218 -0.1223 -0.7044 -0.0728
10818SOL    HW133048   6.950   3.705   0.157 -0.3815 -1.7034  0.8905
10818SOL    HW233049   6.897   3.847   0.162  1.5764 -0.8884 -1.0021
10819SOL     OW33050   7.102   0.766   7.110 -0.1985 -0.4314 -0.0670
10819SOL    HW133051   7.030   0.703   7.115 -2.2051  1.6361 -2.1353
10819SOL    HW233052   7.087   0.826   7.183 -0.2246 -0.3655 -0.1261
10820SOL     OW33053   6.419   4.320   1.474 -0.1390  0.2809  0.5337
10820SOL    HW133054   6.510   4.342   1.455 -0.1012 -1.4780 -1.5184
10820SOL    HW233055   6.369   4.365   1.405 -0.5640 -0.9981  0.0013
10821SOL     OW33056   2.790   1.840   2.977  0.5094 -0.2409  0.0178
10821SOL    HW133057   2.771   1.751   3.005 -0.3497 -0.7553 -2.1006
10821SOL    HW233058   2.877   1.834   2.937  0.9860  0.1385  0.9770
10822SOL     OW33059   0.382   0.155   1.275 -0.1818 -0.5029  0.1497
10822SOL    HW133060   0.431   0.213   1.333  1.2718 -0.6996 -0.8482
10822SOL    HW233061   0.297   0.197   1.265 -0.2186 -0.1396  1.8889
10823SOL     OW33062   5.136   6.152   5.686 -0.0961 -0.6554  0.0712
10823SOL    HW133063   5.047   6.126   5.663 -0.3824  0.4959 -0.1267
10823SOL    HW233064   5.141   6.245   5.664  0.9095 -0.5247  0.8115
10824SOL     OW33065   6.322   2.028   6.393 -0.1998  0.0641 -0.1458
10824SOL    HW133066   6.390   1.963   6.414 -0.7910 -0.4212  0.2727
10824SOL    HW233067   6.265   1.983   6.330  0.4045  0.8067 -1.2474
10825SOL     OW33068   6.747   0.692   5.000  0.0730  0.0438 -0.0695
10825SOL    HW133069   6.734   0.779   4.963  0.1232 -0.3683 -1.0763
10825SOL    HW233070   6.806   0.648   4.938  0.1975 -0.6415  0.5236
10826SOL     OW33071   6.414   2.895   1.113  0.0946 -0.2373 -0.8172
10826SOL    HW133072   6.323   2.893   1.140 -0.3932 -1.1242 -2.4319
10826SOL    HW233073   6.462   2.923   1.190 -1.3633 -1.4370  0.5577
10827SOL     OW33074   6.857   3.295   4.990 -0.1763 -0.3412 -0.8246
10827SOL    HW133075   6.792   3.328   4.928  1.0002  0.6377 -1.5623
10827SOL    HW233076   6.871   3.367   5.052  0.7393 -0.2738 -1.1018
10828SOL     OW33077   3.642   0.396   5.101  0.0241  0.0115 -0.3419
10828SOL    HW133078   3.716   0.427   5.047  0.5800 -0.7721 -0.0350
10828SOL    HW233079   3.636   0.461   5.172  1.3046 -0.6613  0.4020
10829SOL     OW33080   1.564   4.172   3.574  0.5399 -0.0565  0.4521
10829SOL    HW133081   1.555   4.079   3.551 -0.2550  0.5612 -1.8294
10829SOL    HW233082   1.592   4.214   3.493 -2.0646  2.1602  0.6574
10830SOL     OW33083   0.988   6.495   1.981  0.0080  0.0852  0.6674
10830SOL    HW133084   1.043   6.417   1.982  0.9119  0.7179  1.1865
10830SOL    HW233085   0.987   6.525   2.072  0.7646  1.4244  0.2459
10831SOL     OW33086   2.407   6.119   0.332  0.1031 -0.3452 -0.5994
10831SOL    HW133087   2.384   6.211   0.316  0.2146 -0.5411 -1.9833
10831SOL    HW233088   2.323   6.073   0.332  0.0296 -0.2019  0.3313
10832SOL     OW33089   5.883   2.018   6.051  0.4833 -0.1350 -0.9239
10832SOL    HW133090   5.858   1.933   6.016  2.0783 -0.7222 -0.6952
10832SOL    HW233091   5.879   2.007   6.146 -0.8154  0.5275 -0.8876
10833SOL     OW33092   1.403   6.702   4.752  0.0307 -0.1839 -0.0786
10833SOL    HW133093   1.350   6.780   4.744  0.0248 -0.3531 -1.8668
10833SOL    HW233094   1.389   6.654   4.670  0.3749 -1.8359  0.7954
10834SOL     OW33095   1.911   6.322   0.903  0.3543 -0.0466 -0.0617
10834SOL    HW133096   1.991   6.372   0.885  0.3627 -0.3145 -0.7928
10834SOL    HW233097   1.864   6.322   0.820  0.4979 -1.5121 -0.1587
10835SOL     OW33098   0.778   4.825   2.059  0.1116 -0.1653  0.2423
10835SOL    HW133099   0.690   4.820   2.097 -0.4117  0.5908 -0.8323
10835SOL    HW233100   0.812   4.909   2.089 -0.0541  0.1429 -0.4214
10836SOL     OW33101   4.137   0.733   4.272  0.5254  0.5187 -0.4587
10836SOL    HW133102   4.073   0.776   4.328  0.6400  1.9186 -1.3617
10836SOL    HW233103   4.085   0.694   4.202  0.5076  0.0942 -0.2079
10837SOL     OW33104   6.639   5.352   0.738 -0.2402 -0.0602  0.2786
10837SOL    HW133105   6.606   5.401   0.663 -0.5182  2.1567  1.7918
10837SOL    HW233106   6.712   5.405   0.771 -0.3584 -0.8059  1.7794
10838SOL     OW33107   0.706   5.137   4.715 -0.3820 -0.3324 -0.1154
10838SOL    HW133108   0.652   5.125   4.637 -1.1793  2.4497 -0.0535
10838SOL    HW233109   0.727   5.231   4.716  1.0359 -0.6243  2.0910
10839SOL     OW33110   0.351   4.236   3.977 -0.3999 -0.5649  0.5756
10839SOL    HW133111   0.385   4.226   3.888  1.3239 -1.0763  1.2775
10839SOL    HW233112   0.392   4.316   4.010 -2.4017  0.6211  0.3189
10840SOL     OW33113   0.055   0.147   0.950 -0.2567  0.2211  0.3144
10840SOL    HW133114   0.051   0.163   0.856 -2.3883 -0.5682  0.2361
10840SOL    HW233115   0.141   0.109   0.964 -0.6310 -1.4822 -1.6592
10841SOL     OW33116   6.442   5.894   0.407 -0.2304 -0.1879  0.6440
10841SOL    HW133117   6.473   5.865   0.492 -0.2696  0.5187  0.9047
10841SOL    HW233118   6.497   5.848   0.344  0.0500 -0.4233  1.0589
10842SOL     OW33119   6.094   1.032   6.090  0.1793 -0.4045 -1.4185
10842SOL    HW133120   6.127   0.953   6.134  0.8888  0.3745 -0.5156
10842SOL    HW233121   6.152   1.044   6.015 -0.0200 -0.8182 -1.6399
10843SOL     OW33122   5.693   2.628   5.435  0.0816 -0.4049 -0.0879
10843SOL    HW133123   5.697   2.556   5.497 -2.2106 -0.5996 -0.1304
10843SOL    HW233124   5.781   2.634   5.398  0.9539 -1.5085  1.7896
10844SOL     OW33125   0.923   0.994   5.216 -0.3492  0.2402 -0.1436
10844SOL    HW133126   0.886   0.910   5.242  3.0362 -1.0902  0.5726
10844SOL    HW233127   0.908   1.051   5.291 -1.7207  0.0075 -0.2211
10845SOL     OW33128   1.423   4.014   2.375 -0.7113 -0.6174 -0.5667
10845SOL    HW133129   1.437   3.940   2.435 -2.9936 -2.2899 -2.0105
10845SOL    HW233130   1.483   3.998   2.303  0.9679  0.6031  0.5200
10846SOL     OW33131   0.997   1.338   2.270  0.0971 -0.1890 -0.4046
10846SOL    HW133132   1.082   1.359   2.229  0.2748  1.0599  0.5805
10846SOL    HW233133   1.006   1.247   2.297  1.2764  0.0497  0.0536
10847SOL     OW33134   4.358   2.509   7.092 -0.1910  0.1227 -0.0537
10847SOL    HW133135   4.371   2.596   7.055 -0.1743 -0.8404 -2.4123
10847SOL    HW233136   4.424   2.501   7.161 -0.6209  2.1867  0.6188
10848SOL     OW33137   2.274   1.645   2.319 -0.0294  0.0620  0.5645
10848SOL    HW133138   2.209   1.620   2.384  0.3876  1.7352  1.6446
10848SOL    HW233139   2.308   1.562   2.286 -2.0855 -0.8263  0.5864
10849SOL     OW33140   7.196   1.999   2.116 -0.0255  0.4691 -0.1665
10849SOL    HW133141   7.244   2.002   2.032  0.4163 -0.4577  0.0368
10849SOL    HW233142   7.265   2.000   2.182 -0.2672 -1.1350  0.1253
10850SOL     OW33143   2.702   7.061   4.570 -0.3011  0.4778 -0.0103
10850SOL    HW133144   2.707   6.974   4.611 -1.3784 -0.4168 -1.7072
10850SOL    HW233145   2.767   7.113   4.617  0.2765 -1.2138  1.1354
10851SOL     OW33146   5.336   3.806   1.108  0.1764 -0.2418  0.2984
10851SOL    HW133147   5.407   3.804   1.045 -0.0016 -0.1795  0.0951
10851SOL    HW233148   5.376   3.837   1.189  0.2959  0.1839  0.0765
10852SOL     OW33149   2.376   1.689   3.727  0.4602  0.0968 -0.4540
10852SOL    HW133150   2.373   1.720   3.818  1.3183 -0.8136 -0.0988
10852SOL    HW233151   2.470   1.679   3.709  0.3399  1.4019 -1.8384
10853SOL     OW33152   1.838   7.172   5.361 -0.1166  0.1670 -0.4745
10853SOL    HW133153   1.802   7.154   5.275 -1.2003  0.7188 -0.1470
10853SOL    HW233154   1.770   7.145   5.422  1.5051 -2.3027  0.3101
10854SOL     OW33155   3.557   6.578   6.224  0.1928 -0.7205 -0.6707
10854SOL    HW133156   3.476   6.628   6.238 -0.0294 -1.1416 -0.4518
10854SOL    HW233157   3.535   6.489   6.252  0.6693 -0.8812 -0.8140
10855SOL     OW33158   2.431   5.582   2.201  0.1413 -0.2158  0.4131
10855SOL    HW133159   2.363   5.620   2.145 -0.3285 -0.6584  0.6841
10855SOL    HW233160   2.490   5.655   2.218  1.4610 -0.5536 -2.3947
10856SOL     OW33161   6.916   2.997   4.284 -0.0651  0.6128  0.3311
10856SOL    HW133162   6.860   3.068   4.254 -0.9213  0.7054  2.0550
10856SOL    HW233163   6.988   3.041   4.330  0.8288  0.4470 -0.8808
10857SOL     OW33164   4.528   2.302   6.557  0.5940 -0.6039  0.2902
10857SOL    HW133165   4.592   2.319   6.487  1.9631 -2.6729  0.9622
10857SOL    HW233166   4.468   2.238   6.518  0.0864 -0.1214  0.2912
10858SOL     OW33167   3.199   3.366   4.014  0.2650  0.5846 -0.0317
10858SOL    HW133168   3.129   3.320   3.967  0.2461  0.0760  0.4880
10858SOL    HW233169   3.160   3.451   4.037  0.2219  0.7723 -0.7912
10859SOL     OW33170   4.126   5.020   0.391 -0.8830 -0.4186 -0.1487
10859SOL    HW133171   4.126   4.982   0.303 -1.5656  0.2531 -0.4425
10859SOL    HW233172   4.086   4.953   0.446 -0.5887 -0.7804 -0.3720
10860SOL     OW33173   4.830   5.393   4.726 -0.4653 -0.0550 -0.5203
10860SOL    HW133174   4.894   5.322   4.721 -0.2203  0.0975  0.4622
10860SOL    HW233175   4.876   5.469   4.689 -0.5429 -0.2739 -1.0673
10861SOL     OW33176   1.535   3.356   6.056 -0.2889  0.2641  0.0861
10861SOL    HW133177   1.609   3.397   6.010  0.3172  1.3751  2.0025
10861SOL    HW233178   1.459   3.407   6.029  0.1098  1.1117  0.5387
10862SOL     OW33179   4.422   0.229   2.636  0.0142 -0.3550  0.2022
10862SOL    HW133180   4.436   0.146   2.680  0.4574 -0.6657 -0.5296
10862SOL    HW233181   4.509   0.269   2.630  0.0677 -0.6625 -1.0890
10863SOL     OW33182   5.572   2.538   0.922 -0.2943 -0.1582 -0.9548
10863SOL    HW133183   5.570   2.457   0.972  0.5112  1.2307  1.4252
10863SOL    HW233184   5.490   2.582   0.945  0.6126  1.0250  0.1662
10864SOL     OW33185   3.670   0.692   2.845  0.1294  0.2877  0.2770
10864SOL    HW133186   3.749   0.740   2.821  0.2821 -0.6192 -1.1000
10864SOL    HW233187   3.626   0.748   2.909  1.7544  0.9166  0.8674
10865SOL     OW33188   2.331   5.452   1.435 -0.3796 -0.5543 -0.4896
10865SOL    HW133189   2.330   5.523   1.371 -0.6966 -0.3821 -0.2947
10865SOL    HW233190   2.388   5.484   1.505 -1.6270  0.0846  0.2468
10866SOL     OW33191   0.927   0.794   3.571  0.2890  0.2065  0.6937
10866SOL    HW133192   0.963   0.848   3.501 -1.7919 -2.3297 -2.4608
10866SOL    HW233193   0.988   0.721   3.579 -0.9866 -1.0199 -0.5500
10867SOL     OW33194   5.969   6.870   5.931  0.1325 -0.0756 -0.5540
10867SOL    HW133195   6.038   6.934   5.944  0.6425 -1.0385  1.7794
10867SOL    HW233196   5.899   6.918   5.886  0.7646  1.9268  0.5473
10868SOL     OW33197   6.028   6.957   6.716 -0.3113  0.3500  0.3338
10868SOL    HW133198   6.062   6.917   6.636 -0.7437 -1.4033  0.9951
10868SOL    HW233199   5.995   7.042   6.688 -0.9982 -0.4759 -1.4739
10869SOL     OW33200   5.212   5.496   1.896 -0.4226  0.0131 -0.1372
10869SOL    HW133201   5.255   5.428   1.843 -0.3837  0.1347 -0.2618
10869SOL    HW233202   5.181   5.559   1.831  0.8148  0.8573  0.0779
10870SOL     OW33203   3.750   4.215   3.958 -0.0473 -0.2347 -0.1639
10870SOL    HW133204   3.797   4.298   3.960  3.3005 -2.0391  1.1818
10870SOL    HW233205   3.783   4.170   3.880 -1.5830 -0.4479 -0.7053
10871SOL     OW33206   5.968   3.241   3.500  0.1905  0.2583  0.2850
10871SOL    HW133207   6.014   3.279   3.425  0.2886  0.3411  0.3892
10871SOL    HW233208   5.932   3.159   3.466  1.5261 -0.4473  0.5686
10872SOL     OW33209   3.836   3.556   0.742  0.0832 -0.2599 -0.1811
10872SOL    HW133210   3.745   3.528   0.756  0.1038 -0.1571  0.1770
10872SOL    HW233211   3.873   3.559   0.830  0.3830 -0.1270 -0.3123
10873SOL     OW33212   2.869   3.317   4.238 -0.4311  0.3868 -0.0574
10873SOL    HW133213   2.877   3.228   4.273 -1.2820 -0.0207 -0.8752
10873SOL    HW233214   2.943   3.364   4.275 -1.0515 -0.1399  1.9549
10874SOL     OW33215   3.764   0.107   1.906  0.1418 -0.5158 -0.0500
10874SOL    HW133216   3.720   0.108   1.991 -2.6995 -0.2379 -1.4689
10874SOL    HW233217   3.698   0.074   1.845  1.5115  1.0925 -2.4763
10875SOL     OW33218   1.990   3.759   4.491 -0.6906  0.3218  0.2323
10875SOL    HW133219   1.965   3.830   4.549  1.4694  1.1031  0.2421
10875SOL    HW233220   1.985   3.796   4.403 -0.3018  0.2560  0.1813
10876SOL     OW33221   5.171   0.957   4.175  0.1521 -0.3884 -0.0406
10876SOL    HW133222   5.082   0.968   4.142 -0.0256  0.4450  0.6942
10876SOL    HW233223   5.175   0.867   4.206 -0.2191 -0.6377 -0.7257
10877SOL     OW33224   5.578   6.347   4.541  0.0540 -0.1807  0.2517
10877SOL    HW133225   5.592   6.404   4.465 -0.0883 -1.2452 -0.5895
10877SOL    HW233226   5.573   6.407   4.616  3.6706  0.6633 -0.0862
10878SOL     OW33227   5.653   4.582   5.254 -0.1473  0.4971  0.0846
10878SOL    HW133228   5.640   4.564   5.161  1.1056  0.3146 -0.0746
10878SOL    HW233229   5.667   4.676   5.258  0.1274  0.4619  0.0294
10879SOL     OW33230   1.203   0.237   3.653  0.3320  0.1776 -0.1879
10879SOL    HW133231   1.192   0.308   3.716  1.2700  1.3697 -1.3430
10879SOL    HW233232   1.160   0.268   3.573 -1.4064 -1.5857  0.0292
10880SOL     OW33233   0.106   4.049   6.173 -0.0302  0.2204 -0.3760
10880SOL    HW133234   0.126   4.143   6.183  0.4425 -0.0335  1.2449
10880SOL    HW233235   0.029   4.047   6.117 -0.4658  1.6205  0.1453
10881SOL     OW33236   5.711   1.842   3.144 -0.0329 -0.3518  0.2401
10881SOL    HW133237   5.716   1.861   3.050 -0.8939 -0.6923  0.1193
10881SOL    HW233238   5.763   1.911   3.185  0.3735 -0.2163 -0.4869
10882SOL     OW33239   4.406   5.925   2.376 -0.6945  0.3768 -0.1023
10882SOL    HW133240   4.432   5.872   2.450 -0.3543 -2.0705 -1.9134
10882SOL    HW233241   4.482   5.981   2.359  0.0370 -0.5417  0.0990
10883SOL     OW33242   4.829   6.582   0.917 -0.2352 -0.0690  0.4042
10883SOL    HW133243   4.817   6.489   0.899 -0.9448 -0.5219  3.1177
10883SOL    HW233244   4.782   6.598   0.998  0.3243  2.5640  0.2668
10884SOL     OW33245   5.877   0.013   5.127  0.4107  0.1160 -0.3785
10884SOL    HW133246   5.898   0.011   5.220  0.6946 -0.3080 -0.4513
10884SOL    HW233247   5.916   0.094   5.096  1.1224 -0.1999 -0.3168
10885SOL     OW33248   6.926   3.137   7.157  0.3858  0.3032 -0.1005
10885SOL    HW133249   6.833   3.126   7.135  0.7520 -1.7182 -0.7422
10885SOL    HW233250   6.926   3.164   7.249 -0.8670  0.7455 -0.2253
10886SOL     OW33251   2.767   6.171   4.368  0.2465 -0.2897  0.6619
10886SOL    HW133252   2.746   6.252   4.414 -1.3461 -1.3229  1.8266
10886SOL    HW233253   2.721   6.177   4.285  0.7906  0.3533  0.4113
10887SOL     OW33254   6.895   2.199   2.393 -0.4586 -0.3642 -0.6065
10887SOL    HW133255   6.964   2.169   2.451 -0.4184  0.5298 -0.1897
10887SOL    HW233256   6.896   2.136   2.320  0.8025 -0.3399 -0.6227
10888SOL     OW33257   5.497   5.444   5.809 -0.0198  0.7506 -0.9822
10888SOL    HW133258   5.552   5.410   5.880 -0.1632  1.3612 -0.5656
10888SOL    HW233259   5.426   5.380   5.801 -0.4107  1.0424 -0.0580
10889SOL     OW33260   2.220   5.789   2.326 -0.2157 -0.2200 -0.1473
10889SOL    HW133261   2.195   5.706   2.365 -0.8123 -1.2905 -2.6951
10889SOL    HW233262   2.141   5.820   2.282  0.2393  1.2651  0.0652
10890SOL     OW33263   7.037   6.401   0.966 -0.6611 -0.0480  0.5394
10890SOL    HW133264   7.109   6.463   0.952 -1.3932  0.9798  1.2223
10890SOL    HW233265   7.053   6.364   1.053 -1.6275  1.1282  1.2390
10891SOL     OW33266   5.042   0.063   0.918 -0.0715  0.6956  0.4099
10891SOL    HW133267   5.089  -0.019   0.935 -0.2063  0.0922 -1.9597
10891SOL    HW233268   5.111   0.130   0.918  0.5746  0.0453 -1.4357
10892SOL     OW33269   6.570   5.678   5.406  0.0626 -0.3536  0.1614
10892SOL    HW133270   6.483   5.719   5.403 -0.2292 -0.7684  2.0716
10892SOL    HW233271   6.551   5.586   5.424  0.9158 -0.2686  1.5726
10893SOL     OW33272   3.309   2.120   0.595  0.0670  0.1430  0.5183
10893SOL    HW133273   3.365   2.151   0.666  1.0491  0.3087 -0.3254
10893SOL    HW233274   3.321   2.183   0.525 -2.0446  0.7992  0.7173
10894SOL     OW33275   6.681   6.051   1.425 -0.2325 -0.2629  0.2234
10894SOL    HW133276   6.643   6.023   1.341  1.5525 -2.6694  0.1666
10894SOL    HW233277   6.634   6.131   1.447 -2.8681 -1.2635 -1.5583
10895SOL     OW33278   2.340   6.031   6.053  0.5047 -0.1654 -0.0952
10895SOL    HW133279   2.301   6.102   6.105  1.4320  0.6684 -0.5246
10895SOL    HW233280   2.434   6.045   6.060  0.6671 -0.7652 -1.0103
10896SOL     OW33281   5.233   2.855   5.374 -0.0310  0.2106 -0.2039
10896SOL    HW133282   5.193   2.831   5.457  1.4399 -2.9656 -0.3466
10896SOL    HW233283   5.324   2.874   5.396  0.4331 -0.9280 -1.0949
10897SOL     OW33284   4.991   5.599   5.746  0.0571 -0.1723 -0.4213
10897SOL    HW133285   5.007   5.548   5.667  0.7598 -1.2717  0.4070
10897SOL    HW233286   5.073   5.645   5.762 -0.7805  1.7674 -1.5276
10898SOL     OW33287   2.826   1.940   6.943  0.7087  0.1866 -0.2798
10898SOL    HW133288   2.810   1.846   6.949  2.6069 -0.2116 -0.8867
10898SOL    HW233289   2.917   1.951   6.973 -0.1845  2.1142  1.8426
10899SOL     OW33290   7.106   6.891   5.284 -0.3044 -0.1458 -0.4379
10899SOL    HW133291   7.118   6.984   5.262  1.3091 -0.1821  0.2558
10899SOL    HW233292   7.129   6.845   5.204  1.7609 -0.0819  0.1030
10900SOL     OW33293   5.493   3.367   5.801  0.4774  0.4068  0.2635
10900SOL    HW133294   5.459   3.451   5.831 -1.1481 -0.3390  0.5748
10900SOL    HW233295   5.449   3.352   5.718  0.8888 -0.0548  0.1285
10901SOL     OW33296   6.882   0.136   2.166 -0.4298 -0.1310 -0.2152
10901SOL    HW133297   6.868   0.082   2.088  1.0852 -0.2045 -0.4541
10901SOL    HW233298   6.853   0.223   2.141  0.9141  0.0478 -1.1736
10902SOL     OW33299   5.520   4.078   0.941  0.2771 -0.5220  0.3474
10902SOL    HW133300   5.494   4.159   0.986  0.2012 -0.0885 -0.4592
10902SOL    HW233301   5.487   4.089   0.852 -0.2677 -1.7155  0.3872
10903SOL     OW33302   2.030   7.227   4.928  0.2202 -0.1856 -0.3947
10903SOL    HW133303   1.989   7.271   5.003  0.3671 -3.4929  1.7403
10903SOL    HW233304   1.976   7.254   4.854 -2.8467 -0.4671  1.6027
10904SOL     OW33305   5.547   1.236   6.751 -0.0007 -0.4106 -0.5003
10904SOL    HW133306   5.634   1.242   6.712  0.4136 -2.8819 -0.0259
10904SOL    HW233307   5.562   1.243   6.845 -0.5664  1.4035 -0.5310
10905SOL     OW33308   0.168   2.465   4.930 -0.9645 -0.3744  0.2712
10905SOL    HW133309   0.244   2.498   4.881 -1.7344 -1.6609 -1.8680
10905SOL    HW233310   0.132   2.396   4.874 -3.5560  0.0240  1.3968
10906SOL     OW33311   5.247   0.174   2.882  0.3649 -0.3384  0.0660
10906SOL    HW133312   5.157   0.161   2.914 -0.2342  0.0838 -1.3802
10906SOL    HW233313   5.302   0.136   2.950 -0.9152 -0.6748  0.9483
10907SOL     OW33314   2.874   5.607   5.202 -0.0425 -0.0018 -0.1574
10907SOL    HW133315   2.811   5.573   5.265 -0.4830 -1.2722 -1.2452
10907SOL    HW233316   2.874   5.542   5.131  1.7540  0.4989 -0.6324
10908SOL     OW33317   2.571   3.424   0.294 -0.5654  0.2558  0.4843
10908SOL    HW133318   2.505   3.458   0.235 -0.2960 -0.1855 -0.0771
10908SOL    HW233319   2.631   3.497   0.308 -0.4998  0.2943  0.0196
10909SOL     OW33320   6.035   4.615   0.682 -0.0617 -0.3414  0.0941
10909SOL    HW133321   6.126   4.637   0.667 -0.1461 -0.9575 -1.5115
10909SOL    HW233322   6.017   4.545   0.619 -0.7197 -2.5647  2.6620
10910SOL     OW33323   5.319   0.859   3.720  0.0996  0.2551 -0.1831
10910SOL    HW133324   5.393   0.807   3.752  0.4665 -0.7405 -2.5022
10910SOL    HW233325   5.243   0.802   3.733 -0.2225  1.1019  1.7859
10911SOL     OW33326   3.569   5.835   1.133  0.0857  0.0280 -0.2326
10911SOL    HW133327   3.634   5.821   1.065  0.5711  0.3674  0.1542
10911SOL    HW233328   3.526   5.750   1.144 -0.2047  0.0502 -1.1669
10912SOL     OW33329   2.963   5.527   0.360  0.4022  0.2330 -0.5438
10912SOL    HW133330   3.019   5.512   0.435 -1.1466 -0.0069  0.5955
10912SOL    HW233331   2.972   5.621   0.342  1.5146  0.1051 -0.6681
10913SOL     OW33332   5.196   5.705   0.747  0.2663  0.3789 -0.4826
10913SOL    HW133333   5.147   5.622   0.748  1.4020 -0.2872  0.3455
10913SOL    HW233334   5.135   5.768   0.785 -0.2945 -0.2500 -0.3114
10914SOL     OW33335   2.153   7.224   1.865 -0.1721 -0.3022  0.2834
10914SOL    HW133336   2.185   7.186   1.947 -0.2363 -0.1234  0.3927
10914SOL    HW233337   2.058   7.231   1.878  0.1272  2.5074  1.3747
10915SOL     OW33338   5.272   3.112   1.003  0.2121 -0.2183 -0.1523
10915SOL    HW133339   5.269   3.155   1.088 -1.2856 -0.5989  0.0018
10915SOL    HW233340   5.274   3.184   0.940  0.8633  0.0666  0.1892
10916SOL     OW33341   7.236   0.496   4.113  0.2521  0.2352 -0.2158
10916SOL    HW133342   7.232   0.587   4.144 -1.8662 -0.5290  1.9283
10916SOL    HW233343   7.151   0.459   4.137  2.0309 -3.0605  1.3734
10917SOL     OW33344   0.996   6.315   0.260 -0.2221 -0.5612  0.3936
10917SOL    HW133345   0.930   6.261   0.303 -0.0262 -0.2776  1.0533
10917SOL    HW233346   0.946   6.380   0.211 -0.4752 -1.7803 -0.9955
10918SOL     OW33347   4.344   0.464   3.471  0.4344  0.1308 -0.1165
10918SOL    HW133348   4.397   0.390   3.442  0.8740  1.1485 -1.9864
10918SOL    HW233349   4.265   0.460   3.417  0.0938  0.5608  0.3384
10919SOL     OW33350   0.579   3.736   6.402  0.3707 -0.2773  0.2367
10919SOL    HW133351   0.665   3.712   6.435 -0.5282 -3.0788  0.6143
10919SOL    HW233352   0.596   3.776   6.317  2.1005  0.0305  0.7159
10920SOL     OW33353   4.040   2.918   6.360 -0.2111  0.0377  0.2516
10920SOL    HW133354   3.975   2.984   6.386  0.3467  0.2388  1.1706
10920SOL    HW233355   4.110   2.926   6.425 -1.0747 -2.8740  1.6368
10921SOL     OW33356   5.493   5.062   5.785 -0.1525 -0.0003  0.6060
10921SOL    HW133357   5.454   4.978   5.809  0.3620 -0.5968 -0.5714
10921SOL    HW233358   5.586   5.053   5.807  0.1469 -0.2200 -0.6668
10922SOL     OW33359   5.653   1.247   3.421  0.5569  0.0602  0.2423
10922SOL    HW133360   5.564   1.281   3.432  0.7807  0.7407  0.0005
10922SOL    HW233361   5.694   1.258   3.507 -0.0589 -1.6465  0.7611
10923SOL     OW33362   6.661   0.470   4.226 -0.2922 -0.2537 -0.3918
10923SOL    HW133363   6.583   0.428   4.191 -0.2701  0.0872 -0.8495
10923SOL    HW233364   6.717   0.397   4.252 -0.1097 -0.5150 -1.4953
10924SOL     OW33365   3.785   2.996   3.010 -0.1832  0.2488  0.0715
10924SOL    HW133366   3.690   2.991   3.004 -0.1149 -0.0186 -0.7462
10924SOL    HW233367   3.817   2.915   2.971  0.4731  1.6088 -2.3179
10925SOL     OW33368   6.157   1.931   3.565 -0.1156  0.3175 -0.1557
10925SOL    HW133369   6.215   1.992   3.610  0.8227 -0.2427 -0.5755
10925SOL    HW233370   6.205   1.848   3.567 -1.1266 -0.2758 -0.0812
10926SOL     OW33371   4.644   5.447   4.066 -0.8893 -0.0106  0.0626
10926SOL    HW133372   4.704   5.394   4.119 -1.6844  0.1617  1.1591
10926SOL    HW233373   4.593   5.497   4.130 -2.2309 -0.1817 -0.8348
10927SOL     OW33374   0.009   1.116   4.655  0.5882  0.3002 -0.1853
10927SOL    HW133375  -0.002   1.081   4.567 -1.3980  1.2131 -0.3346
10927SOL    HW233376   0.101   1.101   4.676  0.5015 -2.1922 -1.4333
10928SOL     OW33377   6.672   5.148   2.603  0.1883  0.2544  0.0854
10928SOL    HW133378   6.675   5.225   2.546 -0.1853  1.5103  1.7181
10928SOL    HW233379   6.735   5.167   2.673 -1.5727  0.1214  1.7604
10929SOL     OW33380   4.634   4.172   3.742 -0.1693  0.3018 -0.8752
10929SOL    HW133381   4.603   4.147   3.829 -0.8163 -0.5982 -1.3583
10929SOL    HW233382   4.707   4.232   3.759 -0.0816 -0.1213  0.2914
10930SOL     OW33383   4.563   6.181   6.029  0.0528  0.3740  0.1816
10930SOL    HW133384   4.498   6.148   5.967  1.1651 -0.7506 -0.4004
10930SOL    HW233385   4.627   6.228   5.975  1.1322 -0.7775  0.4433
10931SOL     OW33386   4.243   2.380   3.415  0.3450  0.1650  0.4524
10931SOL    HW133387   4.149   2.376   3.402  0.3726  0.5042  0.1603
10931SOL    HW233388   4.264   2.300   3.464  0.0267 -0.3323 -0.2282
10932SOL     OW33389   1.364   3.240   4.639 -0.5036 -0.2393 -0.0065
10932SOL    HW133390   1.439   3.256   4.696 -0.9664  1.1913  0.2081
10932SOL    HW233391   1.335   3.152   4.663 -0.1802  0.0117  1.3773
10933SOL     OW33392   6.736   0.722   0.463  0.2289 -0.0887 -0.1423
10933SOL    HW133393   6.786   0.667   0.523  1.1845 -1.7466 -2.3911
10933SOL    HW233394   6.666   0.666   0.431  0.1607  0.5258 -1.1219
10934SOL     OW33395   1.085   2.389   4.375 -0.3267 -0.1223 -0.5171
10934SOL    HW133396   1.111   2.464   4.322 -0.0304  0.2408  0.1366
10934SOL    HW233397   1.166   2.341   4.390 -0.2936  0.1249  0.1388
10935SOL     OW33398   6.582   0.057   6.681 -0.3095 -0.0869  0.5129
10935SOL    HW133399   6.502   0.083   6.637  0.1501  0.2255 -0.1556
10935SOL    HW233400   6.637   0.135   6.679  0.7140 -0.8039 -0.6710
10936SOL     OW33401   0.827   2.199   1.902  0.0805  0.0151  0.3033
10936SOL    HW133402   0.870   2.152   1.973  0.8591  0.9180  0.4351
10936SOL    HW233403   0.744   2.229   1.939 -0.1273 -0.6958  0.4140
10937SOL     OW33404   5.622   5.399   7.076  0.2399 -0.0198 -0.2166
10937SOL    HW133405   5.681   5.338   7.121  0.7989  0.0962 -0.7819
10937SOL    HW233406   5.548   5.409   7.135  0.7547 -0.2321  0.4676
10938SOL     OW33407   0.713   2.667   6.034 -0.0342 -0.4989 -0.2163
10938SOL    HW133408   0.757   2.717   5.965 -1.2522 -0.3937 -0.9417
10938SOL    HW233409   0.723   2.576   6.007  0.3079 -0.5132 -0.0374
10939SOL     OW33410   2.292   5.909   2.602 -0.2285 -0.3912 -0.2025
10939SOL    HW133411   2.370   5.878   2.555 -0.7242 -3.0683  0.6258
10939SOL    HW233412   2.232   5.938   2.534  0.6250 -0.4180 -0.9797
10940SOL     OW33413   6.191   6.626   6.627 -0.8562  0.2029 -0.5542
10940SOL    HW133414   6.265   6.637   6.687 -0.8311  1.6288 -0.8119
10940SOL    HW233415   6.114   6.632   6.683 -0.7934 -0.3079 -0.4145
10941SOL     OW33416   2.860   6.567   0.171 -0.1302  0.2133  0.2488
10941SOL    HW133417   2.939   6.514   0.170  0.4575  1.0653 -2.1434
10941SOL    HW233418   2.789   6.503   0.174  0.6063 -0.6408 -0.3259
10942SOL     OW33419   2.184   2.960   3.013  0.5625  0.0925 -0.1225
10942SOL    HW133420   2.262   2.923   3.053  0.4482 -1.3577 -1.2023
10942SOL    HW233421   2.186   2.930   2.922 -0.8678  0.6300 -0.3569
10943SOL     OW33422   2.011   1.052   5.248 -0.4329  0.3252 -0.0881
10943SOL    HW133423   1.982   1.075   5.160 -0.3987 -3.1231 -1.0507
10943SOL    HW233424   2.104   1.030   5.237 -0.1552  0.8942  1.0279
10944SOL     OW33425   4.595   6.820   5.785 -0.6148 -0.9607  0.3982
10944SOL    HW133426   4.618   6.825   5.878 -0.4679  1.1212  0.2832
10944SOL    HW233427   4.675   6.844   5.740 -1.0986 -0.4485 -0.2031
10945SOL     OW33428   3.998   5.877   4.255 -0.4417 -0.1518  0.1135
10945SOL    HW133429   3.978   5.789   4.220 -0.7751  0.1119 -0.3654
10945SOL    HW233430   4.076   5.864   4.308  1.4746 -0.1566 -2.5806
10946SOL     OW33431   5.875   5.082   2.669 -0.0344 -0.4272  0.2841
10946SOL    HW133432   5.796   5.050   2.625 -0.7212  1.7095 -0.1178
10946SOL    HW233433   5.889   5.169   2.632  1.9061 -0.3451  1.1417
10947SOL     OW33434   1.692   1.831   6.506  0.1472  0.2717 -0.2072
10947SOL    HW133435   1.721   1.783   6.428 -1.2542  0.1238 -0.6378
10947SOL    HW233436   1.638   1.768   6.554 -1.8853  1.4747 -0.8838
10948SOL     OW33437   2.685   2.501   2.013 -0.1675  0.4898 -0.1573
10948SOL    HW133438   2.670   2.446   1.936 -0.0355  1.1981 -0.6916
10948SOL    HW233439   2.764   2.551   1.992 -0.7997  1.5564 -0.0629
10949SOL     OW33440   3.899   6.344   5.160  0.1637 -0.3096  0.1532
10949SOL    HW133441   3.857   6.394   5.090 -0.4277 -0.9520  0.0434
10949SOL    HW233442   3.866   6.384   5.240  3.2464  2.4699  0.1295
10950SOL     OW33443   1.102   5.673   7.254  0.3878  0.5429  0.1758
10950SOL    HW133444   1.086   5.685   7.348 -1.2315  1.0625 -0.1580
10950SOL    HW233445   1.135   5.758   7.224 -0.8746  0.9451 -0.0869
10951SOL     OW33446   6.683   2.970   1.303  0.1630  0.0353  0.1350
10951SOL    HW133447   6.717   2.970   1.392 -0.1436 -1.3814  0.2541
10951SOL    HW233448   6.650   3.059   1.291  0.2774  0.2623  1.4029
10952SOL     OW33449   5.762   4.316   3.957  0.1240  0.2408  0.3251
10952SOL    HW133450   5.702   4.281   3.890  2.1143 -1.5169 -0.5958
10952SOL    HW233451   5.720   4.295   4.040 -0.4229 -1.2200 -0.3023
10953SOL     OW33452   7.113   4.916   4.726 -0.0206  0.7861 -0.3957
10953SOL    HW133453   7.123   5.011   4.722  1.6918  0.5942 -1.0693
10953SOL    HW233454   7.071   4.892   4.644  1.0667  0.7941 -0.9595
10954SOL     OW33455   3.826   0.535   2.184  0.2867  0.5087 -0.3708
10954SOL    HW133456   3.808   0.599   2.114  0.0677  0.1096 -0.6848
10954SOL    HW233457   3.917   0.551   2.208  0.2261  0.9576 -0.4299
10955SOL     OW33458   4.934   7.240   1.576 -0.0584 -0.0098  0.4931
10955SOL    HW133459   5.021   7.234   1.536  0.5204  1.0002  1.5527
10955SOL    HW233460   4.917   7.334   1.581 -1.1067 -0.1994  0.5437
10956SOL     OW33461   0.360   5.503   1.086 -0.4703  0.4497  0.4745
10956SOL    HW133462   0.302   5.524   1.013  1.6374  1.9423 -0.8391
10956SOL    HW233463   0.410   5.583   1.100  0.8701 -0.6210  1.9519
10957SOL     OW33464   1.351   6.598   4.511 -0.4515 -0.0955 -0.0565
10957SOL    HW133465   1.287   6.581   4.442 -0.6865 -1.4966  0.4832
10957SOL    HW233466   1.417   6.529   4.499  0.4199  0.7250  0.0242
10958SOL     OW33467   3.207   1.510   0.468 -0.1223  0.0260 -0.1527
10958SOL    HW133468   3.267   1.581   0.446 -1.5368  1.3232  0.1418
10958SOL    HW233469   3.224   1.491   0.560 -0.4767  0.7080  0.0546
10959SOL     OW33470   4.455   3.894   3.166  0.4592 -0.2865  0.5908
10959SOL    HW133471   4.458   3.798   3.164 -1.6136 -0.3660  0.6550
10959SOL    HW233472   4.420   3.919   3.081  0.5908  0.3912  0.7325
10960SOL     OW33473   0.177   6.711   5.209  0.4299  0.1111 -0.3639
10960SOL    HW133474   0.174   6.753   5.123 -0.5202 -0.6521 -0.7227
10960SOL    HW233475   0.096   6.660   5.213  0.1856  0.6045  1.2326
10961SOL     OW33476   3.970   1.747   6.294  0.0679 -0.3725  0.0938
10961SOL    HW133477   4.039   1.681   6.301  0.2473 -0.1929  0.0240
10961SOL    HW233478   4.000   1.805   6.225 -0.8639 -1.1404 -0.9745
10962SOL     OW33479   1.708   0.369   0.691 -0.0245  0.0347  0.0735
10962SOL    HW133480   1.688   0.458   0.720 -0.3967  0.5722 -1.7751
10962SOL    HW233481   1.624   0.323   0.696 -0.0039  0.0155  0.2401
10963SOL     OW33482   5.711   2.758   6.596 -0.0713 -0.3406 -0.2472
10963SOL    HW133483   5.711   2.798   6.509 -0.3468  1.8571  0.7109
10963SOL    HW233484   5.647   2.810   6.645  1.1624 -0.5976  1.6680
10964SOL     OW33485   3.002   6.656   1.031 -0.3750  0.2502  0.2111
10964SOL    HW133486   3.067   6.594   1.000 -0.3913  1.3691 -2.2019
10964SOL    HW233487   2.920   6.627   0.991 -1.3919 -1.0474  3.0765
10965SOL     OW33488   2.607   5.676   0.577 -0.4980  0.0365 -0.2630
10965SOL    HW133489   2.616   5.771   0.588 -1.5415  0.0267  0.7410
10965SOL    HW233490   2.590   5.664   0.483  0.7167  0.7391 -0.5968
10966SOL     OW33491   4.832   5.962   6.544 -0.3526  0.3388 -0.1338
10966SOL    HW133492   4.900   5.985   6.606 -1.9344 -0.1805  1.8244
10966SOL    HW233493   4.855   5.875   6.513 -0.5829 -0.1854  1.1682
10967SOL     OW33494   1.319   3.991   3.521  0.7490  0.0317 -0.2238
10967SOL    HW133495   1.327   4.085   3.503  1.6028  0.9938  4.3031
10967SOL    HW233496   1.407   3.957   3.506  1.0850  0.5132  0.5766
10968SOL     OW33497   0.272   3.149   3.549 -0.5742 -0.2964 -0.4370
10968SOL    HW133498   0.260   3.237   3.514  2.9127  0.9773  1.3986
10968SOL    HW233499   0.360   3.124   3.522 -0.1269 -1.7232  2.2268
10969SOL     OW33500   0.138   7.087   5.345  0.4295  0.1793  0.4818
10969SOL    HW133501   0.071   7.149   5.314  0.2340 -0.2930 -0.0441
10969SOL    HW233502   0.131   7.091   5.441 -0.8133 -0.3563  0.4300
10970SOL     OW33503   7.016   1.630   4.395 -0.2074  0.2956  0.3313
10970SOL    HW133504   6.971   1.554   4.358 -0.7883  0.7516  0.1064
10970SOL    HW233505   7.083   1.652   4.331 -0.9256  0.8129 -0.2469
10971SOL     OW33506   4.077   6.293   6.800  0.0978 -0.0971 -0.0557
10971SOL    HW133507   4.033   6.377   6.782  1.8166  1.2127  1.6163
10971SOL    HW233508   4.094   6.295   6.895  3.9053 -0.4304 -0.6591
10972SOL     OW33509   1.186   4.862   6.580  0.5493 -0.1120 -0.3143
10972SOL    HW133510   1.113   4.801   6.577  0.5715 -0.1809  0.5148
10972SOL    HW233511   1.264   4.807   6.581  0.5684 -0.0740  0.4694
10973SOL     OW33512   1.938   4.729   1.252  0.7939 -0.1653  0.3520
10973SOL    HW133513   2.024   4.705   1.218  0.6994 -1.4478  0.9748
10973SOL    HW233514   1.903   4.791   1.188  1.4478 -0.9836 -0.8112
10974SOL     OW33515   0.536   5.312   0.994  0.3724 -0.4506 -0.5685
10974SOL    HW133516   0.548   5.230   1.043  2.8806  0.7957  1.0078
10974SOL    HW233517   0.489   5.369   1.055  0.1277 -0.1524 -1.0386
10975SOL     OW33518   0.232   0.145   2.853  0.2740  0.1637  0.2574
10975SOL    HW133519   0.319   0.159   2.817  0.5822 -0.8624  0.5743
10975SOL    HW233520   0.231   0.195   2.935  0.6285  0.0165  0.3500
10976SOL     OW33521   5.674   3.448   0.332  0.4613 -0.1561  0.3487
10976SOL    HW133522   5.644   3.357   0.332  0.1250 -0.0748 -1.5965
10976SOL    HW233523   5.728   3.456   0.410 -1.4874 -1.3492  1.8626
10977SOL     OW33524   0.980   1.362   3.378  0.4515 -0.0240  0.1974
10977SOL    HW133525   1.057   1.380   3.432  0.1196  0.2378  0.5851
10977SOL    HW233526   0.994   1.413   3.298  0.4972  0.3215  0.4252
10978SOL     OW33527   1.059   2.388   6.743 -0.6715 -0.0948 -0.6538
10978SOL    HW133528   1.139   2.438   6.759 -0.9739 -0.3562  1.8219
10978SOL    HW233529   1.067   2.359   6.652  1.6909  0.5051 -0.6695
10979SOL     OW33530   0.007   5.673   5.957 -0.8377 -0.2035  0.2254
10979SOL    HW133531   0.086   5.713   5.919 -0.5692  0.7254  1.7300
10979SOL    HW233532   0.039   5.625   6.033 -1.4203 -1.7783 -0.5043
10980SOL     OW33533   1.386   7.159   6.560  0.2585 -0.1299  0.1341
10980SOL    HW133534   1.372   7.153   6.654  0.1954  1.5339  0.2571
10980SOL    HW233535   1.474   7.197   6.551 -0.4236  1.3730 -0.4220
10981SOL     OW33536   6.722   2.492   4.492  0.0855  0.2360  0.8557
10981SOL    HW133537   6.781   2.567   4.503 -0.6305  0.9669 -0.1014
10981SOL    HW233538   6.777   2.424   4.453  0.4635  0.6852  0.5920
10982SOL     OW33539   0.437   0.726   1.744 -0.1657  0.2011  0.3399
10982SOL    HW133540   0.409   0.770   1.824  0.3359 -0.0286  0.6456
10982SOL    HW233541   0.375   0.756   1.677 -2.0197 -1.4305  1.2938
10983SOL     OW33542   1.265   0.572   2.705  0.3245  0.0244  0.0721
10983SOL    HW133543   1.356   0.550   2.691  0.6507  1.3167  0.0443
10983SOL    HW233544   1.221   0.546   2.625  0.9030  0.5728 -0.4323
10984SOL     OW33545   3.193   5.770   3.816 -0.1743 -0.5081  0.5051
10984SOL    HW133546   3.237   5.854   3.801  0.1854 -0.7397  0.2684
10984SOL    HW233547   3.245   5.706   3.767 -0.6013 -0.8294  0.4665
10985SOL     OW33548   3.614   4.153   4.170  0.2307 -0.4560 -0.0138
10985SOL    HW133549   3.667   4.167   4.092  0.4699 -0.9652  0.0577
10985SOL    HW233550   3.571   4.068   4.155  1.1405 -1.0830  0.9043
10986SOL     OW33551   1.635   5.097   3.336 -0.3820  0.7134  0.2475
10986SOL    HW133552   1.586   5.137   3.264  0.3220  1.6142  0.2646
10986SOL    HW233553   1.642   5.166   3.402 -0.9744 -0.0839  1.1698
10987SOL     OW33554   1.362   1.124   4.618  0.0327  0.1044 -0.1305
10987SOL    HW133555   1.386   1.170   4.699 -0.2629  2.4531 -1.3243
10987SOL    HW233556   1.268   1.137   4.610 -0.7572 -3.8674  1.3564
10988SOL     OW33557   2.333   1.608   0.874 -0.2748 -0.1190  0.1540
10988SOL    HW133558   2.270   1.551   0.918 -1.0804  1.4188  1.0310
10988SOL    HW233559   2.375   1.658   0.944 -1.3030  2.0962 -0.7560
10989SOL     OW33560   4.673   2.708   4.299 -0.3428 -0.2875  0.2025
10989SOL    HW133561   4.610   2.723   4.228 -0.6162 -1.4846  0.1814
10989SOL    HW233562   4.650   2.622   4.333  3.2204 -2.1154 -1.7671
10990SOL     OW33563   5.533   6.861   2.234 -0.2371  0.8492  0.2655
10990SOL    HW133564   5.597   6.867   2.305 -1.1295  3.1215  0.9561
10990SOL    HW233565   5.584   6.844   2.156  0.9451  0.0033  1.2138
10991SOL     OW33566   0.606   1.379   5.664  0.0999  0.5260 -0.4867
10991SOL    HW133567   0.517   1.387   5.699  0.4307  1.7692  0.0672
10991SOL    HW233568   0.594   1.386   5.569 -0.3861  0.7128 -0.4157
10992SOL     OW33569   6.526   6.308   3.598  0.1476 -0.4683 -0.1126
10992SOL    HW133570   6.606   6.358   3.612 -1.4838  2.6142 -1.3020
10992SOL    HW233571   6.535   6.232   3.656  3.3361  0.4321  0.6950
10993SOL     OW33572   2.240   7.246   3.585 -0.8699  0.2749  0.0285
10993SOL    HW133573   2.255   7.186   3.658 -1.6829  0.7747  0.6149
10993SOL    HW233574   2.146   7.259   3.583 -0.6400  2.2227  0.4903
10994SOL     OW33575   5.693   3.107   3.080 -0.4490 -0.2129  0.2035
10994SOL    HW133576   5.646   3.156   3.148  0.2669  0.1288  0.4612
10994SOL    HW233577   5.657   3.018   3.086 -0.4775 -0.1587  0.9535
10995SOL     OW33578   2.010   5.412   6.216 -0.1253 -0.3008  0.4063
10995SOL    HW133579   2.015   5.462   6.298  0.2573  1.2664 -0.5430
10995SOL    HW233580   1.917   5.415   6.193  0.1525  1.6194 -0.6031
10996SOL     OW33581   6.908   0.172   3.062  0.3729  0.1516 -0.7641
10996SOL    HW133582   6.826   0.215   3.087  0.2153 -0.1381 -0.7821
10996SOL    HW233583   6.889   0.131   2.977  0.8418  0.9525 -1.2707
10997SOL     OW33584   4.995   6.509   4.722 -0.4395 -0.0944 -0.0209
10997SOL    HW133585   5.029   6.465   4.644 -0.9904 -0.5663  0.0025
10997SOL    HW233586   4.968   6.596   4.691 -0.5887 -0.2527 -0.3391
10998SOL     OW33587   6.517   5.512   2.682  0.5314  0.1195 -0.7123
10998SOL    HW133588   6.556   5.448   2.622 -1.1383 -1.0674 -0.5665
10998SOL    HW233589   6.431   5.529   2.645 -0.5342 -0.6307  1.3427
10999SOL     OW33590   2.728   3.478   5.786  0.6866  0.0459  0.0445
10999SOL    HW133591   2.749   3.386   5.805 -2.1209 -1.1696 -2.2564
10999SOL    HW233592   2.748   3.488   5.693 -2.4703  0.6686 -0.6229
11000SOL     OW33593   5.055   6.411   2.059  0.2740 -0.0858  0.5045
11000SOL    HW133594   5.072   6.361   1.980  0.7214  0.4811  0.2409
11000SOL    HW233595   5.132   6.396   2.114  0.7938  0.9548  0.0888
11001SOL     OW33596   1.616   4.505   0.291  0.3566  0.1048 -0.1922
11001SOL    HW133597   1.544   4.498   0.354  0.5542 -0.0329  0.0198
11001SOL    HW233598   1.653   4.417   0.287 -0.7021 -0.2948 -1.7497
11002SOL     OW33599   1.860   6.328   6.434 -0.5823  0.2378 -0.5413
11002SOL    HW133600   1.780   6.359   6.390  0.1652  1.1349 -1.2712
11002SOL    HW233601   1.905   6.408   6.461  0.1458 -0.2654 -0.2642
11003SOL     OW33602   1.805   0.728   4.197  0.0124  0.2389 -0.1140
11003SOL    HW133603   1.735   0.666   4.216 -0.7473  1.1333  0.0633
11003SOL    HW233604   1.788   0.756   4.107  0.2950  0.2595 -0.1604
11004SOL     OW33605   4.802   0.365   3.774 -0.8400  0.2560  0.7888
11004SOL    HW133606   4.869   0.398   3.714 -0.7698  0.4261  0.9599
11004SOL    HW233607   4.742   0.316   3.719 -0.2180 -0.4411  0.7305
11005SOL     OW33608   2.282   5.315   0.466  0.4976 -0.5338 -0.0772
11005SOL    HW133609   2.271   5.323   0.372 -2.3398 -1.2901  0.1396
11005SOL    HW233610   2.371   5.346   0.483  0.7272  0.4552 -2.8769
11006SOL     OW33611   4.807   2.810   1.019 -0.0020 -0.0187 -0.2663
11006SOL    HW133612   4.738   2.844   0.961  0.0204  1.2963  0.4414
11006SOL    HW233613   4.886   2.856   0.991  0.3111 -0.5021 -0.1771
11007SOL     OW33614   0.398   0.427   4.615 -0.5056  0.3159  0.8209
11007SOL    HW133615   0.402   0.446   4.709 -1.7369 -0.1441  0.9860
11007SOL    HW233616   0.317   0.376   4.605  0.2922 -0.7447 -0.2980
11008SOL     OW33617   4.211   2.971   4.332  0.3202 -0.6513  0.2530
11008SOL    HW133618   4.306   2.969   4.336  0.2359 -0.6681  2.8407
11008SOL    HW233619   4.185   2.880   4.318  0.5890 -1.1989  3.0446
11009SOL     OW33620   5.535   0.857   6.195 -0.1526  0.0193  0.3265
11009SOL    HW133621   5.469   0.842   6.127  0.6435  0.0939 -0.4770
11009SOL    HW233622   5.489   0.906   6.263 -0.4669  1.6378 -1.0308
11010SOL     OW33623   5.978   5.998   5.173 -0.1369 -0.7623 -0.2393
11010SOL    HW133624   5.948   5.986   5.083  1.1588 -0.7169 -0.6820
11010SOL    HW233625   5.986   6.093   5.183  0.9262 -0.8236 -0.4785
11011SOL     OW33626   1.709   5.850   4.538 -0.1195 -0.1356  0.7357
11011SOL    HW133627   1.643   5.839   4.605 -0.5414 -1.2916  0.1427
11011SOL    HW233628   1.724   5.762   4.503 -0.4352  0.5331 -1.1680
11012SOL     OW33629   0.615   6.358   1.385  0.0219  0.2838  0.0503
11012SOL    HW133630   0.594   6.428   1.446  2.5835  0.5450  0.7187
11012SOL    HW233631   0.705   6.377   1.358  0.2201 -1.9077 -0.9153
11013SOL     OW33632   0.756   3.203   1.202  0.1822  0.0235  0.4979
11013SOL    HW133633   0.763   3.262   1.127  2.0875 -0.2406  0.4600
11013SOL    HW233634   0.745   3.116   1.162 -1.9941  0.2355  0.5545
11014SOL     OW33635   6.432   2.819   2.487  0.2192  0.0348  0.3996
11014SOL    HW133636   6.388   2.735   2.474  0.9247 -0.1549 -0.9077
11014SOL    HW233637   6.370   2.884   2.455  0.5597 -0.1710 -0.6970
11015SOL     OW33638   3.570   6.708   0.369  0.2071 -0.2668  0.4593
11015SOL    HW133639   3.597   6.800   0.365 -0.4557 -0.1311 -1.6532
11015SOL    HW233640   3.529   6.699   0.455 -0.1683  1.5549  0.4939
11016SOL     OW33641   4.515   3.125   0.860 -0.6386 -0.0403  0.3740
11016SOL    HW133642   4.540   3.211   0.828  0.2795  0.1472  1.5698
11016SOL    HW233643   4.511   3.135   0.955  0.4471 -1.5750  0.5931
11017SOL     OW33644   6.608   6.607   4.869  0.1579 -0.1658  0.2062
11017SOL    HW133645   6.701   6.614   4.845  0.4434 -0.1943  1.2833
11017SOL    HW233646   6.565   6.579   4.789  0.9875  0.4979 -0.4902
11018SOL     OW33647   1.623   6.227   5.709  0.5988 -0.6762  0.1115
11018SOL    HW133648   1.684   6.296   5.734 -0.2907  0.4246 -0.7180
11018SOL    HW233649   1.627   6.164   5.781  1.5509  0.1431  0.7834
11019SOL     OW33650   4.459   2.709   6.951  0.1318 -0.3138  0.6013
11019SOL    HW133651   4.543   2.671   6.926  0.2644 -0.8612  1.8269
11019SOL    HW233652   4.459   2.796   6.911  1.5203 -0.0865  1.0785
11020SOL     OW33653   3.236   6.879   3.549  0.5457  0.2154 -0.0072
11020SOL    HW133654   3.164   6.825   3.579  2.0453 -0.9861  1.5551
11020SOL    HW233655   3.242   6.863   3.455  1.0529 -2.4480  0.4581
11021SOL     OW33656   2.376   3.518   0.144 -0.1260 -0.3511  0.0383
11021SOL    HW133657   2.400   3.544   0.055 -1.4240  0.1824 -0.1524
11021SOL    HW233658   2.351   3.600   0.187  1.4970 -0.4454  1.2269
11022SOL     OW33659   7.045   3.183   3.211  0.4214 -0.1407  0.3200
11022SOL    HW133660   6.953   3.171   3.186  0.4176 -0.3854  0.4590
11022SOL    HW233661   7.090   3.105   3.178  0.4809 -0.2939  0.7696
11023SOL     OW33662   3.367   0.687   1.562  0.0302  0.3681  0.3178
11023SOL    HW133663   3.427   0.755   1.529  0.7372 -0.0041  0.8209
11023SOL    HW233664   3.292   0.692   1.503  0.5846  0.7938 -0.3808
11024SOL     OW33665   0.034   6.721   3.128  0.0819 -0.1390  0.1803
11024SOL    HW133666  -0.055   6.694   3.152  0.1526 -0.1168  0.4669
11024SOL    HW233667   0.025   6.757   3.039  0.0319 -1.3320 -0.3049
11025SOL     OW33668   7.216   4.753   6.739  0.5777 -0.0273  0.2247
11025SOL    HW133669   7.132   4.744   6.784  0.3476  1.1156  0.0378
11025SOL    HW233670   7.249   4.839   6.765  1.5567 -0.3450  0.0653
11026SOL     OW33671   4.485   1.676   2.282  0.5513  0.1354 -0.0817
11026SOL    HW133672   4.444   1.591   2.264  2.7408 -0.8241 -0.7290
11026SOL    HW233673   4.472   1.727   2.202  0.3293 -0.0187 -0.1451
11027SOL     OW33674   6.790   5.861   4.989  0.1724  0.6679 -0.0310
11027SOL    HW133675   6.777   5.769   5.012  0.0484  0.6633 -0.1194
11027SOL    HW233676   6.822   5.859   4.899  0.6075  0.6888  0.1234
11028SOL     OW33677   0.781   6.448   3.470 -0.5042  0.0414  0.1943
11028SOL    HW133678   0.693   6.460   3.506 -0.8968 -0.7034 -0.4619
11028SOL    HW233679   0.801   6.355   3.487  0.4676  0.3928  1.0034
11029SOL     OW33680   5.969   2.466   6.045 -0.4523  0.1235  0.4703
11029SOL    HW133681   6.019   2.541   6.014 -1.2123 -0.4897 -2.4399
11029SOL    HW233682   6.031   2.414   6.095  0.9924  0.9554 -0.4262
11030SOL     OW33683   3.977   6.990   6.215 -0.2131 -0.1934  0.2754
11030SOL    HW133684   3.921   6.921   6.251 -0.1458 -0.0327  0.6869
11030SOL    HW233685   3.969   6.980   6.120 -1.1091 -0.0319  0.3332
11031SOL     OW33686   3.812   1.132   6.507  0.1143 -0.1790  1.4506
11031SOL    HW133687   3.877   1.182   6.459 -2.1054  0.8809 -0.5832
11031SOL    HW233688   3.815   1.167   6.596  0.2992  1.9240  0.6565
11032SOL     OW33689   0.235   5.255   1.454  0.6348  0.1304 -0.5494
11032SOL    HW133690   0.302   5.191   1.475  1.5390  0.5644 -2.0522
11032SOL    HW233691   0.168   5.205   1.407  1.3466  0.2807 -1.7354
11033SOL     OW33692   6.020   1.943   2.878  0.3123 -0.3049 -0.0897
11033SOL    HW133693   6.065   1.862   2.905  1.7441  0.6061  0.3177
11033SOL    HW233694   6.003   1.989   2.960  0.3847  0.2590 -0.3917
11034SOL     OW33695   1.313   3.356   6.521  0.6423  0.3154  0.8104
11034SOL    HW133696   1.375   3.420   6.556 -0.2082  1.3503  0.4308
11034SOL    HW233697   1.244   3.408   6.480  0.5108 -0.8472 -0.5074
11035SOL     OW33698   3.998   2.956   1.152  0.2256  0.0289 -0.2800
11035SOL    HW133699   3.973   2.947   1.244 -0.6374 -0.5051 -0.5699
11035SOL    HW233700   3.922   2.996   1.110 -0.4722 -2.2907 -1.3017
11036SOL     OW33701   1.494   1.721   1.358  0.1225  0.1591 -0.8572
11036SOL    HW133702   1.502   1.796   1.299  0.9063 -1.0786 -2.3626
11036SOL    HW233703   1.406   1.728   1.395  0.3281  2.0126 -0.6994
11037SOL     OW33704   4.978   4.787   5.210  0.0525  0.2795 -0.2526
11037SOL    HW133705   4.976   4.862   5.151  0.2447  0.2273 -0.3285
11037SOL    HW233706   5.005   4.823   5.294 -2.6855  0.7830  0.4671
11038SOL     OW33707   3.317   4.415   4.776  0.2421 -0.7250 -0.1144
11038SOL    HW133708   3.277   4.477   4.716 -0.8417 -1.0554  0.2584
11038SOL    HW233709   3.371   4.469   4.834 -2.1106  0.0934  1.3557
11039SOL     OW33710   6.483   5.032   5.010  0.0910 -0.3490 -0.3177
11039SOL    HW133711   6.396   4.992   5.002  0.3131 -0.6814 -1.1348
11039SOL    HW233712   6.544   4.958   5.001  0.5037  0.1677 -1.7516
11040SOL     OW33713   0.693   3.789   6.961  0.5987  0.0515  0.8545
11040SOL    HW133714   0.730   3.806   6.874 -1.0760 -0.6542 -0.0236
11040SOL    HW233715   0.652   3.872   6.986  0.6936  0.1208  0.7823
11041SOL     OW33716   1.779   1.313   5.556 -0.0450  0.6419  0.2952
11041SOL    HW133717   1.816   1.351   5.476  1.4694 -0.1074  0.6436
11041SOL    HW233718   1.769   1.220   5.536 -2.9469  0.9976 -0.2437
11042SOL     OW33719   3.177   7.247   4.990 -0.4338  0.0678  0.6311
11042SOL    HW133720   3.211   7.326   5.032 -1.1708  1.1323 -0.7358
11042SOL    HW233721   3.177   7.268   4.896 -1.5016 -1.2174  0.3280
11043SOL     OW33722   7.179   4.087   0.096  0.4845 -0.5645  0.0913
11043SOL    HW133723   7.269   4.117   0.111  0.4497 -1.0839  1.4055
11043SOL    HW233724   7.125   4.143   0.152 -0.3896  1.8539 -3.0037
11044SOL     OW33725   3.851   5.442   3.552  0.4022 -0.2795  0.0373
11044SOL    HW133726   3.916   5.418   3.485  0.3868 -0.4564  0.0842
11044SOL    HW233727   3.806   5.360   3.571  3.5350 -1.3128  3.6268
11045SOL     OW33728   3.200   1.219   1.166  0.6773 -0.5298  0.2902
11045SOL    HW133729   3.281   1.270   1.163  1.8616 -2.2527  1.6391
11045SOL    HW233730   3.224   1.139   1.214 -1.9068 -0.9049  1.0488
11046SOL     OW33731   1.771   6.374   6.055  0.3644  0.1873 -0.4404
11046SOL    HW133732   1.707   6.303   6.052  1.6356 -0.9302 -2.4582
11046SOL    HW233733   1.855   6.331   6.066  1.1517  1.3710 -1.6569
11047SOL     OW33734   6.980   2.141   2.666 -0.0914  0.0998  0.0897
11047SOL    HW133735   7.044   2.201   2.704  1.0714 -1.2809  0.3690
11047SOL    HW233736   6.904   2.146   2.725 -0.5236  2.2464 -0.6156
11048SOL     OW33737   6.622   4.652   0.523  0.4988  0.0791 -0.9538
11048SOL    HW133738   6.586   4.565   0.511  0.2919  0.2038 -1.2459
11048SOL    HW233739   6.567   4.709   0.469 -0.2668  0.6047  0.3511
11049SOL     OW33740   4.096   5.327   2.521 -0.5239  0.1600  0.7298
11049SOL    HW133741   4.113   5.234   2.509 -1.3467  0.0554  0.2869
11049SOL    HW233742   4.079   5.360   2.433 -0.8626  0.5977  0.9542
11050SOL     OW33743   1.605   3.678   5.861  0.2463 -0.6562  0.2059
11050SOL    HW133744   1.526   3.649   5.815  0.5050 -1.3337  0.1844
11050SOL    HW233745   1.573   3.709   5.946 -0.2617  0.8360 -0.5112
11051SOL     OW33746   4.688   2.033   3.527  0.1137  0.3444 -0.0299
11051SOL    HW133747   4.723   1.945   3.538  0.0888  0.6107  2.3517
11051SOL    HW233748   4.766   2.089   3.516  0.0873 -0.1190 -3.0525
11052SOL     OW33749   6.263   3.012   4.262 -0.2649 -0.4731  0.4531
11052SOL    HW133750   6.252   3.082   4.198  0.2978 -0.4924  0.3329
11052SOL    HW233751   6.174   2.985   4.284 -0.5181  1.1859  1.5001
11053SOL     OW33752   4.885   5.900   4.607 -0.5990 -0.4791 -0.4396
11053SOL    HW133753   4.862   5.948   4.686  1.4421 -2.8216  1.6562
11053SOL    HW233754   4.811   5.840   4.593 -0.3937 -0.9331  0.4225
11054SOL     OW33755   5.589   6.722   1.998  0.1556  0.5467 -0.5493
11054SOL    HW133756   5.557   6.632   1.999 -0.8640  0.9114  1.6782
11054SOL    HW233757   5.515   6.773   1.966  0.8363  0.5748 -2.1116
11055SOL     OW33758   4.586   0.182   6.379  0.1435  0.0382  0.5840
11055SOL    HW133759   4.496   0.163   6.404  0.3938 -1.0531  0.6820
11055SOL    HW233760   4.640   0.137   6.444  0.7876 -1.9327 -1.2239
11056SOL     OW33761   2.765   5.472   3.008 -0.1679  0.0986 -0.8567
11056SOL    HW133762   2.840   5.519   2.971 -0.3311  0.2513 -0.9969
11056SOL    HW233763   2.709   5.542   3.045 -0.8824  0.0959 -1.9203
11057SOL     OW33764   1.286   6.791   6.053 -0.0988  0.2669  0.0940
11057SOL    HW133765   1.301   6.699   6.076 -0.4645  0.8566  2.9639
11057SOL    HW233766   1.324   6.801   5.966  1.4113 -2.2006  0.4230
11058SOL     OW33767   1.547   4.378   3.240 -0.0900 -0.0237 -0.1149
11058SOL    HW133768   1.589   4.460   3.262  2.8669 -1.0466 -1.7433
11058SOL    HW233769   1.525   4.385   3.147  0.8067 -1.3083 -0.4445
11059SOL     OW33770   5.370   6.800   6.113 -0.1587 -0.5041 -0.5171
11059SOL    HW133771   5.384   6.838   6.200 -2.3295  0.2891 -0.4946
11059SOL    HW233772   5.378   6.874   6.053  1.0754 -1.0064 -0.9784
11060SOL     OW33773   4.472   5.781   0.067 -0.5247  0.1999  0.0594
11060SOL    HW133774   4.441   5.866   0.099 -0.8265 -0.1777  0.7961
11060SOL    HW233775   4.544   5.758   0.127  0.9849  0.9244 -1.4491
11061SOL     OW33776   6.270   5.165   4.668  0.7583 -0.4097  0.1933
11061SOL    HW133777   6.267   5.170   4.573  1.1571 -0.6165  0.1726
11061SOL    HW233778   6.362   5.153   4.690  0.7654  0.4034  0.6419
11062SOL     OW33779   1.803   2.864   7.016 -0.2174  0.1364 -0.1192
11062SOL    HW133780   1.721   2.832   7.053 -0.4327  2.3593  1.4206
11062SOL    HW233781   1.866   2.794   7.034 -1.1247 -0.3403  1.3156
11063SOL     OW33782   1.952   4.151   0.123 -0.0972  0.2515 -0.1738
11063SOL    HW133783   1.909   4.069   0.097  0.2856 -0.4583  1.4070
11063SOL    HW233784   2.042   4.126   0.140 -0.0451  0.9601  0.5896
11064SOL     OW33785   5.788   2.379   1.273 -0.4363 -0.1481 -0.4068
11064SOL    HW133786   5.779   2.300   1.328 -0.7247 -0.1041 -0.3874
11064SOL    HW233787   5.720   2.369   1.207 -0.5611  0.1529 -0.3232
11065SOL     OW33788   7.241   5.245   5.042  0.3327 -0.0507 -0.2371
11065SOL    HW133789   7.159   5.209   5.008 -0.0583  0.0734  0.5537
11065SOL    HW233790   7.309   5.203   4.990 -0.0585 -2.5217  1.1610
11066SOL     OW33791   5.893   5.001   1.869 -0.2455 -0.0746  0.0349
11066SOL    HW133792   5.878   4.921   1.919  0.4903 -0.4013 -0.2593
11066SOL    HW233793   5.826   4.999   1.801 -1.3219  0.4239  1.0543
11067SOL     OW33794   5.852   3.823   6.961 -0.1566  0.2889 -0.1581
11067SOL    HW133795   5.934   3.871   6.966  0.6026 -1.0529  0.4852
11067SOL    HW233796   5.804   3.849   7.040  0.7622 -0.8870  0.8176
11068SOL     OW33797   6.277   3.794   1.210 -0.7732  0.1890 -0.1703
11068SOL    HW133798   6.305   3.752   1.129 -1.6933 -0.2768 -0.2556
11068SOL    HW233799   6.344   3.770   1.274 -0.5219 -0.1874 -0.5723
11069SOL     OW33800   5.453   1.742   3.000 -0.2077  0.2018 -0.4092
11069SOL    HW133801   5.460   1.837   3.003 -1.8529  0.3707 -1.6574
11069SOL    HW233802   5.457   1.720   2.907 -2.8611 -0.7081 -0.3377
11070SOL     OW33803   0.127   2.726   6.567 -0.5474  0.6000  0.4480
11070SOL    HW133804   0.195   2.731   6.500 -1.4618 -1.1317 -0.6518
11070SOL    HW233805   0.170   2.683   6.641  0.3565  2.1749  0.8743
11071SOL     OW33806   2.897   6.367   3.927  0.2955 -0.8865 -0.0077
11071SOL    HW133807   2.900   6.435   3.860  0.4348 -0.0302  0.8639
11071SOL    HW233808   2.934   6.289   3.884  0.4430 -0.3293 -0.8992
11072SOL     OW33809   1.129   5.781   4.836 -0.2643  0.2340  0.4426
11072SOL    HW133810   1.068   5.715   4.868  0.3423 -1.3347 -1.5297
11072SOL    HW233811   1.212   5.761   4.879 -0.2973  0.2600  0.5179
11073SOL     OW33812   3.588   1.756   3.060  0.0950  0.1766 -0.1803
11073SOL    HW133813   3.656   1.713   3.112 -0.3247 -0.7380 -0.3749
11073SOL    HW233814   3.510   1.755   3.116  0.0729  0.6458 -0.2023
11074SOL     OW33815   0.001   4.979   3.470 -0.2780  0.6422  0.1308
11074SOL    HW133816   0.027   4.914   3.406 -1.4067  1.7628 -1.5010
11074SOL    HW233817   0.070   4.977   3.536  1.3259  0.0501 -1.5371
11075SOL     OW33818   3.095   3.441   0.820 -0.4739  0.3451  0.4005
11075SOL    HW133819   3.060   3.364   0.864  1.7943 -0.8420  0.2150
11075SOL    HW233820   3.047   3.446   0.737 -1.2664 -0.3182  0.8136
11076SOL     OW33821   4.952   0.961   3.999 -0.1773 -0.5162 -0.1352
11076SOL    HW133822   5.013   0.955   3.925 -0.0120 -0.9206  0.0304
11076SOL    HW233823   4.905   0.878   3.998 -2.2185  0.6295 -1.5329
11077SOL     OW33824   5.878   4.898   3.369 -0.5456 -0.0281 -0.7641
11077SOL    HW133825   5.960   4.947   3.375 -0.1314 -0.8605  0.8490
11077SOL    HW233826   5.816   4.948   3.423 -0.9469  0.3016 -1.5258
11078SOL     OW33827   0.642   2.432   4.752  0.4320 -0.1562 -0.8071
11078SOL    HW133828   0.654   2.387   4.668 -0.2699  2.6860 -2.4952
11078SOL    HW233829   0.705   2.503   4.751  0.1751  0.1183  0.9477
11079SOL     OW33830   4.022   1.305   6.042  0.0364 -0.2798 -0.4128
11079SOL    HW133831   3.997   1.215   6.019  0.6446 -0.2732 -1.1174
11079SOL    HW233832   4.085   1.330   5.974 -0.5703  0.8855 -0.5484
11080SOL     OW33833   3.547   7.048   7.022  0.0282  0.7111  0.8909
11080SOL    HW133834   3.638   7.052   6.991 -0.2146 -0.1343  0.0354
11080SOL    HW233835   3.529   6.954   7.031 -1.6882  0.7251 -1.7809
11081SOL     OW33836   3.580   6.028   1.352  0.5730 -0.0988  0.3029
11081SOL    HW133837   3.565   5.970   1.278  2.5577  0.1999 -0.3601
11081SOL    HW233838   3.522   6.103   1.335  0.6508 -0.2512 -0.6823
11082SOL     OW33839   3.292   3.320   5.293 -0.1018 -0.4097  0.2754
11082SOL    HW133840   3.385   3.299   5.284 -0.7522 -2.6509 -1.6195
11082SOL    HW233841   3.289   3.379   5.368  2.8473 -0.2868  0.3876
11083SOL     OW33842   2.124   1.394   4.732  0.0437  0.5283 -0.5088
11083SOL    HW133843   2.050   1.398   4.672 -0.2742 -0.5014 -0.2055
11083SOL    HW233844   2.149   1.301   4.733 -0.6856  0.3304  1.8135
11084SOL     OW33845   3.752   6.155   5.717 -0.1522  0.8910  0.7779
11084SOL    HW133846   3.662   6.159   5.748 -1.3109 -3.1404 -1.5757
11084SOL    HW233847   3.798   6.105   5.784 -0.9706 -1.5659 -0.4184
11085SOL     OW33848   5.136   1.596   7.209  0.1334  0.0357 -0.3378
11085SOL    HW133849   5.104   1.523   7.157  0.0269 -0.9949  1.1539
11085SOL    HW233850   5.080   1.669   7.184 -1.1321 -0.9043 -0.2851
11086SOL     OW33851   2.550   5.156   2.585  0.4053 -0.3553  0.0815
11086SOL    HW133852   2.541   5.250   2.602 -2.4543 -0.4897 -0.5061
11086SOL    HW233853   2.517   5.144   2.496 -1.2686 -2.1922  0.9020
11087SOL     OW33854   0.156   1.778   1.087 -0.6017  0.0661 -0.1826
11087SOL    HW133855   0.153   1.753   1.179 -1.3033  1.9236  0.3278
11087SOL    HW233856   0.065   1.773   1.058 -0.4326 -0.1530 -0.6838
11088SOL     OW33857   5.864   2.409   1.787  0.4244 -0.1683 -0.2705
11088SOL    HW133858   5.904   2.484   1.830 -0.3780 -0.2321  0.6213
11088SOL    HW233859   5.785   2.391   1.839  0.4296 -1.4095 -0.6732
11089SOL     OW33860   0.238   1.674   7.053 -0.7810  0.2620  0.2743
11089SOL    HW133861   0.320   1.653   7.007 -0.6494 -0.6098  0.8918
11089SOL    HW233862   0.186   1.720   6.988 -0.0928  0.1583 -0.3664
11090SOL     OW33863   5.728   3.260   5.571 -0.4156  0.1645 -0.1038
11090SOL    HW133864   5.675   3.199   5.622 -1.6242  0.0332 -1.4813
11090SOL    HW233865   5.768   3.206   5.503 -0.8898  0.7626 -0.8716
11091SOL     OW33866   7.217   3.995   1.993 -0.1675  1.0801  0.1944
11091SOL    HW133867   7.290   3.954   2.041 -0.2760  0.4611 -0.1616
11091SOL    HW233868   7.161   3.922   1.968 -0.1896  1.4161 -0.7529
11092SOL     OW33869   0.980   4.701   5.894 -0.8992 -0.1382  0.0227
11092SOL    HW133870   1.066   4.664   5.878 -1.0716  0.5482 -2.8706
11092SOL    HW233871   0.925   4.626   5.915 -0.3203 -1.0471 -1.5764
11093SOL     OW33872   3.229   2.949   6.723  0.4997 -0.3902  0.2113
11093SOL    HW133873   3.226   3.034   6.768 -3.0568 -1.0244  1.3346
11093SOL    HW233874   3.267   2.968   6.638  0.4627  2.2137  0.7411
11094SOL     OW33875   0.457   1.937   0.148 -0.2425  0.5246 -0.1220
11094SOL    HW133876   0.506   1.945   0.230  1.6339  0.7221 -1.2361
11094SOL    HW233877   0.388   1.873   0.168 -0.8595  1.8029  2.0770
11095SOL     OW33878   6.213   5.889   2.638 -0.3623 -0.0517  0.0337
11095SOL    HW133879   6.149   5.958   2.625  0.0223  0.1503 -0.8596
11095SOL    HW233880   6.293   5.923   2.597  0.2245 -0.4315  0.8432
11096SOL     OW33881   5.546   1.160   6.161 -0.2554  0.5828  0.6122
11096SOL    HW133882   5.607   1.106   6.210  0.4160  1.0954  0.3455
11096SOL    HW233883   5.515   1.225   6.223  0.5769  1.2178  0.3663
11097SOL     OW33884   4.388   3.740   6.480 -0.0035 -0.2164 -0.3392
11097SOL    HW133885   4.414   3.651   6.459  2.3395  0.4297 -0.3448
11097SOL    HW233886   4.320   3.731   6.547  0.9801 -1.9826  0.4364
11098SOL     OW33887   6.267   2.341   4.631  0.0335 -0.2348  0.5541
11098SOL    HW133888   6.360   2.363   4.643  0.0813 -0.3333  0.3598
11098SOL    HW233889   6.248   2.278   4.700 -0.0479  0.2562  0.9806
11099SOL     OW33890   5.703   6.347   1.285 -0.2825  0.2496 -0.3678
11099SOL    HW133891   5.765   6.348   1.359  2.2739 -0.7324 -2.4304
11099SOL    HW233892   5.634   6.287   1.313  1.7875 -1.8793  0.3543
11100SOL     OW33893   3.369   4.229   1.272 -0.2236 -0.0660  0.0502
11100SOL    HW133894   3.356   4.271   1.357  0.7578  0.3187  0.0193
11100SOL    HW233895   3.311   4.153   1.274 -0.9468  0.4951  0.6701
11101SOL     OW33896   6.329   1.286   2.434 -0.0909 -0.1219 -0.3169
11101SOL    HW133897   6.237   1.287   2.410  0.1482  0.1316 -1.2542
11101SOL    HW233898   6.369   1.223   2.374 -0.0788 -2.1515  1.7470
11102SOL     OW33899   6.027   1.690   7.172 -0.0689 -0.6024  0.4835
11102SOL    HW133900   6.072   1.658   7.251  0.6290  2.7078  1.5198
11102SOL    HW233901   5.951   1.738   7.207  0.4777  1.2398 -0.8137
11103SOL     OW33902   1.617   2.275   7.174 -0.5111  0.8811  0.1574
11103SOL    HW133903   1.604   2.265   7.268 -0.6932  0.9400  0.1381
11103SOL    HW233904   1.593   2.190   7.137 -3.6803  1.8730 -0.1725
11104SOL     OW33905   0.370   3.543   1.801  0.5452  0.0943  0.1251
11104SOL    HW133906   0.458   3.535   1.836 -0.1204 -1.8840  1.4083
11104SOL    HW233907   0.313   3.546   1.878 -0.5991  0.4197 -0.7062
11105SOL     OW33908   5.450   0.185   1.327  0.7199 -0.2635  0.0333
11105SOL    HW133909   5.392   0.121   1.367 -0.2713  0.0046 -0.9620
11105SOL    HW233910   5.504   0.135   1.266 -1.5178  0.1418 -2.3396
11106SOL     OW33911   1.590   1.827   3.851 -0.1670 -0.2646 -0.4190
11106SOL    HW133912   1.624   1.755   3.797  0.2403 -0.3144 -0.0989
11106SOL    HW233913   1.530   1.874   3.793  1.2114  0.4172 -1.3193
11107SOL     OW33914   1.789   1.785   3.246  0.4046 -0.3679 -0.1901
11107SOL    HW133915   1.840   1.704   3.253 -1.4320 -1.5383 -0.1776
11107SOL    HW233916   1.707   1.759   3.206  0.4760  1.8285 -1.8500
11108SOL     OW33917   1.589   3.328   4.307  0.7334 -0.2478 -0.5805
11108SOL    HW133918   1.496   3.322   4.286  0.8385 -0.7127 -0.9434
11108SOL    HW233919   1.593   3.326   4.403  0.4943 -2.6770 -0.5740
11109SOL     OW33920   5.240   3.307   6.223 -0.2497  0.1246  0.8683
11109SOL    HW133921   5.334   3.295   6.238  0.3233  1.4702 -1.4405
11109SOL    HW233922   5.201   3.222   6.246  1.6446 -0.7756  0.8714
11110SOL     OW33923   2.538   1.098   5.270  0.1276  0.3696 -0.0135
11110SOL    HW133924   2.450   1.133   5.286  0.7709  1.5741  0.8940
11110SOL    HW233925   2.527   1.003   5.280 -1.3000  0.4012 -1.0368
11111SOL     OW33926   6.957   3.633   6.855  0.1496 -0.0593 -0.3019
11111SOL    HW133927   6.966   3.547   6.897 -0.7131  0.0202  0.0473
11111SOL    HW233928   6.917   3.613   6.770  0.0733 -0.0100 -0.2766
11112SOL     OW33929   0.726   0.374   5.746  0.0094 -0.1385  0.2868
11112SOL    HW133930   0.716   0.311   5.818  0.0657 -3.2110 -2.2669
11112SOL    HW233931   0.817   0.363   5.717 -0.6939 -0.7103 -1.7710
11113SOL     OW33932   4.421   0.039   5.487  0.0262 -0.4930 -0.5037
11113SOL    HW133933   4.516   0.028   5.484 -0.2244 -2.6832 -1.5527
11113SOL    HW233934   4.401   0.052   5.580  1.3338 -0.1195 -0.2668
11114SOL     OW33935   4.229   6.189   0.670 -0.2663  0.3484  0.0235
11114SOL    HW133936   4.260   6.209   0.581 -0.1331  1.1486  0.2527
11114SOL    HW233937   4.147   6.237   0.679  1.2937  2.8016  1.4483
11115SOL     OW33938   1.061   6.531   2.253  0.0296 -0.0513 -0.4041
11115SOL    HW133939   1.142   6.570   2.218  1.1998 -1.0447  1.1455
11115SOL    HW233940   1.053   6.569   2.341 -2.0505  1.2399 -1.1252
11116SOL     OW33941   7.043   6.358   0.702 -0.5591 -0.0784 -0.5267
11116SOL    HW133942   7.038   6.446   0.665  1.7332 -0.0053 -0.7825
11116SOL    HW233943   7.014   6.368   0.792 -0.3278  0.9482 -0.5553
11117SOL     OW33944   3.702   6.110   6.376  0.0599  0.4703  0.0668
11117SOL    HW133945   3.758   6.184   6.400  0.2010  0.5531 -0.5139
11117SOL    HW233946   3.762   6.036   6.366 -0.1169  0.1995  0.9571
11118SOL     OW33947   1.401   2.747   6.745  0.0781  0.1443 -0.4629
11118SOL    HW133948   1.419   2.772   6.654  0.3799  0.0996 -0.4159
11118SOL    HW233949   1.351   2.820   6.781 -0.7586 -0.2017 -0.9097
11119SOL     OW33950   3.518   5.477   3.426 -0.2672 -0.1034 -0.1031
11119SOL    HW133951   3.489   5.529   3.351 -0.5072 -0.4261 -0.2343
11119SOL    HW233952   3.613   5.483   3.424 -0.3283  1.4189  0.6485
11120SOL     OW33953   0.831   3.943   3.141 -0.3303 -0.9957  0.0783
11120SOL    HW133954   0.895   4.007   3.173 -1.0569  0.2068 -0.8897
11120SOL    HW233955   0.747   3.974   3.174 -0.3767 -2.8921  1.8385
11121SOL     OW33956   1.689   2.709   6.752 -0.2675 -0.2164  0.0891
11121SOL    HW133957   1.722   2.787   6.796  0.1961  0.9208 -2.1974
11121SOL    HW233958   1.597   2.705   6.778 -0.6857  1.9524 -0.9232
11122SOL     OW33959   3.136   1.094   4.998 -0.2498  0.5968  0.1488
11122SOL    HW133960   3.185   1.060   4.923 -2.5139 -3.4074  0.3291
11122SOL    HW233961   3.087   1.169   4.963  1.0223  0.6243 -1.6286
11123SOL     OW33962   2.213   5.074   2.099  0.2959  0.0390 -0.0732
11123SOL    HW133963   2.137   5.113   2.056  0.1939  0.4273  0.4556
11123SOL    HW233964   2.204   4.980   2.084 -2.0011 -0.2357  2.7352
11124SOL     OW33965   2.347   4.014   5.342 -0.6630  0.3003  0.4204
11124SOL    HW133966   2.319   4.080   5.279  0.4538 -0.7798 -1.2341
11124SOL    HW233967   2.434   4.044   5.371  1.3590 -2.0670 -2.8274
11125SOL     OW33968   7.257   4.346   1.765 -0.5922  0.0784  0.0605
11125SOL    HW133969   7.351   4.333   1.776 -0.8363 -0.9506  1.0959
11125SOL    HW233970   7.249   4.410   1.695  0.8695 -0.1117 -0.2883
11126SOL     OW33971   3.134   5.856   4.657  0.0065 -0.3143 -0.1185
11126SOL    HW133972   3.085   5.774   4.654 -0.1187 -0.2076 -1.4635
11126SOL    HW233973   3.083   5.916   4.602 -0.1014  0.7862  1.1420
11127SOL     OW33974   3.262   0.574   5.724  0.1882  0.0785  0.7028
11127SOL    HW133975   3.240   0.621   5.643  0.4396 -0.9928 -0.0040
11127SOL    HW233976   3.338   0.521   5.700 -1.1305 -1.9853  0.9983
11128SOL     OW33977   7.242   1.542   5.136 -0.1928  0.3979 -0.0326
11128SOL    HW133978   7.216   1.503   5.053 -0.7122  1.0870 -0.1975
11128SOL    HW233979   7.194   1.625   5.140 -0.2311  0.3366  0.9863
11129SOL     OW33980   6.369   1.731   0.137  0.1234  0.1807  0.6554
11129SOL    HW133981   6.439   1.773   0.087 -0.0092  0.7742  0.9648
11129SOL    HW233982   6.359   1.786   0.215  0.7426 -1.0798  1.6340
11130SOL     OW33983   1.269   3.663   0.068  0.3976 -0.1427 -0.4125
11130SOL    HW133984   1.238   3.738   0.018 -0.1667  0.1014  0.2994
11130SOL    HW233985   1.193   3.605   0.076  0.8427 -0.8298 -1.0105
11131SOL     OW33986   5.944   2.042   5.161 -0.0418 -0.6026  0.2776
11131SOL    HW133987   5.905   2.086   5.236 -1.3832 -1.8036  0.3039
11131SOL    HW233988   6.037   2.035   5.183  0.0762  1.5192  0.5924
11132SOL     OW33989   5.725   1.002   4.736 -0.7291 -0.6914  0.0696
11132SOL    HW133990   5.648   1.057   4.750 -0.0328  0.1015  0.8797
11132SOL    HW233991   5.791   1.038   4.796  0.1464 -1.5927 -0.3431
11133SOL     OW33992   1.957   1.330   5.331 -0.0460  0.1041 -0.3553
11133SOL    HW133993   1.971   1.245   5.288  1.7538  2.2470 -4.2708
11133SOL    HW233994   2.015   1.329   5.407  2.5868 -0.8938 -2.3094
11134SOL     OW33995   2.715   5.808   4.329  0.1720  0.3544  0.1529
11134SOL    HW133996   2.701   5.825   4.236  2.7501 -0.0747 -0.3658
11134SOL    HW233997   2.628   5.806   4.367 -0.8035  3.1820 -1.7747
11135SOL     OW33998   5.763   5.353   3.366 -0.0128  0.1597 -0.1259
11135SOL    HW133999   5.748   5.271   3.320 -0.6855  1.1437 -1.7200
11135SOL    HW234000   5.676   5.381   3.395  0.1986  0.3407  0.3312
11136SOL     OW34001   6.276   3.176   4.065 -0.0397  1.0106 -0.2214
11136SOL    HW134002   6.201   3.235   4.059 -1.0946 -0.1974  0.7459
11136SOL    HW234003   6.282   3.135   3.979 -0.4284  1.1848 -0.3296
11137SOL     OW34004   0.189   5.613   3.670 -0.5774  0.0884  0.1211
11137SOL    HW134005   0.150   5.531   3.641  0.2289 -0.7662  1.4169
11137SOL    HW234006   0.278   5.611   3.633 -0.4773  0.2737  0.3567
11138SOL     OW34007   1.857   1.330   7.149  0.0845  0.3524 -0.3136
11138SOL    HW134008   1.878   1.261   7.212  0.9655  0.7949 -0.1068
11138SOL    HW234009   1.829   1.283   7.070  0.9891 -0.2487 -0.2848
11139SOL     OW34010   2.635   2.483   2.461 -0.1535 -0.1247 -0.0077
11139SOL    HW134011   2.684   2.416   2.507  1.0005  0.1126 -0.8420
11139SOL    HW234012   2.593   2.437   2.388  0.9094  0.0989 -0.7757
11140SOL     OW34013   4.828   5.709   6.012 -0.1174  0.3584 -0.4609
11140SOL    HW134014   4.872   5.776   6.064 -1.2328  1.6654 -1.1485
11140SOL    HW234015   4.864   5.720   5.924  0.4942 -0.6853 -0.3451
11141SOL     OW34016   3.044   1.750   2.874  0.7476 -0.4846  0.2692
11141SOL    HW134017   3.066   1.658   2.859  2.2213  0.1014 -1.3673
11141SOL    HW234018   3.107   1.798   2.821 -1.0609  1.4259 -0.2141
11142SOL     OW34019   0.946   6.675   0.787 -0.0877  0.6084 -0.4753
11142SOL    HW134020   0.953   6.755   0.736 -0.9259  1.3654  0.5752
11142SOL    HW234021   1.035   6.656   0.816 -0.2537  2.5826  1.4124
11143SOL     OW34022   5.411   2.023   7.102 -0.3758 -0.0660 -0.3270
11143SOL    HW134023   5.504   2.004   7.107 -0.5526 -0.8386  0.1320
11143SOL    HW234024   5.406   2.118   7.089  0.4473  0.1102  0.5721
11144SOL     OW34025   3.188   5.107   2.936 -0.5673 -0.6412 -0.3352
11144SOL    HW134026   3.143   5.190   2.923 -1.8618 -1.1067  0.9868
11144SOL    HW234027   3.211   5.107   3.029  0.0043 -1.4754 -0.4711
11145SOL     OW34028   3.312   3.316   1.823 -0.6801 -0.2541 -0.7744
11145SOL    HW134029   3.268   3.301   1.739  0.0540  1.3162 -1.4672
11145SOL    HW234030   3.281   3.403   1.850  0.1214 -0.1867 -0.0698
11146SOL     OW34031   1.606   1.846   4.979  0.1272  0.4362  0.1865
11146SOL    HW134032   1.678   1.784   4.984  0.3250  0.4757 -1.7101
11146SOL    HW234033   1.614   1.886   4.892 -1.8399  0.8387  0.1538
11147SOL     OW34034   4.833   5.715   6.396 -0.4451  0.1205  0.5686
11147SOL    HW134035   4.888   5.736   6.321 -2.6167  1.1910 -0.7848
11147SOL    HW234036   4.838   5.620   6.405  1.6724  0.2051  0.5618
11148SOL     OW34037   6.191   6.180   2.530  0.0899  0.0260 -0.3908
11148SOL    HW134038   6.273   6.204   2.487  0.4376 -0.7781 -0.1676
11148SOL    HW234039   6.186   6.238   2.606  0.3781  0.1685 -0.4790
11149SOL     OW34040   1.497   2.063   5.457 -0.3408  0.4504  0.1838
11149SOL    HW134041   1.470   2.056   5.366  1.0971 -1.0880 -0.1397
11149SOL    HW234042   1.545   2.146   5.461 -0.4908  0.5684 -0.4454
11150SOL     OW34043   1.205   1.645   4.893 -0.3387 -0.0832  0.6442
11150SOL    HW134044   1.165   1.708   4.954 -0.8585 -0.3070  0.5441
11150SOL    HW234045   1.149   1.567   4.900 -0.5137 -0.0468 -0.2516
11151SOL     OW34046   4.610   2.289   4.601 -0.3450  0.0730 -0.5078
11151SOL    HW134047   4.696   2.246   4.604 -0.3836 -0.0714 -1.3766
11151SOL    HW234048   4.549   2.219   4.577 -0.2871  0.7636 -2.8042
11152SOL     OW34049   0.657   4.146   4.993  0.0937  0.0205  0.4648
11152SOL    HW134050   0.593   4.184   5.053 -0.6086  0.1954 -0.3769
11152SOL    HW234051   0.740   4.147   5.041 -0.4175  0.3613  1.3366
11153SOL     OW34052   2.156   0.442   2.261 -0.1158  0.2384  0.1170
11153SOL    HW134053   2.071   0.407   2.234 -0.0226 -0.8543  1.1758
11153SOL    HW234054   2.137   0.491   2.342  0.3541 -0.5869  0.7360
11154SOL     OW34055   2.244   0.249   1.708  0.0933 -0.5934 -0.3689
11154SOL    HW134056   2.311   0.181   1.694  0.1730 -0.4568 -0.6605
11154SOL    HW234057   2.176   0.205   1.758  0.4283 -0.7180 -0.0222
11155SOL     OW34058   1.259   3.563   4.361 -0.1428  0.4352  0.1041
11155SOL    HW134059   1.285   3.650   4.390 -1.1985  0.8506 -0.1591
11155SOL    HW234060   1.213   3.525   4.436  1.4054 -0.3757  0.6441
11156SOL     OW34061   3.195   2.377   3.520  0.2205 -0.9170 -0.1645
11156SOL    HW134062   3.199   2.300   3.577 -0.3843  0.0735  1.2265
11156SOL    HW234063   3.186   2.451   3.579 -0.0215  0.1712 -1.5317
11157SOL     OW34064   6.431   3.598   7.251  0.3753  0.4473  0.0967
11157SOL    HW134065   6.502   3.638   7.302 -0.8491  1.0981  1.3178
11157SOL    HW234066   6.418   3.513   7.293  0.1903  0.4742  0.0910
11158SOL     OW34067   3.167   5.170   7.017 -0.3772  0.0018  0.7530
11158SOL    HW134068   3.079   5.209   7.020 -0.1026  0.5741  1.4201
11158SOL    HW234069   3.208   5.212   6.942  0.4593  2.2008  2.3828
11159SOL     OW34070   2.087   3.419   5.329 -0.3989 -0.3545 -0.1477
11159SOL    HW134071   2.038   3.349   5.370 -1.4384 -0.1619 -1.0364
11159SOL    HW234072   2.104   3.481   5.400 -1.8748 -0.1880  0.0823
11160SOL     OW34073   0.214   1.551   2.573 -0.5681  0.1287 -0.8644
11160SOL    HW134074   0.308   1.535   2.563 -0.4834  0.5707 -0.7700
11160SOL    HW234075   0.209   1.626   2.632 -1.0138 -1.0255  0.6150
11161SOL     OW34076   5.266   5.206   2.618 -0.2112 -0.0426 -0.3752
11161SOL    HW134077   5.208   5.281   2.602  0.4766  0.1286 -2.1404
11161SOL    HW234078   5.208   5.138   2.652 -1.3282  0.3907 -1.3679
11162SOL     OW34079   0.685   0.774   4.200 -0.0119  0.4325 -0.6622
11162SOL    HW134080   0.645   0.817   4.275  0.9409  0.9308 -0.4230
11162SOL    HW234081   0.626   0.792   4.127 -0.5578  0.5804 -0.1801
11163SOL     OW34082   1.216   1.714   3.244 -0.4111  0.3672  0.8760
11163SOL    HW134083   1.233   1.800   3.205 -0.0849 -0.5363 -1.0688
11163SOL    HW234084   1.302   1.683   3.272 -0.7030  1.1937  2.7508
11164SOL     OW34085   5.993   2.180   7.140 -0.2361 -0.1708 -0.2240
11164SOL    HW134086   5.939   2.195   7.218 -0.8048 -0.7168 -0.5059
11164SOL    HW234087   5.938   2.126   7.083  0.2786  0.0024 -0.8919
11165SOL     OW34088   5.303   2.155   3.825  0.7682 -0.1117 -0.0627
11165SOL    HW134089   5.228   2.210   3.804  1.0327 -0.0254 -0.7735
11165SOL    HW234090   5.379   2.201   3.789  0.9592 -1.0637 -0.8941
11166SOL     OW34091   4.248   6.955   4.581 -0.5414  0.0888 -0.7284
11166SOL    HW134092   4.216   6.865   4.574  1.6169 -0.7490 -0.0143
11166SOL    HW234093   4.271   6.965   4.673  0.2004  1.0301 -1.0096
11167SOL     OW34094   5.072   7.183   4.253  0.1041  0.2712  0.7535
11167SOL    HW134095   5.044   7.274   4.255  0.2416  0.4604 -2.5277
11167SOL    HW234096   5.134   7.179   4.180 -0.4513 -2.5608  0.3766
11168SOL     OW34097   5.563   6.431   0.279 -0.5987 -0.2428  0.3923
11168SOL    HW134098   5.497   6.485   0.322 -2.3160 -1.6180 -0.4002
11168SOL    HW234099   5.565   6.350   0.331  2.4887  0.8259  2.0185
11169SOL     OW34100   4.752   6.952   4.527  0.0891  0.0643 -0.5092
11169SOL    HW134101   4.752   7.028   4.468 -1.1921  0.2321 -0.3213
11169SOL    HW234102   4.788   6.881   4.475  0.3305  0.5588 -1.0236
11170SOL     OW34103   4.091   4.289   2.124 -0.1780 -0.5887 -0.1757
11170SOL    HW134104   4.152   4.276   2.051  1.8312  0.5191  1.2575
11170SOL    HW234105   4.112   4.219   2.186 -0.5736 -0.3609  0.2190
11171SOL     OW34106   4.273   3.556   6.240 -0.1177 -0.2083  0.0346
11171SOL    HW134107   4.199   3.555   6.180 -0.6029 -1.2043  0.6287
11171SOL    HW234108   4.324   3.633   6.215 -0.8798 -0.0195 -0.9510
11172SOL     OW34109   0.205   2.710   6.850  0.0482  0.3850 -0.3793
11172SOL    HW134110   0.266   2.734   6.920 -2.1369 -0.8226  2.0205
11172SOL    HW234111   0.166   2.793   6.822 -0.5044  0.6733  1.2196
11173SOL     OW34112   6.434   6.134   4.563  0.6461  0.1687 -0.1730
11173SOL    HW134113   6.339   6.129   4.571  0.5861 -0.6248 -1.2535
11173SOL    HW234114   6.467   6.096   4.644  0.0379 -1.2163 -0.5612
11174SOL     OW34115   6.688   7.016   4.208 -0.5290 -0.4398  0.2806
11174SOL    HW134116   6.603   6.976   4.189 -0.1515 -0.5495 -1.2591
11174SOL    HW234117   6.738   7.005   4.127  0.5244  0.7479  0.7563
11175SOL     OW34118   6.093   6.333   6.312  0.2072 -1.0981  0.5049
11175SOL    HW134119   6.159   6.263   6.311  0.7948 -0.5568  1.1586
11175SOL    HW234120   6.036   6.313   6.237  0.7399 -1.9247  0.3126
11176SOL     OW34121   3.684   4.341   6.389  0.5670 -0.2776 -0.0704
11176SOL    HW134122   3.668   4.301   6.303  0.0619 -0.6096  0.1745
11176SOL    HW234123   3.742   4.415   6.370  0.3488 -0.2637 -0.7176
11177SOL     OW34124   1.637   6.572   2.683 -0.4248  0.5743  0.2570
11177SOL    HW134125   1.716   6.626   2.681  0.5137 -0.7897 -0.7598
11177SOL    HW234126   1.669   6.484   2.703 -1.7532  0.1226  0.4433
11178SOL     OW34127   4.833   4.037   2.440 -0.5449  0.7487  0.0795
11178SOL    HW134128   4.753   3.990   2.418 -1.0163  1.9486 -0.8837
11178SOL    HW234129   4.861   4.001   2.524  0.0221 -2.3476 -1.3810
11179SOL     OW34130   3.222   6.722   1.773  0.3739 -0.3100  0.0387
11179SOL    HW134131   3.261   6.807   1.795  0.5644 -0.2866 -0.3789
11179SOL    HW234132   3.282   6.658   1.809 -0.0912 -0.2622  0.8950
11180SOL     OW34133   6.787   3.053   3.433 -0.2665 -0.0520  0.5060
11180SOL    HW134134   6.787   3.101   3.350  0.2442 -1.8617 -0.5767
11180SOL    HW234135   6.845   3.103   3.490  0.1935  0.6468 -0.5616
11181SOL     OW34136   4.671   6.464   6.688 -0.0664  0.3325  0.3219
11181SOL    HW134137   4.581   6.488   6.711 -0.7176 -0.6356 -1.1983
11181SOL    HW234138   4.713   6.548   6.666 -1.3028  0.5282 -1.3868
11182SOL     OW34139   3.181   0.237   3.331  0.1877  0.0741  0.6589
11182SOL    HW134140   3.105   0.260   3.278  0.4102 -0.3007  0.1792
11182SOL    HW234141   3.232   0.319   3.335 -0.9476  0.7224  2.1812
11183SOL     OW34142   1.057   3.472   1.606  0.1071  0.3207  0.3896
11183SOL    HW134143   1.108   3.437   1.679  0.6486 -0.6850 -0.4685
11183SOL    HW234144   1.112   3.542   1.570 -0.6303  1.5387  1.6084
11184SOL     OW34145   3.191   6.264   6.902  0.3147 -0.2770  0.4243
11184SOL    HW134146   3.225   6.222   6.981  1.6131  0.6885  0.4060
11184SOL    HW234147   3.120   6.208   6.873  1.3656 -1.9198  0.9707
11185SOL     OW34148   6.937   4.599   3.502 -0.2949  0.2935 -0.1300
11185SOL    HW134149   6.961   4.546   3.426 -3.3013  0.0808 -0.9887
11185SOL    HW234150   6.961   4.688   3.478 -1.9327  0.3438 -1.6928
11186SOL     OW34151   2.794   2.787   2.933 -0.6447  0.1563  0.0601
11186SOL    HW134152   2.759   2.755   2.850 -0.1457  1.4825 -0.6689
11186SOL    HW234153   2.768   2.879   2.936 -1.4098 -0.1045  1.7850
11187SOL     OW34154   0.556   3.261   5.528 -0.0046  0.2478 -0.4169
11187SOL    HW134155   0.490   3.248   5.596  0.7291  0.8071  0.4163
11187SOL    HW234156   0.506   3.266   5.447 -0.9254 -0.0460  0.1166
11188SOL     OW34157   6.551   7.024   4.712  0.0542  0.1746 -0.0283
11188SOL    HW134158   6.498   7.061   4.642 -0.5792  1.2818  1.0140
11188SOL    HW234159   6.611   6.963   4.668 -0.4496  0.7241 -1.4891
11189SOL     OW34160   5.673   2.617   0.686  0.0328  0.3735 -0.9453
11189SOL    HW134161   5.635   2.600   0.772  0.3718 -1.1791 -1.0864
11189SOL    HW234162   5.600   2.648   0.633 -0.4188  0.2079 -0.4264
11190SOL     OW34163   0.741   0.486   1.574 -0.5529 -0.6315  0.1595
11190SOL    HW134164   0.827   0.459   1.607  0.0090  0.3133 -0.5017
11190SOL    HW234165   0.754   0.498   1.480 -0.9718  1.2274  0.3324
11191SOL     OW34166   6.770   5.011   0.078  0.0931 -0.3787  0.6533
11191SOL    HW134167   6.827   4.974   0.145  0.1530 -0.7051  0.4264
11191SOL    HW234168   6.703   4.944   0.064  0.8733 -0.9368 -0.6128
11192SOL     OW34169   0.059   2.514   2.607 -0.2970 -0.2274  0.0186
11192SOL    HW134170  -0.030   2.480   2.614 -0.1698 -0.3468  1.1309
11192SOL    HW234171   0.049   2.608   2.619 -0.6009  0.1285 -2.6726
11193SOL     OW34172   1.421   4.538   4.859 -0.2846 -0.1013  0.0486
11193SOL    HW134173   1.328   4.520   4.849 -0.5588  0.5906  1.2217
11193SOL    HW234174   1.446   4.492   4.939 -0.1531  1.5704  1.0004
11194SOL     OW34175   6.534   0.706   2.611 -0.1738 -0.2193  0.6714
11194SOL    HW134176   6.601   0.682   2.547  0.6834  0.3626  1.3380
11194SOL    HW234177   6.453   0.710   2.560  0.4169 -0.2278 -0.2849
11195SOL     OW34178   4.894   6.710   0.668  0.0071  0.1454 -0.4632
11195SOL    HW134179   4.824   6.711   0.602  0.7255  0.8368 -1.2455
11195SOL    HW234180   4.852   6.681   0.748 -0.9089 -0.6536 -1.2175
11196SOL     OW34181   3.371   1.013   1.533  0.2573  0.2815 -0.0841
11196SOL    HW134182   3.379   0.983   1.624 -2.1553 -0.3680 -0.0477
11196SOL    HW234183   3.382   1.108   1.537  0.2543  0.2432  0.8779
11197SOL     OW34184   1.305   4.945   4.776 -0.0767 -0.2029 -0.1168
11197SOL    HW134185   1.257   4.897   4.844  1.7390 -0.2212  1.1995
11197SOL    HW234186   1.283   4.900   4.695 -0.0144 -1.9798  0.8375
11198SOL     OW34187   5.211   0.465   4.055  0.4112  0.0938 -0.0287
11198SOL    HW134188   5.277   0.521   4.095  0.2623  1.2997 -1.4211
11198SOL    HW234189   5.142   0.526   4.028  0.3617 -0.7146 -1.7914
11199SOL     OW34190   4.314   6.760   5.734  0.0421  0.0105  0.1775
11199SOL    HW134191   4.407   6.781   5.727  0.4132 -1.4503  0.4298
11199SOL    HW234192   4.268   6.841   5.711  1.3784  0.8811  0.5543
11200SOL     OW34193   3.100   1.970   7.097 -0.3394 -0.1572  0.2080
11200SOL    HW134194   3.036   1.964   7.168 -0.3024  0.0417  0.2595
11200SOL    HW234195   3.134   1.881   7.087 -0.9470 -0.3574 -0.1193
11201SOL     OW34196   1.130   6.056   1.653 -0.4202 -0.0628  0.0146
11201SOL    HW134197   1.142   6.045   1.747 -0.1204  0.7411  0.0765
11201SOL    HW234198   1.060   5.996   1.630 -0.6555 -0.0890  0.7920
11202SOL     OW34199   0.021   1.579   3.694  0.1262 -0.0334 -0.5236
11202SOL    HW134200   0.103   1.616   3.726 -0.5458  1.3316 -0.3598
11202SOL    HW234201  -0.004   1.634   3.620 -0.3215 -0.8326 -0.9806
11203SOL     OW34202   4.837   5.464   4.387 -0.3607  0.4255  0.4868
11203SOL    HW134203   4.888   5.457   4.306 -2.0925  0.6618 -0.6493
11203SOL    HW234204   4.782   5.386   4.388 -0.9716  0.8619  0.9947
11204SOL     OW34205   1.167   2.024   0.679  0.5033 -0.1981 -0.4749
11204SOL    HW134206   1.125   2.102   0.715 -0.8087 -1.0197 -0.2280
11204SOL    HW234207   1.132   2.017   0.590  1.8737  0.4166 -1.0905
11205SOL     OW34208   3.602   7.197   0.491 -0.1243 -0.1505  0.2273
11205SOL    HW134209   3.646   7.272   0.533  1.0024 -1.1613  0.8807
11205SOL    HW234210   3.553   7.156   0.562  1.5348 -1.6843  0.5173
11206SOL     OW34211   5.027   1.809   0.659 -0.2267 -0.4586  0.0944
11206SOL    HW134212   5.055   1.894   0.695  0.5939 -0.9718  0.6799
11206SOL    HW234213   4.964   1.832   0.591  0.1108  0.6364  0.1334
11207SOL     OW34214   6.994   4.873   3.523  0.0528 -0.0939 -0.1487
11207SOL    HW134215   6.953   4.918   3.597  1.5569  0.7821  0.1644
11207SOL    HW234216   7.083   4.909   3.518  0.5300 -1.3614 -1.3283
11208SOL     OW34217   6.328   3.523   1.800  0.3434 -0.5202 -0.4889
11208SOL    HW134218   6.390   3.536   1.872 -0.8507 -0.7124  0.5860
11208SOL    HW234219   6.297   3.433   1.811 -1.3914  0.1123 -0.0065
11209SOL     OW34220   1.789   5.147   2.784  0.6778  0.5039 -0.7704
11209SOL    HW134221   1.694   5.148   2.784  0.6564  1.4853  1.0356
11209SOL    HW234222   1.813   5.236   2.756  0.9673  1.7087  2.9959
11210SOL     OW34223   3.630   3.723   0.982  0.0149  0.0877 -0.0220
11210SOL    HW134224   3.692   3.732   1.055 -1.1244  2.6148  0.6933
11210SOL    HW234225   3.551   3.769   1.012 -0.4846  1.1794 -2.8543
11211SOL     OW34226   0.149   1.007   6.403  0.5484 -0.1452 -0.1080
11211SOL    HW134227   0.208   1.068   6.448  0.8189 -0.3380 -0.2000
11211SOL    HW234228   0.094   1.062   6.348  0.6456  0.0351 -0.0230
11212SOL     OW34229   6.393   4.690   1.372 -0.0511  0.5868 -0.5813
11212SOL    HW134230   6.362   4.692   1.463 -1.0921 -0.4962 -0.9022
11212SOL    HW234231   6.485   4.717   1.378  0.2189 -0.5504  0.9353
11213SOL     OW34232   2.544   3.503   0.954 -0.3836 -0.4168  0.7433
11213SOL    HW134233   2.450   3.511   0.969 -0.1771  0.1224  1.8078
11213SOL    HW234234   2.555   3.522   0.861 -1.2348  0.3186  0.7883
11214SOL     OW34235   1.098   6.342   0.644  0.0471  0.1388 -0.1630
11214SOL    HW134236   1.151   6.298   0.577 -1.0525  1.8408 -2.1865
11214SOL    HW234237   1.153   6.414   0.674  1.0242 -1.3355  1.6789
11215SOL     OW34238   1.504   0.929   5.781 -0.1188  0.0493 -0.5620
11215SOL    HW134239   1.489   0.929   5.876 -0.7312 -1.8757 -0.6326
11215SOL    HW234240   1.591   0.891   5.771 -0.6034 -1.0144 -0.8253
11216SOL     OW34241   3.238   4.447   0.078 -0.1390 -0.1193  0.3176
11216SOL    HW134242   3.209   4.528   0.119  1.7798  0.1415  1.2400
11216SOL    HW234243   3.291   4.404   0.145  1.5152 -0.5839 -1.2260
11217SOL     OW34244   3.543   3.184   6.988  0.1237  0.0338  0.1743
11217SOL    HW134245   3.516   3.272   6.962  0.3601 -0.3165 -1.2867
11217SOL    HW234246   3.546   3.135   6.906 -3.8214 -2.4103  1.3597
11218SOL     OW34247   2.282   4.515   4.948 -0.5817 -0.1949  0.3261
11218SOL    HW134248   2.229   4.449   4.904  0.0436  0.5238 -1.5683
11218SOL    HW234249   2.224   4.553   5.014 -1.7591 -0.8482 -0.3250
11219SOL     OW34250   0.231   1.434   4.038 -0.5136 -0.5665 -0.2245
11219SOL    HW134251   0.157   1.422   4.096  0.6009 -0.5228  1.2351
11219SOL    HW234252   0.206   1.507   3.981 -1.1642  0.1176  0.9349
11220SOL     OW34253   7.220   5.797   1.630 -0.1863 -0.3108  0.1843
11220SOL    HW134254   7.262   5.734   1.689 -2.2981 -1.4961  0.4828
11220SOL    HW234255   7.248   5.769   1.542  0.4178 -0.4764  0.4214
11221SOL     OW34256   6.430   6.505   2.718 -0.2159 -0.2369 -0.9395
11221SOL    HW134257   6.499   6.552   2.764 -1.0933  1.1689 -1.0425
11221SOL    HW234258   6.473   6.471   2.639  0.1826  1.3097 -1.4064
11222SOL     OW34259   6.755   5.951   2.573 -0.4448 -0.8830  0.4352
11222SOL    HW134260   6.807   5.877   2.603  0.6810 -0.9111 -1.4830
11222SOL    HW234261   6.792   6.026   2.620  0.7829 -1.0282 -0.2684
11223SOL     OW34262   2.021   5.590   6.421 -0.0379  0.3257  0.3246
11223SOL    HW134263   1.949   5.649   6.397 -0.1358  0.3178  0.6044
11223SOL    HW234264   2.079   5.642   6.475  0.3472  0.4307 -0.1849
11224SOL     OW34265   4.452   2.059   4.544  0.6470 -0.1570  0.0397
11224SOL    HW134266   4.404   2.068   4.627  1.5205  1.0162  0.4337
11224SOL    HW234267   4.397   2.102   4.479  0.5391  0.0221  0.2488
11225SOL     OW34268   7.221   5.609   2.989 -0.2051  0.1116 -0.0164
11225SOL    HW134269   7.270   5.618   2.908 -1.7213 -2.8445 -1.3123
11225SOL    HW234270   7.168   5.689   2.994  1.5232  1.3518 -0.7406
11226SOL     OW34271   1.943   1.576   3.830 -0.4844 -0.6628  0.0520
11226SOL    HW134272   1.966   1.519   3.757 -0.1944 -0.5372  0.0443
11226SOL    HW234273   1.850   1.592   3.819 -0.3550 -0.2932 -0.5415
11227SOL     OW34274   2.190   1.025   3.159 -0.1087 -0.1868 -0.0449
11227SOL    HW134275   2.225   1.059   3.077 -0.3308  0.7865  0.2581
11227SOL    HW234276   2.259   1.043   3.224  0.2621 -1.3720 -0.1045
11228SOL     OW34277   4.019   5.242   1.267 -0.2086  0.1329 -0.0691
11228SOL    HW134278   3.978   5.249   1.181 -0.7011 -0.3729  0.1199
11228SOL    HW234279   4.109   5.272   1.254 -0.4102  0.4747 -0.6645
11229SOL     OW34280   2.594   6.577   1.324 -0.3161  0.0480  0.1065
11229SOL    HW134281   2.547   6.556   1.404 -0.4812  0.3553  0.0911
11229SOL    HW234282   2.686   6.574   1.349 -0.3961  1.0815  0.5379
11230SOL     OW34283   2.460   3.170   6.800  0.7060 -0.2842 -0.3410
11230SOL    HW134284   2.454   3.078   6.827  0.6358  0.3772  2.0474
11230SOL    HW234285   2.425   3.171   6.711 -0.1821 -2.4148 -0.0572
11231SOL     OW34286   6.037   2.961   5.579  0.3282  0.0039 -0.0710
11231SOL    HW134287   6.025   2.924   5.492  0.6143  1.3170 -0.6945
11231SOL    HW234288   6.131   2.950   5.597  0.3863  0.2612 -0.1980
11232SOL     OW34289   6.019   4.838   1.045 -0.0686 -0.1408 -0.0308
11232SOL    HW134290   5.933   4.865   1.079  0.3436 -0.7774  1.5609
11232SOL    HW234291   6.078   4.848   1.119  0.6097 -2.7752 -0.1581
11233SOL     OW34292   1.699   6.118   7.116  0.0435  0.0442  0.0780
11233SOL    HW134293   1.780   6.117   7.167  0.8479  1.0567 -1.1642
11233SOL    HW234294   1.644   6.051   7.157  2.1976 -1.9213 -0.1675
11234SOL     OW34295   3.659   3.997   1.794 -0.2707 -0.2168 -0.8433
11234SOL    HW134296   3.570   3.977   1.766  0.3588 -0.5966 -2.6113
11234SOL    HW234297   3.708   4.011   1.713  0.3486  4.2625  0.2043
11235SOL     OW34298   6.136   1.211   5.409  0.1289 -0.7201  0.1335
11235SOL    HW134299   6.225   1.237   5.431  0.1941 -0.4452 -0.4438
11235SOL    HW234300   6.080   1.260   5.469  0.2592  0.6013 -0.8036
11236SOL     OW34301   7.012   2.741   2.252  0.7225 -0.1043  0.3700
11236SOL    HW134302   7.095   2.779   2.223  1.2505 -0.7218  1.0546
11236SOL    HW234303   7.036   2.655   2.286 -0.5055 -1.2470 -1.5488
11237SOL     OW34304   0.450   0.255   5.752  0.7907  0.0520  0.3598
11237SOL    HW134305   0.418   0.297   5.673  0.3256 -0.3622  0.3295
11237SOL    HW234306   0.397   0.294   5.823 -0.0570 -0.9216  0.2658
11238SOL     OW34307   5.209   5.709   2.434 -0.6271  0.1901  0.6509
11238SOL    HW134308   5.293   5.754   2.421 -0.3196 -0.2664  1.0593
11238SOL    HW234309   5.152   5.776   2.473  0.0280  0.0474  1.8877
11239SOL     OW34310   2.443   1.529   0.101 -0.2536  0.0609  0.4853
11239SOL    HW134311   2.481   1.450   0.140  1.1346  0.6795  0.3952
11239SOL    HW234312   2.452   1.596   0.168  0.9906  0.8100 -0.4015
11240SOL     OW34313   6.357   5.893   6.215  0.2543 -0.1068  1.1923
11240SOL    HW134314   6.437   5.947   6.208  0.4479 -0.4995  0.2306
11240SOL    HW234315   6.383   5.820   6.271  0.2463  0.3344  1.7821
11241SOL     OW34316   6.236   0.560   3.497 -0.4062  0.4607 -0.9849
11241SOL    HW134317   6.187   0.563   3.415  0.7618 -2.2094 -1.8650
11241SOL    HW234318   6.198   0.486   3.544  1.3029 -0.3213 -0.7702
11242SOL     OW34319   4.974   4.464   4.995  0.3900  0.1757  0.2786
11242SOL    HW134320   5.066   4.488   4.988 -0.0953  1.4678 -2.2017
11242SOL    HW234321   4.964   4.391   4.933 -0.0662 -0.5948  1.2461
11243SOL     OW34322   2.839   4.399   5.538  0.1125 -0.1840 -0.3051
11243SOL    HW134323   2.820   4.391   5.444 -0.9444  2.0868 -0.3167
11243SOL    HW234324   2.880   4.485   5.547 -0.6341  0.0118  1.4401
11244SOL     OW34325   1.835   5.755   2.733 -0.6659 -0.2765 -0.7664
11244SOL    HW134326   1.883   5.771   2.652  1.9583 -3.0632  0.1395
11244SOL    HW234327   1.743   5.764   2.708  0.1362  0.4035 -3.7052
11245SOL     OW34328   2.729   2.700   2.305  0.6306 -0.3799 -0.7099
11245SOL    HW134329   2.654   2.721   2.249 -0.6386 -0.1696  1.0324
11245SOL    HW234330   2.700   2.625   2.357  0.7336  1.1954  1.6838
11246SOL     OW34331   2.515   1.348   0.320  0.0478 -0.2159  0.1505
11246SOL    HW134332   2.575   1.294   0.372 -0.6016  0.2228  1.3693
11246SOL    HW234333   2.458   1.389   0.384 -0.3118  0.9011 -0.8619
11247SOL     OW34334   1.774   1.095   5.817 -0.0976 -0.5341 -0.3244
11247SOL    HW134335   1.758   1.003   5.837  0.2911 -0.5752 -0.1898
11247SOL    HW234336   1.706   1.143   5.864 -1.4037 -0.8669 -1.8429
11248SOL     OW34337   5.366   4.247   1.283  0.3348 -0.5828 -0.1146
11248SOL    HW134338   5.457   4.251   1.312  0.0396  1.2758  0.6671
11248SOL    HW234339   5.318   4.217   1.360  0.0959  0.1258  0.0221
11249SOL     OW34340   0.105   5.219   1.136 -0.7595  0.2177 -0.3400
11249SOL    HW134341   0.027   5.254   1.092 -0.5545  0.7037 -0.3280
11249SOL    HW234342   0.111   5.270   1.217 -1.2047 -0.7609  0.3017
11250SOL     OW34343   1.987   3.425   5.662 -0.6122 -0.2760  0.3345
11250SOL    HW134344   2.076   3.454   5.682 -0.9219  0.7705  0.2327
11250SOL    HW234345   1.994   3.330   5.652  0.1682 -0.4198  2.0780
11251SOL     OW34346   0.973   4.451   5.450 -0.3319  0.1818 -0.2529
11251SOL    HW134347   0.946   4.536   5.484  1.8654  1.1786 -0.9433
11251SOL    HW234348   0.969   4.460   5.355  0.6799 -0.2428 -0.3401
11252SOL     OW34349   6.970   3.583   4.596 -0.1142  0.5210 -0.4622
11252SOL    HW134350   7.016   3.656   4.555  2.3524  1.1142  3.1301
11252SOL    HW234351   7.040   3.525   4.626 -2.0000 -2.5384 -1.8234
11253SOL     OW34352   3.848   1.960   4.700 -0.2221  0.1827 -0.2329
11253SOL    HW134353   3.916   2.015   4.739  0.2813 -0.2532 -0.4945
11253SOL    HW234354   3.780   2.022   4.672  0.0316  0.6095  0.0935
11254SOL     OW34355   1.195   0.611   0.617 -0.0689 -0.3471  0.2136
11254SOL    HW134356   1.157   0.689   0.577  0.7092  0.5925  1.2782
11254SOL    HW234357   1.143   0.538   0.583 -0.8294  0.6386 -0.7487
11255SOL     OW34358   0.142   3.130   2.940  0.1922  0.3697 -0.5649
11255SOL    HW134359   0.124   3.117   2.847  0.0958  0.0966 -0.5056
11255SOL    HW234360   0.231   3.165   2.942 -0.4643  2.1248 -0.8855
11256SOL     OW34361   7.126   1.357   2.697 -0.2966  0.1404  0.1042
11256SOL    HW134362   7.057   1.316   2.749 -0.5257 -0.3309 -0.5627
11256SOL    HW234363   7.196   1.374   2.760 -0.9563  0.4859  0.7617
11257SOL     OW34364   4.412   0.509   2.662  0.0761  0.4659 -0.1009
11257SOL    HW134365   4.423   0.414   2.661 -0.0607  0.3576  2.6612
11257SOL    HW234366   4.498   0.542   2.688 -0.3977  0.9446  0.9027
11258SOL     OW34367   6.194   0.248   0.872 -0.3025 -0.5463 -0.1370
11258SOL    HW134368   6.246   0.213   0.944 -1.2754 -1.5939  0.0601
11258SOL    HW234369   6.228   0.205   0.794 -1.9249 -2.4714  0.1771
11259SOL     OW34370   1.704   3.201   1.247  0.1468  0.2821 -0.0082
11259SOL    HW134371   1.740   3.123   1.204  0.7836 -0.2350  1.4347
11259SOL    HW234372   1.667   3.168   1.329 -2.6061  0.9966 -0.9077
11260SOL     OW34373   4.777   3.592   2.854  0.0471  0.3529 -0.5760
11260SOL    HW134374   4.700   3.547   2.889 -0.3308  0.3630 -1.3699
11260SOL    HW234375   4.743   3.677   2.825  0.4629  0.5692 -0.4291
11261SOL     OW34376   1.583   2.791   3.570 -0.5019 -0.4602 -0.7743
11261SOL    HW134377   1.629   2.811   3.651 -1.4813  0.6199 -0.4810
11261SOL    HW234378   1.651   2.757   3.512  0.3861 -0.2850  0.1522
11262SOL     OW34379   2.960   4.444   6.666 -0.0410 -0.1911  0.0135
11262SOL    HW134380   2.972   4.424   6.573  0.5019  1.4229 -0.2837
11262SOL    HW234381   2.960   4.359   6.709  3.0693 -0.8007 -1.0609
11263SOL     OW34382   6.323   5.659   0.735  0.7218 -0.3386 -0.1654
11263SOL    HW134383   6.251   5.679   0.795  0.0456  3.4235 -2.0605
11263SOL    HW234384   6.292   5.587   0.681 -1.3742  0.7979 -0.5012
11264SOL     OW34385   1.795   2.337   1.395  0.0876 -0.0546 -0.1475
11264SOL    HW134386   1.788   2.250   1.435  0.6605  0.2734  0.6685
11264SOL    HW234387   1.780   2.322   1.302 -4.2204 -0.4502  0.5110
11265SOL     OW34388   2.206   1.165   0.012 -0.4850 -0.3495  0.4077
11265SOL    HW134389   2.178   1.136   0.099 -0.6026 -1.9685 -0.1495
11265SOL    HW234390   2.139   1.131  -0.047  0.4308 -0.6156 -0.4838
11266SOL     OW34391   2.965   0.496   5.533 -0.3653  0.4417  0.1157
11266SOL    HW134392   2.889   0.513   5.588 -0.7772 -1.0014  0.0005
11266SOL    HW234393   3.034   0.551   5.570 -0.6400 -0.4882  2.0731
11267SOL     OW34394   0.484   4.408   0.205 -0.7204  0.1653  0.0180
11267SOL    HW134395   0.466   4.346   0.135 -1.1727  0.5223 -0.1829
11267SOL    HW234396   0.398   4.437   0.234 -0.5019  1.2857 -0.4229
11268SOL     OW34397   3.024   3.189   2.522 -0.0702  0.5743  0.9453
11268SOL    HW134398   2.975   3.121   2.477 -1.4721  1.7725  0.6364
11268SOL    HW234399   3.046   3.150   2.607 -2.5913  0.4268  1.5595
11269SOL     OW34400   5.487   3.252   6.061  0.3103 -0.1997  0.0289
11269SOL    HW134401   5.464   3.297   5.980 -0.5713  1.0039  0.9252
11269SOL    HW234402   5.537   3.317   6.111  0.0417 -0.5990  0.8292
11270SOL     OW34403   1.637   3.813   5.626  0.5536 -1.0128  0.2027
11270SOL    HW134404   1.672   3.902   5.633  0.5408 -1.0892  1.5476
11270SOL    HW234405   1.648   3.777   5.715  1.7475 -2.7894 -0.6379
11271SOL     OW34406   6.848   0.305   6.412 -0.0514  0.2402 -0.5502
11271SOL    HW134407   6.871   0.299   6.504  0.6062  0.4379 -0.6938
11271SOL    HW234408   6.791   0.230   6.395  0.1268  0.0007 -0.0724
11272SOL     OW34409   5.665   5.637   3.715  0.2488  0.4572  0.1860
11272SOL    HW134410   5.580   5.595   3.729  0.4128 -0.6243 -1.8815
11272SOL    HW234411   5.645   5.721   3.675  0.2004 -0.6974 -2.3102
11273SOL     OW34412   5.273   3.645   0.219 -0.1883  0.0275 -0.1180
11273SOL    HW134413   5.204   3.588   0.185  0.3211 -0.5258 -0.2336
11273SOL    HW234414   5.255   3.730   0.180  2.2101 -1.2718 -4.4161
11274SOL     OW34415   2.489   7.011   2.064  0.5708 -1.1366 -0.2155
11274SOL    HW134416   2.572   7.044   2.030  0.6570  0.8546  1.7874
11274SOL    HW234417   2.508   6.987   2.155 -1.2691  0.3552  0.6016
11275SOL     OW34418   3.700   6.090   0.019  0.0396  0.1744  0.5568
11275SOL    HW134419   3.755   6.064  -0.055  0.0944 -0.8626  0.9628
11275SOL    HW234420   3.757   6.143   0.074 -0.1488  1.4094 -0.4034
11276SOL     OW34421   6.120   3.805   6.467 -0.4556  0.1826 -0.2841
11276SOL    HW134422   6.113   3.781   6.559  0.8551  1.5735  0.2104
11276SOL    HW234423   6.113   3.901   6.467  1.3918  0.3446 -1.4252
11277SOL     OW34424   6.914   0.333   1.450 -0.0692 -0.5321 -0.0392
11277SOL    HW134425   6.972   0.347   1.525 -0.8163  1.2757  0.2230
11277SOL    HW234426   6.934   0.405   1.390 -0.4120 -1.2182 -0.9930
11278SOL     OW34427   3.013   3.072   6.498  0.2457 -0.0101  0.3712
11278SOL    HW134428   2.924   3.080   6.465  0.2173 -1.5801  0.0229
11278SOL    HW234429   3.047   3.161   6.499 -0.8037  0.4139 -0.9659
11279SOL     OW34430   0.080   3.688   6.633  0.4130  0.0102 -0.4897
11279SOL    HW134431   0.125   3.605   6.615  1.8182  0.1498  2.1296
11279SOL    HW234432   0.118   3.750   6.569  0.5722 -0.9642 -1.3530
11280SOL     OW34433   1.768   1.766   0.510 -0.0892  0.0347  0.1792
11280SOL    HW134434   1.788   1.675   0.530  0.5951 -0.0156 -0.6942
11280SOL    HW234435   1.680   1.780   0.545 -0.3716 -1.0864 -0.0662
11281SOL     OW34436   6.019   1.399   7.103 -0.2388 -0.1966  0.1402
11281SOL    HW134437   6.097   1.420   7.155  0.9896  1.9147 -2.3754
11281SOL    HW234438   5.961   1.475   7.115 -0.4094 -0.1954 -0.6557
11282SOL     OW34439   1.408   3.198   1.966  0.1780 -0.8098  0.4681
11282SOL    HW134440   1.462   3.267   1.928  1.0935 -1.0789  1.2858
11282SOL    HW234441   1.356   3.166   1.892 -1.7186  2.0978  0.4529
11283SOL     OW34442   2.588   2.545   3.430  0.4735  0.2792 -0.0468
11283SOL    HW134443   2.536   2.486   3.376  0.9970  1.9635 -2.4646
11283SOL    HW234444   2.524   2.607   3.466 -0.0813 -1.7082  2.5269
11284SOL     OW34445   7.094   2.142   6.206  0.1103 -0.6032 -0.7497
11284SOL    HW134446   7.145   2.188   6.140  0.6527  0.0064  0.0943
11284SOL    HW234447   7.135   2.165   6.290  0.0589 -2.1691 -0.2662
11285SOL     OW34448   5.070   4.775   1.560 -0.3637  0.0684  0.8565
11285SOL    HW134449   5.136   4.706   1.566 -1.5230 -0.9470  2.4026
11285SOL    HW234450   5.044   4.791   1.651 -3.9053 -1.2138  0.1681
11286SOL     OW34451   5.493   1.635   1.015  0.6354 -0.8358 -0.6107
11286SOL    HW134452   5.464   1.676   0.934 -1.6522 -0.5416  0.3203
11286SOL    HW234453   5.438   1.558   1.024  1.5616 -1.4238  0.1647
11287SOL     OW34454   4.066   6.800   0.496  0.3505  0.2391  0.7318
11287SOL    HW134455   4.033   6.822   0.409 -1.3283  1.4297  1.6511
11287SOL    HW234456   4.001   6.739   0.531  0.7254  0.2033  1.3721
11288SOL     OW34457   2.044   3.118   5.343 -0.3900 -0.4714  0.1971
11288SOL    HW134458   1.998   3.093   5.422 -1.1063  0.0237 -0.0509
11288SOL    HW234459   2.123   3.064   5.342  0.0669  0.1405  1.6946
11289SOL     OW34460   4.409   6.600   2.331  0.0669  0.5108  0.3221
11289SOL    HW134461   4.349   6.602   2.405 -0.8532 -0.9099 -0.3525
11289SOL    HW234462   4.352   6.609   2.254  0.8197  0.2398 -0.2783
11290SOL     OW34463   2.321   0.537   4.384  0.0475  0.1280 -0.0446
11290SOL    HW134464   2.361   0.565   4.466 -0.0776  0.4306 -0.0863
11290SOL    HW234465   2.324   0.441   4.387  0.8751  0.1552 -0.1023
11291SOL     OW34466   6.173   0.435   0.583  0.1115  0.1652 -0.2503
11291SOL    HW134467   6.126   0.449   0.500  0.5911  1.7062 -0.2753
11291SOL    HW234468   6.108   0.457   0.650 -0.3776 -1.3899 -0.1872
11292SOL     OW34469   0.209   3.926   2.959  0.3734 -0.2397  0.0294
11292SOL    HW134470   0.299   3.924   2.925 -0.1628  0.9687 -1.5212
11292SOL    HW234471   0.155   3.938   2.881 -1.1564 -1.1205  0.9404
11293SOL     OW34472   0.918   6.616   3.268  0.2721 -0.4413 -0.2221
11293SOL    HW134473   0.916   6.690   3.329  0.6488  0.2931 -1.0844
11293SOL    HW234474   0.865   6.549   3.310  0.8409 -0.0869  1.0940
11294SOL     OW34475   7.181   4.089   4.377  0.4561  0.0057 -0.2972
11294SOL    HW134476   7.180   4.126   4.465  0.8593 -1.3597  0.2930
11294SOL    HW234477   7.090   4.091   4.349  0.5096  1.7099 -0.4006
11295SOL     OW34478   5.545   4.704   3.133 -0.3715 -0.2136  0.2137
11295SOL    HW134479   5.634   4.737   3.122 -0.1383 -1.1361 -0.7305
11295SOL    HW234480   5.542   4.671   3.223  0.4123 -0.6725  0.0759
11296SOL     OW34481   7.105   2.830   7.249 -0.0019  0.1042 -0.4944
11296SOL    HW134482   7.080   2.786   7.168 -1.8765  1.9918 -0.9683
11296SOL    HW234483   7.024   2.867   7.283  0.8926  0.0302  1.8544
11297SOL     OW34484   2.699   6.871   4.788  0.1720 -0.3392  0.0378
11297SOL    HW134485   2.611   6.878   4.752  0.3490 -3.4725 -1.1288
11297SOL    HW234486   2.695   6.920   4.871 -2.2803  0.6226 -0.6077
11298SOL     OW34487   5.167   2.033   0.714 -0.6675 -0.1486  0.2620
11298SOL    HW134488   5.236   2.048   0.779  2.3954 -0.4925 -2.7414
11298SOL    HW234489   5.160   2.116   0.667  0.0885 -1.1008 -1.5890
11299SOL     OW34490   0.728   5.681   7.050 -0.2224 -0.2703  0.5150
11299SOL    HW134491   0.673   5.603   7.060 -0.1874 -0.4492 -0.6177
11299SOL    HW234492   0.748   5.684   6.956  0.5319  0.5895  0.7015
11300SOL     OW34493   4.661   2.053   0.335  0.2067 -0.2578 -0.4418
11300SOL    HW134494   4.572   2.017   0.331  0.5086 -1.1153  0.3724
11300SOL    HW234495   4.669   2.107   0.256 -1.4312  0.7375  0.0417
11301SOL     OW34496   1.490   2.748   0.454 -0.0889  0.0442 -0.1493
11301SOL    HW134497   1.502   2.792   0.370 -0.9840 -2.6672 -1.7608
11301SOL    HW234498   1.567   2.692   0.464 -0.4904 -0.4290  0.3363
11302SOL     OW34499   4.494   2.845   0.420  0.3884 -0.3112 -0.2566
11302SOL    HW134500   4.580   2.879   0.395  0.9336 -0.5123  1.2866
11302SOL    HW234501   4.457   2.915   0.474  0.5700 -1.2022  1.0347
11303SOL     OW34502   7.022   0.052   6.004 -0.1288  0.0957  0.4681
11303SOL    HW134503   7.072   0.004   5.937  1.9656  2.1663  0.4708
11303SOL    HW234504   6.962  -0.013   6.040  1.6215 -2.1612 -0.5219
11304SOL     OW34505   3.413   0.783   5.986  0.3136 -0.1829 -0.2448
11304SOL    HW134506   3.412   0.813   5.895 -0.5227  0.0603 -0.1687
11304SOL    HW234507   3.406   0.863   6.038 -2.0191 -0.4698 -0.0400
11305SOL     OW34508   5.889   6.840   0.134  0.3328 -0.2944 -0.2877
11305SOL    HW134509   5.966   6.785   0.145  1.0351  0.2545 -2.2469
11305SOL    HW234510   5.922   6.929   0.132 -0.7244  0.1882  2.1139
11306SOL     OW34511   7.016   5.046   7.161  0.1343 -0.0317  0.5515
11306SOL    HW134512   7.015   4.982   7.090  0.2566 -0.4519  0.9296
11306SOL    HW234513   6.938   5.027   7.212 -0.0367  0.3726  0.4416
11307SOL     OW34514   7.076   6.818   5.003  0.0136  0.5377  0.5771
11307SOL    HW134515   7.142   6.855   4.945  2.3210  0.6795  3.1651
11307SOL    HW234516   7.081   6.724   4.989 -1.1347  0.7140 -1.1438
11308SOL     OW34517   4.902   5.784   2.199 -0.8701  0.4476 -0.0330
11308SOL    HW134518   4.952   5.704   2.211 -0.5597  0.8513  1.4408
11308SOL    HW234519   4.966   5.849   2.170 -1.1933  0.0698 -1.6184
11309SOL     OW34520   5.917   6.197   2.972 -0.5462  0.0039  0.4830
11309SOL    HW134521   5.874   6.207   2.887  0.0572 -2.0445 -0.0945
11309SOL    HW234522   5.853   6.153   3.027 -0.3683 -0.0760  0.6272
11310SOL     OW34523   6.407   0.389   0.109 -0.1610 -0.1022  0.1805
11310SOL    HW134524   6.447   0.311   0.147 -1.4854 -0.6609  0.4405
11310SOL    HW234525   6.463   0.410   0.034 -1.3780 -2.9803 -1.6270
11311SOL     OW34526   1.301   5.986   0.914 -0.1028  0.0782 -0.2731
11311SOL    HW134527   1.315   5.910   0.970  2.4088  0.6276 -0.0943
11311SOL    HW234528   1.252   5.951   0.839 -2.2726 -0.9327  1.5317
11312SOL     OW34529   1.099   0.953   0.087 -0.7894 -0.0224  0.0189
11312SOL    HW134530   1.102   0.858   0.098 -2.7254  0.0738  1.6017
11312SOL    HW234531   1.190   0.978   0.073 -0.2344 -2.0883 -0.3051
11313SOL     OW34532   3.567   5.119   5.815  0.0385 -0.1774  0.2686
11313SOL    HW134533   3.639   5.076   5.863 -0.1707 -2.8549 -1.7378
11313SOL    HW234534   3.601   5.130   5.726 -0.7433  1.8908  0.1975
11314SOL     OW34535   2.056   1.167   2.023 -0.0396 -0.5589 -0.1945
11314SOL    HW134536   2.114   1.099   2.059 -1.3789 -1.1452  0.8907
11314SOL    HW234537   2.049   1.146   1.930  0.2577 -1.3739 -0.0349
11315SOL     OW34538   6.116   2.206   3.396 -0.1496 -0.2444  0.2015
11315SOL    HW134539   6.141   2.295   3.421  0.7367 -0.2669 -0.5907
11315SOL    HW234540   6.187   2.151   3.429 -0.6667 -0.6566  0.6386
11316SOL     OW34541   5.879   2.397   3.776 -0.7891 -0.3039 -0.6791
11316SOL    HW134542   5.838   2.376   3.860 -0.6978  1.4477 -0.1922
11316SOL    HW234543   5.969   2.421   3.798 -1.2574  1.8757 -1.0637
11317SOL     OW34544   2.519   1.578   4.819 -0.4265 -0.4432 -0.0962
11317SOL    HW134545   2.520   1.609   4.728  1.4676  0.3422  0.1562
11317SOL    HW234546   2.562   1.493   4.815  2.0669  0.7362  0.3936
11318SOL     OW34547   5.385   1.120   0.179  0.3616  0.0016  0.3748
11318SOL    HW134548   5.292   1.140   0.164  0.2219 -1.2869 -0.5334
11318SOL    HW234549   5.428   1.142   0.097  0.5815 -1.0387  0.1999
11319SOL     OW34550   0.488   0.873   0.082  0.5340  0.0647  0.2008
11319SOL    HW134551   0.482   0.828  -0.002  1.7779  1.7987 -0.8480
11319SOL    HW234552   0.466   0.806   0.146 -1.3668 -1.0379 -1.5485
11320SOL     OW34553   4.866   3.582   2.539  0.7759  0.1414 -0.6854
11320SOL    HW134554   4.876   3.663   2.588  0.3514  0.5916 -1.3293
11320SOL    HW234555   4.897   3.514   2.598 -1.0703  0.5084  0.7426
11321SOL     OW34556   2.089   3.062   1.316  0.4451  0.1118 -0.2605
11321SOL    HW134557   2.000   3.037   1.339  0.6750  0.8230  1.4329
11321SOL    HW234558   2.140   2.981   1.323  0.2390  0.0341  0.3285
11322SOL     OW34559   2.479   3.657   3.836  0.0936 -0.2719 -0.2564
11322SOL    HW134560   2.521   3.727   3.786 -0.1116 -0.0212 -0.0711
11322SOL    HW234561   2.489   3.580   3.780  1.0582 -0.2797 -0.0936
11323SOL     OW34562   4.111   4.786   1.780  0.2639 -0.2308  0.2795
11323SOL    HW134563   4.150   4.866   1.815 -1.5986  0.0950  1.6862
11323SOL    HW234564   4.070   4.744   1.856 -0.6564 -1.4057 -0.8432
11324SOL     OW34565   0.098   5.577   1.795  0.0986 -0.6385 -0.0055
11324SOL    HW134566   0.150   5.496   1.793  1.3445  0.1836 -2.0192
11324SOL    HW234567   0.150   5.638   1.847  0.3759 -0.3152 -0.6667
11325SOL     OW34568   5.028   3.036   5.261  0.0723 -0.9321  0.1289
11325SOL    HW134569   5.103   2.985   5.291  1.3060  1.5096  1.2905
11325SOL    HW234570   5.039   3.042   5.166  0.4616 -1.9153  0.1034
11326SOL     OW34571   6.360   1.910   0.381  0.7262 -0.1623  0.6076
11326SOL    HW134572   6.447   1.948   0.364  0.1188  0.5341 -1.0682
11326SOL    HW234573   6.300   1.983   0.364 -0.1595 -0.5623  2.0671
11327SOL     OW34574   6.789   3.160   6.467 -0.1805 -0.1951 -0.0944
11327SOL    HW134575   6.849   3.119   6.529  1.1612  1.1282 -0.4990
11327SOL    HW234576   6.711   3.103   6.468  0.3008 -0.8510  1.8775
11328SOL     OW34577   0.895   4.306   4.866  0.5771 -0.0395 -0.2139
11328SOL    HW134578   0.933   4.365   4.802  2.1471 -2.4793 -1.6049
11328SOL    HW234579   0.801   4.310   4.850  0.7919  1.0070 -1.2308
11329SOL     OW34580   1.158   7.219   2.374  0.8651  0.3094  0.4807
11329SOL    HW134581   1.181   7.231   2.466 -0.5674  0.1368  0.8731
11329SOL    HW234582   1.066   7.191   2.376  0.3309  1.9195 -1.0844
11330SOL     OW34583   2.000   6.345   2.876  0.1027 -0.1082 -0.1710
11330SOL    HW134584   2.048   6.351   2.958 -0.1746  0.2503 -0.0319
11330SOL    HW234585   1.912   6.315   2.902  0.8933 -3.0525 -0.6525
11331SOL     OW34586   4.534   5.603   0.743 -0.0682 -0.6374 -0.4936
11331SOL    HW134587   4.534   5.508   0.740 -0.2012 -0.6445 -0.3286
11331SOL    HW234588   4.470   5.625   0.811 -0.0128 -0.4320 -0.5054
11332SOL     OW34589   2.672   1.343   1.346  0.7573 -0.1041 -0.1188
11332SOL    HW134590   2.676   1.424   1.295 -0.1900 -0.0176 -0.0628
11332SOL    HW234591   2.635   1.369   1.430  0.3757 -0.6072 -0.1298
11333SOL     OW34592   5.104   1.339   4.316 -0.1931  0.3361 -0.2981
11333SOL    HW134593   5.127   1.427   4.288 -0.2273 -0.4436 -2.9470
11333SOL    HW234594   5.014   1.346   4.346  0.4737  1.5905  1.4892
11334SOL     OW34595   5.658   5.145   1.424 -0.0633  0.3038  0.2531
11334SOL    HW134596   5.592   5.095   1.375  1.0552 -0.1764 -0.8145
11334SOL    HW234597   5.623   5.234   1.428 -1.1771 -0.1386  0.4559
11335SOL     OW34598   2.416   3.388   2.152  0.1502 -0.4553  0.5359
11335SOL    HW134599   2.379   3.321   2.209 -0.3873 -1.6656 -1.2101
11335SOL    HW234600   2.459   3.339   2.081 -0.7822  1.0123 -1.0943
11336SOL     OW34601   0.102   6.114   2.017  0.1237  0.1850  0.5471
11336SOL    HW134602   0.135   6.123   2.107  0.4493 -2.5011  0.7527
11336SOL    HW234603   0.166   6.057   1.974  0.2472  1.8500 -1.5747
11337SOL     OW34604   2.398   3.567   5.240  0.4787  0.2185  0.3430
11337SOL    HW134605   2.361   3.495   5.291  0.9602 -0.2513  0.0359
11337SOL    HW234606   2.323   3.623   5.220 -0.1345 -0.8938 -0.5563
11338SOL     OW34607   3.807   3.179   5.372 -0.0190  0.1739  0.6933
11338SOL    HW134608   3.860   3.233   5.313 -0.4690 -1.2703 -1.0713
11338SOL    HW234609   3.859   3.101   5.388 -1.1497 -0.8059 -0.2524
11339SOL     OW34610   1.526   5.269   7.002 -0.6113  0.0364 -0.9078
11339SOL    HW134611   1.581   5.196   7.032  1.6193  2.6832  1.7243
11339SOL    HW234612   1.439   5.248   7.036 -0.0904 -1.5463 -0.4715
11340SOL     OW34613   1.986   0.045   3.640  0.1812 -0.1042 -0.2275
11340SOL    HW134614   1.941   0.117   3.596  1.0807  0.7793  0.2802
11340SOL    HW234615   1.942  -0.034   3.608 -0.7958  0.6643 -0.8078
11341SOL     OW34616   6.960   1.336   2.456  0.0042  0.1982  0.0320
11341SOL    HW134617   6.937   1.248   2.423  0.0313  0.9550 -2.0926
11341SOL    HW234618   7.013   1.319   2.533  2.5816 -1.7486 -2.0482
11342SOL     OW34619   2.559   6.172   3.435 -0.1889 -0.0257  0.1873
11342SOL    HW134620   2.577   6.201   3.346  0.6298  1.3650  0.8011
11342SOL    HW234621   2.561   6.076   3.430  0.4969  0.0556 -1.1518
11343SOL     OW34622   6.827   1.436   0.954  0.1692  0.4211 -0.4698
11343SOL    HW134623   6.759   1.489   0.913  0.4804  1.3428  0.1888
11343SOL    HW234624   6.856   1.488   1.029  1.5049 -0.0262 -0.6677
11344SOL     OW34625   3.083   6.389   0.183  0.3707  0.1825  0.1167
11344SOL    HW134626   3.169   6.372   0.146  0.5272  1.4034 -0.1073
11344SOL    HW234627   3.100   6.421   0.271  0.0853 -0.8069  0.5371
11345SOL     OW34628   5.942   3.094   1.080 -0.6316  0.3150  0.1947
11345SOL    HW134629   5.882   3.125   1.013  0.7924  0.9420 -0.8110
11345SOL    HW234630   5.912   3.136   1.161 -1.9387  0.0817 -0.1546
11346SOL     OW34631   0.651   4.258   2.067  0.2299  0.2752  0.0036
11346SOL    HW134632   0.621   4.332   2.119  1.0438 -2.0088  3.8906
11346SOL    HW234633   0.581   4.193   2.075  0.5489 -0.2785 -1.5037
11347SOL     OW34634   4.247   2.237   6.271 -0.3065 -0.2406  0.1767
11347SOL    HW134635   4.223   2.178   6.343  1.0667 -2.2350 -0.9495
11347SOL    HW234636   4.343   2.233   6.269 -0.3352 -0.2297 -1.7928
11348SOL     OW34637   3.583   1.044   3.815 -0.1287 -0.5634 -0.5722
11348SOL    HW134638   3.589   1.128   3.860  0.2307 -1.0814  0.3641
11348SOL    HW234639   3.572   0.980   3.885  2.1396 -1.5680 -1.0994
11349SOL     OW34640   0.004   2.030   0.340  0.0838 -0.2625  0.3247
11349SOL    HW134641   0.022   1.945   0.382 -0.4761 -0.0381  1.0233
11349SOL    HW234642   0.023   2.094   0.408 -0.7926  0.1077  0.2233
11350SOL     OW34643   3.264   4.072   0.176 -0.1338 -0.2964  0.5452
11350SOL    HW134644   3.294   3.998   0.228  1.0178  0.6574  1.2454
11350SOL    HW234645   3.334   4.088   0.114 -1.2205 -1.0128 -0.9135
11351SOL     OW34646   1.004   5.726   2.075  0.1276  0.0101  0.3628
11351SOL    HW134647   1.097   5.745   2.091  0.5175 -1.6446  0.1091
11351SOL    HW234648   0.970   5.698   2.160 -0.6578  2.5556  0.9368
11352SOL     OW34649   1.587   2.189   4.295 -0.3445 -0.3759  0.2839
11352SOL    HW134650   1.595   2.180   4.389 -0.4344 -1.0624  0.2290
11352SOL    HW234651   1.669   2.153   4.260  0.2193  0.9981  0.1505
11353SOL     OW34652   2.240   3.268   3.591  0.3943  0.1056 -0.2190
11353SOL    HW134653   2.185   3.312   3.656  1.5231 -0.1030  0.9072
11353SOL    HW234654   2.204   3.180   3.584  1.8031 -0.6944  2.0644
11354SOL     OW34655   6.890   3.024   6.681 -0.0895 -0.0158  0.4413
11354SOL    HW134656   6.937   2.943   6.701  0.5439 -0.6242 -3.2821
11354SOL    HW234657   6.960   3.089   6.669 -0.2821 -0.2068 -1.9687
11355SOL     OW34658   4.310   5.360   7.135  0.3148 -0.2693 -0.2618
11355SOL    HW134659   4.370   5.302   7.089 -0.0175 -1.3873  0.6661
11355SOL    HW234660   4.243   5.382   7.071  1.1422  0.1408 -0.9955
11356SOL     OW34661   1.707   5.808   1.282 -0.0422 -0.0652 -0.4095
11356SOL    HW134662   1.719   5.749   1.207 -0.1188  0.8427 -1.1448
11356SOL    HW234663   1.787   5.861   1.283  0.2803 -0.5681  0.6001
11357SOL     OW34664   6.915   5.629   3.305 -0.1667  0.6422 -0.5612
11357SOL    HW134665   6.846   5.594   3.249  0.6739  0.2607 -1.3568
11357SOL    HW234666   6.994   5.626   3.252  1.0027 -1.3434  1.2045
11358SOL     OW34667   3.193   5.772   3.483  0.6291  0.4209 -0.6406
11358SOL    HW134668   3.247   5.844   3.451  0.9336 -0.2833 -1.7300
11358SOL    HW234669   3.113   5.777   3.430 -0.7319  1.9151  1.4543
11359SOL     OW34670   1.839   6.594   6.485  0.2112  0.9129 -0.4144
11359SOL    HW134671   1.775   6.655   6.521 -0.9258 -0.5550  0.0838
11359SOL    HW234672   1.824   6.596   6.391  0.0030  1.2179 -0.3760
11360SOL     OW34673   5.842   6.633   2.984  0.0437 -0.3276 -0.5383
11360SOL    HW134674   5.896   6.634   2.905 -1.3675  1.8539 -1.5153
11360SOL    HW234675   5.850   6.722   3.019 -1.9058 -0.3519 -0.0021
11361SOL     OW34676   5.405   4.790   1.526  0.3157 -0.0755 -0.4053
11361SOL    HW134677   5.346   4.722   1.558  0.9048  0.5518  2.0978
11361SOL    HW234678   5.492   4.757   1.547  0.7697  0.1509 -1.8398
11362SOL     OW34679   5.914   5.756   5.269 -0.2761  0.2111 -0.0870
11362SOL    HW134680   5.820   5.766   5.253 -0.0175  0.2683 -1.6159
11362SOL    HW234681   5.955   5.828   5.222  0.5815 -0.1350  0.1068
11363SOL     OW34682   5.967   1.742   5.179  0.0945 -0.0569 -0.3042
11363SOL    HW134683   5.871   1.747   5.181  0.0602 -1.0394  3.0527
11363SOL    HW234684   5.996   1.834   5.176 -0.9323  0.2683 -0.4733
11364SOL     OW34685   1.428   1.773   5.770 -0.0101 -0.2813  0.4732
11364SOL    HW134686   1.335   1.762   5.786 -1.0617  1.0296 -3.9280
11364SOL    HW234687   1.447   1.864   5.795  0.5304 -1.0396  2.9497
11365SOL     OW34688   2.131   6.061   7.008 -0.1448  0.2932 -0.2171
11365SOL    HW134689   2.147   6.148   7.045 -0.0759 -0.1569  0.8352
11365SOL    HW234690   2.046   6.035   7.045  0.7060 -0.8656  0.9838
11366SOL     OW34691   5.667   3.103   5.837  0.1995 -0.2042 -0.1876
11366SOL    HW134692   5.620   3.052   5.903  1.6519 -1.5136 -0.1440
11366SOL    HW234693   5.629   3.191   5.843 -1.3403 -0.9200  0.7266
11367SOL     OW34694   6.559   5.045   1.336 -1.1273  0.8088 -0.1180
11367SOL    HW134695   6.499   5.046   1.411 -2.0114 -0.0047 -0.8106
11367SOL    HW234696   6.646   5.053   1.376 -1.5071 -0.8365  1.0894
11368SOL     OW34697   0.490   3.114   6.119  0.3012  0.0246 -0.3646
11368SOL    HW134698   0.488   3.018   6.125 -2.4322  0.0341 -0.4963
11368SOL    HW234699   0.438   3.134   6.042 -0.4044  1.6743  0.5166
11369SOL     OW34700   5.181   1.834   4.139 -0.0633 -0.0751  0.2605
11369SOL    HW134701   5.192   1.825   4.044  1.3673 -0.1546  0.4279
11369SOL    HW234702   5.115   1.768   4.162  1.7887 -2.1535 -0.2383
11370SOL     OW34703   6.974   5.895   1.723 -0.3157 -0.3486  0.6574
11370SOL    HW134704   6.971   5.969   1.663  0.0073 -0.8768 -0.0139
11370SOL    HW234705   7.045   5.840   1.692 -0.2783 -0.7393  1.3988
11371SOL     OW34706   2.060   3.381   0.516 -0.6105 -0.6639 -0.0882
11371SOL    HW134707   2.070   3.303   0.571  0.2695 -0.3011  0.2883
11371SOL    HW234708   1.966   3.393   0.508 -0.7899 -0.1138  2.2613
11372SOL     OW34709   4.446   0.924   3.037 -0.4838 -0.2811  0.2164
11372SOL    HW134710   4.409   0.937   2.950  1.1926 -1.7163 -0.7546
11372SOL    HW234711   4.455   1.011   3.074  0.2161  0.4619 -1.6701
11373SOL     OW34712   5.707   5.583   4.483  0.2137 -0.0707 -0.3865
11373SOL    HW134713   5.747   5.562   4.567  2.1184  0.1228 -1.2167
11373SOL    HW234714   5.781   5.602   4.425 -1.1091  0.8804 -1.8167
11374SOL     OW34715   6.823   6.913   4.921 -0.1671 -0.2379 -0.3963
11374SOL    HW134716   6.766   6.918   4.998  1.2662  1.7731  0.5791
11374SOL    HW234717   6.906   6.880   4.955  0.2686  0.0161 -1.2018
11375SOL     OW34718   2.857   6.960   7.129  0.1038  0.0290 -0.0909
11375SOL    HW134719   2.788   6.900   7.099 -0.3505  0.0305  0.9359
11375SOL    HW234720   2.930   6.942   7.070 -0.8159  0.1345 -1.2969
11376SOL     OW34721   7.052   0.425   5.041 -0.5395  0.0079 -0.2228
11376SOL    HW134722   7.016   0.373   4.969  0.0041 -2.7802  1.4574
11376SOL    HW234723   7.011   0.389   5.119  1.4385  0.7188  1.1845
11377SOL     OW34724   5.057   1.531   0.775 -0.3571  0.2442  0.2795
11377SOL    HW134725   5.050   1.621   0.743  0.0087  0.4548  0.7935
11377SOL    HW234726   5.107   1.485   0.708 -0.7766  0.3613 -0.1128
11378SOL     OW34727   4.089   2.156   4.244 -0.1630  0.1632 -0.0768
11378SOL    HW134728   4.023   2.194   4.303  0.4669 -0.5126  1.0749
11378SOL    HW234729   4.078   2.205   4.162 -2.1101  0.0550  0.0782
11379SOL     OW34730   6.503   0.860   1.591 -0.0853  0.1632 -0.0022
11379SOL    HW134731   6.434   0.814   1.638 -1.2141  1.4253 -0.3920
11379SOL    HW234732   6.521   0.938   1.643 -0.2958  0.8049 -0.8727
11380SOL     OW34733   1.710   1.840   6.912 -0.1470  0.6993  0.0285
11380SOL    HW134734   1.626   1.880   6.888 -0.2446 -0.3138 -1.3597
11380SOL    HW234735   1.717   1.764   6.855  0.9764 -0.1349  1.2651
11381SOL     OW34736   4.451   5.060   6.247  0.5289  0.1200  0.1657
11381SOL    HW134737   4.424   5.086   6.159  0.2045  0.2703  0.3060
11381SOL    HW234738   4.369   5.043   6.293  0.7677 -2.4968 -0.3025
11382SOL     OW34739   0.936   0.425   4.277  0.5960  0.1809 -0.4938
11382SOL    HW134740   0.845   0.445   4.300  0.6179 -0.7172  0.4322
11382SOL    HW234741   0.988   0.474   4.341  0.6255 -3.9315  2.9133
11383SOL     OW34742   0.023   0.119   4.091 -0.4713 -0.3007  0.5699
11383SOL    HW134743  -0.051   0.091   4.144 -0.4335 -0.1108  0.7229
11383SOL    HW234744  -0.012   0.185   4.032 -0.4333 -0.2460  0.6087
11384SOL     OW34745   5.918   2.870   0.856  0.4673  0.2954 -0.5083
11384SOL    HW134746   5.989   2.931   0.875  0.5054  0.2422 -0.4774
11384SOL    HW234747   5.842   2.905   0.902  0.3007  0.7242 -1.1082
11385SOL     OW34748   7.004   5.799   0.052  0.0350  0.2613  0.4020
11385SOL    HW134749   6.976   5.743  -0.020  0.9474 -0.9601  0.9855
11385SOL    HW234750   7.018   5.739   0.125  2.4829  1.0310  0.6171
11386SOL     OW34751   0.005   5.902   0.592 -0.2923 -0.3994  0.6426
11386SOL    HW134752  -0.044   5.977   0.624  0.1014 -0.5126  1.5141
11386SOL    HW234753  -0.004   5.836   0.660  0.0419 -0.8493  0.2509
11387SOL     OW34754   4.627   4.736   2.503  0.6058 -0.1652  0.3792
11387SOL    HW134755   4.587   4.806   2.451 -0.1144 -0.3789  0.6422
11387SOL    HW234756   4.715   4.769   2.523  0.4847  0.4072 -0.0009
11388SOL     OW34757   1.716   7.119   5.126  0.5815 -0.5370  0.0456
11388SOL    HW134758   1.741   7.078   5.044 -0.6907  2.6009 -2.0130
11388SOL    HW234759   1.621   7.131   5.119  0.8454  2.3370  0.6574
11389SOL     OW34760   4.045   6.446   1.513 -0.5798 -0.0610  0.6161
11389SOL    HW134761   4.141   6.442   1.510 -0.4843  2.3743 -0.8970
11389SOL    HW234762   4.024   6.445   1.606  0.8592 -1.5819  0.9436
11390SOL     OW34763   5.386   6.606   3.545  0.5513 -0.6636 -0.3408
11390SOL    HW134764   5.386   6.567   3.458  2.2428  0.8135 -1.0276
11390SOL    HW234765   5.465   6.572   3.587  0.0432 -0.9231  0.4254
11391SOL     OW34766   0.270   6.054   2.780  0.1087 -0.5368  0.5414
11391SOL    HW134767   0.357   6.094   2.772 -0.5041  0.6524 -0.3646
11391SOL    HW234768   0.286   5.972   2.826  1.7229 -0.3450  0.3716
11392SOL     OW34769   5.969   7.154   0.180 -0.0151 -0.1600  0.0334
11392SOL    HW134770   5.947   7.240   0.216  0.8092  0.4091 -0.7623
11392SOL    HW234771   6.050   7.170   0.132 -0.7470 -1.0210 -1.5144
11393SOL     OW34772   4.254   0.825   5.512  0.5443  0.0573  0.0052
11393SOL    HW134773   4.172   0.776   5.514 -0.3900  1.6314  0.7454
11393SOL    HW234774   4.320   0.762   5.540 -0.6770 -0.7002  1.2269
11394SOL     OW34775   0.422   4.339   3.460  0.6040 -0.4126 -0.0846
11394SOL    HW134776   0.508   4.330   3.419 -0.3835 -0.1930 -2.2964
11394SOL    HW234777   0.360   4.306   3.394 -0.9833 -0.8753  1.5859
11395SOL     OW34778   5.996   4.302   3.320 -0.5123 -0.5307 -0.4172
11395SOL    HW134779   5.916   4.252   3.337 -0.9560  0.6197  1.0064
11395SOL    HW234780   6.067   4.238   3.330 -1.1782 -1.2716 -0.4103
11396SOL     OW34781   6.999   5.045   6.138 -0.4804  0.3595  0.6861
11396SOL    HW134782   7.081   5.046   6.089 -1.3559  1.8359 -0.8270
11396SOL    HW234783   6.992   5.134   6.175 -0.4616 -0.3463  2.4442
11397SOL     OW34784   0.670   4.470   3.052 -0.2250 -0.6922  0.4086
11397SOL    HW134785   0.666   4.541   2.988  3.2893  0.3839  1.2671
11397SOL    HW234786   0.696   4.393   3.001  0.7644 -0.2420  0.2135
11398SOL     OW34787   2.701   0.616   4.391  0.6069  0.3375 -0.1592
11398SOL    HW134788   2.734   0.551   4.453  0.8215  1.4055  0.8599
11398SOL    HW234789   2.651   0.565   4.327  0.0677 -0.7461  1.1013
11399SOL     OW34790   6.931   3.133   0.180  0.3463  0.3478 -0.3506
11399SOL    HW134791   6.851   3.107   0.225 -1.0841  1.4582 -2.1793
11399SOL    HW234792   6.971   3.050   0.153 -0.0394 -0.2246  0.7858
11400SOL     OW34793   4.654   2.665   5.851  0.3272  0.2123  0.3021
11400SOL    HW134794   4.691   2.612   5.921  0.1033 -0.7655 -0.3027
11400SOL    HW234795   4.559   2.657   5.862  0.2801  1.8059  1.1762
11401SOL     OW34796   2.127   5.571   2.507 -0.0831 -0.3931 -0.0878
11401SOL    HW134797   2.139   5.530   2.592 -0.1038 -1.0500 -0.3956
11401SOL    HW234798   2.121   5.497   2.446  1.6510  0.0842 -0.8752
11402SOL     OW34799   1.095   1.151   0.951 -0.0145 -0.4464 -0.7129
11402SOL    HW134800   1.044   1.069   0.944 -0.6429 -0.1547  0.3484
11402SOL    HW234801   1.065   1.204   0.877  1.8072 -1.9239 -2.5695
11403SOL     OW34802   0.364   5.047   0.493 -0.0921  0.1168  0.5949
11403SOL    HW134803   0.361   5.111   0.422  0.9408 -0.2095  0.2570
11403SOL    HW234804   0.305   4.977   0.465 -1.6557  1.1388  1.2056
11404SOL     OW34805   5.213   1.831   2.676 -0.3145  0.0705  0.5059
11404SOL    HW134806   5.206   1.788   2.762  0.0797  0.6025  0.8069
11404SOL    HW234807   5.192   1.762   2.613  1.0596 -0.7684  0.9432
11405SOL     OW34808   5.611   2.823   3.130 -0.0925  0.3849  0.9042
11405SOL    HW134809   5.569   2.832   3.216  1.1456 -0.3060  1.6008
11405SOL    HW234810   5.671   2.749   3.141  0.0329  0.2600 -0.5814
11406SOL     OW34811   2.515   4.295   0.708 -0.0681  0.0537 -0.3094
11406SOL    HW134812   2.474   4.210   0.695  0.5971 -0.3814  0.4256
11406SOL    HW234813   2.566   4.286   0.788  0.6771  0.8805 -0.6725
11407SOL     OW34814   0.528   1.381   6.914 -0.2953 -0.4943  0.2310
11407SOL    HW134815   0.526   1.313   6.847 -0.1185 -0.4327  0.1641
11407SOL    HW234816   0.616   1.377   6.950 -0.0445  0.1988 -0.2879
11408SOL     OW34817   6.373   4.369   4.222  0.0581 -0.4452 -0.1506
11408SOL    HW134818   6.359   4.460   4.194 -1.3004 -0.0972  1.5659
11408SOL    HW234819   6.362   4.318   4.142  0.4325  0.8660 -1.0619
11409SOL     OW34820   5.451   0.456   6.451 -0.1281  0.4853 -0.1346
11409SOL    HW134821   5.444   0.520   6.521  3.3510  1.1538 -0.3062
11409SOL    HW234822   5.422   0.503   6.372  1.1003  1.4254 -0.0293
11410SOL     OW34823   2.335   5.171   2.345 -0.4339 -0.0186  0.5365
11410SOL    HW134824   2.426   5.187   2.322 -0.1553 -1.3290  0.7166
11410SOL    HW234825   2.295   5.139   2.264 -0.3516 -1.0081  0.8922
11411SOL     OW34826   3.073   6.889   1.607  0.2065  0.8216  0.3720
11411SOL    HW134827   3.133   6.827   1.649  0.9092  0.9167 -0.4818
11411SOL    HW234828   3.074   6.966   1.664 -0.2404  0.2737  1.1391
11412SOL     OW34829   6.199   2.386   2.712 -0.2696 -0.3116 -0.0757
11412SOL    HW134830   6.161   2.299   2.703  1.2243 -1.0302  0.4251
11412SOL    HW234831   6.291   2.374   2.689 -0.4574  1.5388 -1.9417
11413SOL     OW34832   3.879   4.201   5.041 -0.1416 -0.1326 -0.5169
11413SOL    HW134833   3.954   4.159   5.083 -1.1941 -0.4347  1.1086
11413SOL    HW234834   3.806   4.141   5.056 -1.1236  1.0694 -0.3431
11414SOL     OW34835   6.234   2.908   4.640 -0.3053  0.1707 -0.1555
11414SOL    HW134836   6.297   2.934   4.708 -0.8074  1.0295 -0.0124
11414SOL    HW234837   6.149   2.919   4.681 -0.5871 -0.0437 -0.6801
11415SOL     OW34838   4.158   2.631   5.766 -0.0819  0.2090  0.0009
11415SOL    HW134839   4.149   2.623   5.671  0.9332 -1.2032  0.0096
11415SOL    HW234840   4.077   2.672   5.795 -1.4158 -1.5414 -1.1906
11416SOL     OW34841   2.555   6.748   2.804  0.0074 -0.3836 -0.4277
11416SOL    HW134842   2.615   6.718   2.872  0.5271  1.8218  0.1210
11416SOL    HW234843   2.566   6.685   2.733  1.9439 -0.8006  0.2097
11417SOL     OW34844   2.645   2.930   0.698 -0.2591  0.1789  0.4292
11417SOL    HW134845   2.649   2.834   0.692 -1.9192  0.0136  1.6889
11417SOL    HW234846   2.617   2.958   0.611  0.9765 -0.4161 -0.1735
11418SOL     OW34847   1.338   1.491   2.473 -0.5096  0.0105  0.4683
11418SOL    HW134848   1.267   1.556   2.468 -0.8423 -0.2374  1.9387
11418SOL    HW234849   1.328   1.451   2.559 -0.3244 -2.0341 -0.4389
11419SOL     OW34850   0.852   5.360   5.643  0.1560 -0.1896 -0.0704
11419SOL    HW134851   0.885   5.404   5.564 -0.6246  0.6327  0.0574
11419SOL    HW234852   0.865   5.267   5.625  1.8599  0.0686 -0.3352
11420SOL     OW34853   3.356   6.816   2.139 -0.2859 -0.2559 -0.6586
11420SOL    HW134854   3.383   6.789   2.051  0.8324 -1.0878 -0.0581
11420SOL    HW234855   3.415   6.771   2.198 -1.6425 -0.4549  0.5876
11421SOL     OW34856   6.091   7.023   5.414 -0.1905 -0.3939 -0.0858
11421SOL    HW134857   6.133   7.000   5.331  0.3720 -0.2644  0.1591
11421SOL    HW234858   6.136   7.103   5.442 -0.9067 -0.0078 -0.0413
11422SOL     OW34859   7.001   6.474   0.057  0.0886 -0.3884 -0.0719
11422SOL    HW134860   7.059   6.520   0.118 -2.0910  1.9207  0.3132
11422SOL    HW234861   6.967   6.400   0.108  0.7979 -0.3492  0.4642
11423SOL     OW34862   1.582   4.093   3.006 -0.1045  0.1450 -0.2910
11423SOL    HW134863   1.589   4.186   2.983  0.8430  0.1224 -0.1122
11423SOL    HW234864   1.619   4.046   2.931  1.0470 -0.0073  0.3533
11424SOL     OW34865   5.569   6.106   4.240 -0.3636 -0.6927 -0.1188
11424SOL    HW134866   5.539   6.046   4.308  0.0711 -1.2558 -0.4249
11424SOL    HW234867   5.491   6.124   4.188 -0.5444 -0.8049  0.1144
11425SOL     OW34868   2.054   3.555   0.899  0.0873 -0.1508 -0.0235
11425SOL    HW134869   2.101   3.485   0.853 -1.2338 -0.8198 -0.3925
11425SOL    HW234870   2.117   3.588   0.963  0.6453 -1.9078  0.3829
11426SOL     OW34871   3.200   5.514   0.493  0.4548  0.1061  0.2706
11426SOL    HW134872   3.213   5.478   0.405  1.7914 -0.9347  0.8809
11426SOL    HW234873   3.279   5.566   0.509 -0.2102  1.0645  0.4949
11427SOL     OW34874   1.350   5.462   1.349 -0.6583  0.3529 -0.7718
11427SOL    HW134875   1.364   5.477   1.443  0.1078  1.8290 -1.1078
11427SOL    HW234876   1.439   5.456   1.313 -0.9414  0.9763 -1.5767
11428SOL     OW34877   3.479   0.120   5.760 -0.5698 -0.0023 -0.0304
11428SOL    HW134878   3.573   0.104   5.752 -0.3418  1.3634 -0.1497
11428SOL    HW234879   3.469   0.155   5.849 -1.0506 -0.6596  0.1800
11429SOL     OW34880   6.660   3.922   6.784  0.3711  0.2402  0.4032
11429SOL    HW134881   6.667   3.899   6.877  0.0310  0.8208  0.5708
11429SOL    HW234882   6.567   3.937   6.770  0.0549 -2.4886 -0.6643
11430SOL     OW34883   7.056   6.445   5.734  0.4809 -0.4609 -0.5634
11430SOL    HW134884   7.083   6.426   5.824 -1.3631 -0.1233  0.0885
11430SOL    HW234885   7.091   6.372   5.682  2.6669  0.0108  0.1969
11431SOL     OW34886   4.987   7.102   5.156  0.4583 -0.1690  0.0924
11431SOL    HW134887   5.062   7.132   5.104  0.7530 -0.9694  0.0394
11431SOL    HW234888   5.008   7.129   5.245  0.5941  0.0141  0.0065
11432SOL     OW34889   0.423   1.638   2.937  0.1462  0.3744 -0.1664
11432SOL    HW134890   0.494   1.582   2.906  0.8177  0.8867  0.4232
11432SOL    HW234891   0.458   1.680   3.016 -1.1733 -0.1665  0.7340
11433SOL     OW34892   6.450   7.086   3.210 -0.0478 -0.1416 -0.7455
11433SOL    HW134893   6.476   7.175   3.184  0.9343 -0.0782  0.3951
11433SOL    HW234894   6.496   7.030   3.148 -0.6546  0.1476 -1.4598
11434SOL     OW34895   5.070   7.106   5.754  0.0414 -0.4967  0.3344
11434SOL    HW134896   5.090   7.164   5.827 -0.2431 -0.9273  0.7567
11434SOL    HW234897   5.078   7.018   5.790 -0.7017 -0.7051  0.0126
11435SOL     OW34898   3.659   0.808   5.196  0.0884  0.0118  0.3296
11435SOL    HW134899   3.566   0.803   5.219 -0.1747 -1.1746 -0.9196
11435SOL    HW234900   3.704   0.809   5.280 -1.0105 -0.5067  0.9378
11436SOL     OW34901   6.597   5.768   4.626  0.3761 -0.0588  0.2695
11436SOL    HW134902   6.603   5.694   4.687  0.5994 -0.5219 -0.3066
11436SOL    HW234903   6.676   5.760   4.572  0.5588  0.7818  0.4025
11437SOL     OW34904   0.668   5.774   1.486 -0.5972  0.8494 -0.2592
11437SOL    HW134905   0.726   5.728   1.425  0.4165  2.7954 -0.8033
11437SOL    HW234906   0.595   5.714   1.500 -0.2471 -0.1266 -2.4610
11438SOL     OW34907   4.994   2.452   5.824 -0.5659 -0.2508 -0.5616
11438SOL    HW134908   5.024   2.513   5.756  1.4266 -1.1960 -0.5541
11438SOL    HW234909   4.955   2.379   5.775 -0.8716 -0.0437 -0.6296
11439SOL     OW34910   6.587   1.031   1.844 -0.4401 -0.0245  0.1299
11439SOL    HW134911   6.566   1.124   1.856 -2.0990 -0.6228  2.3192
11439SOL    HW234912   6.502   0.989   1.832  0.2392 -1.3527 -0.1287
11440SOL     OW34913   3.332   0.226   3.788 -0.4644 -0.0072 -0.2245
11440SOL    HW134914   3.294   0.311   3.812  1.6004  1.2491 -1.2618
11440SOL    HW234915   3.269   0.188   3.728 -1.5334  0.6878  0.4381
11441SOL     OW34916   3.068   5.999   3.197  0.3718  0.1914  1.1072
11441SOL    HW134917   3.158   5.965   3.197  0.5814  0.7470  0.2612
11441SOL    HW234918   3.076   6.090   3.224  0.2214  0.6599 -0.4189
11442SOL     OW34919   5.837   2.984   3.443  0.3373  0.0386 -0.2330
11442SOL    HW134920   5.811   2.952   3.530  1.2022 -0.7286 -0.2464
11442SOL    HW234921   5.754   3.006   3.400 -0.2396 -1.4787  0.0623
11443SOL     OW34922   0.903   5.857   1.665 -0.4499  0.2021  0.6097
11443SOL    HW134923   0.892   5.802   1.742 -0.1939  0.9251  1.1671
11443SOL    HW234924   0.817   5.856   1.622 -0.6793  0.0441  1.0672
11444SOL     OW34925   4.185   7.156   3.785 -0.3093 -0.4215 -0.5670
11444SOL    HW134926   4.202   7.245   3.753 -0.6662  0.1426  0.7948
11444SOL    HW234927   4.272   7.116   3.792 -0.2084 -0.4927 -2.0211
11445SOL     OW34928   1.144   2.765   3.331  0.2592 -0.4788  0.3968
11445SOL    HW134929   1.170   2.675   3.311  0.7999  0.1026 -1.6114
11445SOL    HW234930   1.190   2.818   3.266  0.2327  1.2866  1.7933
11446SOL     OW34931   5.211   0.980   5.568  0.3318 -0.2343 -0.0698
11446SOL    HW134932   5.135   0.928   5.592  0.2791 -0.6835 -1.1764
11446SOL    HW234933   5.244   0.939   5.488  1.3968  0.3030  0.0796
11447SOL     OW34934   5.973   0.486   5.571  0.1135  0.2299  0.3384
11447SOL    HW134935   6.022   0.568   5.569  0.9806 -0.2799  0.5099
11447SOL    HW234936   6.015   0.434   5.640 -0.4549 -0.3410  0.2657
11448SOL     OW34937   6.508   6.978   6.575 -0.1038 -0.1419 -0.2218
11448SOL    HW134938   6.535   6.944   6.661  1.2192  1.0651 -0.1459
11448SOL    HW234939   6.419   7.010   6.589  0.7545  1.7408  1.2063
11449SOL     OW34940   2.138   2.651   6.774  0.2571  0.4664  0.8879
11449SOL    HW134941   2.201   2.579   6.780  0.1230  0.4267  1.8768
11449SOL    HW234942   2.054   2.612   6.797 -0.0987  0.5666 -0.2342
11450SOL     OW34943   2.481   5.660   0.886  0.0383  0.9101 -0.0307
11450SOL    HW134944   2.515   5.730   0.941  1.9690 -1.0925  1.3869
11450SOL    HW234945   2.559   5.618   0.850 -1.0622 -0.9920 -0.2387
11451SOL     OW34946   2.768   3.208   5.816 -0.2473  0.7557  0.3085
11451SOL    HW134947   2.681   3.200   5.856 -0.8219  0.5587 -0.9280
11451SOL    HW234948   2.761   3.157   5.735  0.1963  2.8335 -1.0796
11452SOL     OW34949   3.104   2.289   0.648 -0.5690 -0.8795 -0.3967
11452SOL    HW134950   3.180   2.334   0.683 -0.6273 -1.1284  0.0656
11452SOL    HW234951   3.140   2.222   0.589 -0.5418  0.6261 -2.1093
11453SOL     OW34952   6.143   1.371   1.675  0.3671 -0.2636 -0.6194
11453SOL    HW134953   6.088   1.420   1.613  0.8227  0.2966 -0.5889
11453SOL    HW234954   6.229   1.410   1.665  0.3863  0.0040  0.5612
11454SOL     OW34955   4.720   6.548   3.590 -0.4055 -0.5881 -0.2287
11454SOL    HW134956   4.659   6.585   3.654 -0.1415 -0.4496 -0.0620
11454SOL    HW234957   4.700   6.454   3.591  0.9868 -0.8818  1.5355
11455SOL     OW34958   6.129   0.887   4.318  0.1796 -0.2547 -0.1956
11455SOL    HW134959   6.087   0.886   4.404 -1.5006  0.2604 -0.9998
11455SOL    HW234960   6.139   0.980   4.297 -3.5692 -0.3025 -2.5330
11456SOL     OW34961   1.354   1.238   5.414 -0.3601 -0.7017  0.3825
11456SOL    HW134962   1.419   1.254   5.345 -0.4751 -1.0226  0.1949
11456SOL    HW234963   1.341   1.323   5.456  1.5533 -0.9955  1.6331
11457SOL     OW34964   5.817   5.566   2.184  0.3718 -0.3789 -0.4676
11457SOL    HW134965   5.790   5.491   2.236 -1.1655 -0.4758 -1.3864
11457SOL    HW234966   5.912   5.557   2.177  0.4515 -1.0247  1.2700
11458SOL     OW34967   2.615   4.277   4.505 -0.3644  0.2899 -0.0965
11458SOL    HW134968   2.672   4.341   4.461 -0.5335  0.9029  0.5705
11458SOL    HW234969   2.532   4.323   4.515 -0.6480 -0.2249 -0.0867
11459SOL     OW34970   5.480   6.266   1.649  0.3673  0.0824 -0.2380
11459SOL    HW134971   5.446   6.265   1.738  0.1171 -0.7438 -0.3430
11459SOL    HW234972   5.473   6.358   1.622 -2.2835 -0.1350 -0.4421
11460SOL     OW34973   2.616   2.425   2.937 -0.4199 -0.0655 -0.3562
11460SOL    HW134974   2.709   2.439   2.953  0.0843 -1.9946 -1.4747
11460SOL    HW234975   2.583   2.384   3.017 -0.5732  1.5851  0.4592
11461SOL     OW34976   3.276   0.297   6.756 -0.1159 -0.0513 -0.6432
11461SOL    HW134977   3.225   0.349   6.818 -0.0008 -1.1485  0.4116
11461SOL    HW234978   3.284   0.212   6.799  2.0551 -0.0861 -1.0713
11462SOL     OW34979   6.427   0.435   5.603 -0.1023 -0.6901 -0.9124
11462SOL    HW134980   6.394   0.396   5.523 -0.2221  2.2018 -2.3344
11462SOL    HW234981   6.357   0.493   5.633  0.5231 -0.6195  0.4724
11463SOL     OW34982   6.222   4.502   5.206  0.1439 -0.2505  0.5767
11463SOL    HW134983   6.153   4.440   5.184 -0.8228  0.5684  1.2736
11463SOL    HW234984   6.178   4.588   5.206  1.4416  0.4350 -0.3243
11464SOL     OW34985   4.353   4.686   1.905  0.0812  0.5946  0.0924
11464SOL    HW134986   4.297   4.612   1.879  0.7311  0.2412 -0.3356
11464SOL    HW234987   4.352   4.744   1.829 -2.2475  2.1574  1.2603
11465SOL     OW34988   6.458   0.655   4.741  0.0863  0.2546  0.4078
11465SOL    HW134989   6.428   0.743   4.718 -1.0545 -0.3452 -0.4502
11465SOL    HW234990   6.428   0.599   4.668  4.7453 -0.1352 -1.3655
11466SOL     OW34991   0.878   2.979   4.193  0.0429 -0.0365 -0.4384
11466SOL    HW134992   0.937   2.996   4.119  0.3244  1.6181  0.1516
11466SOL    HW234993   0.853   3.066   4.224 -1.3985 -0.7276  0.3718
11467SOL     OW34994   2.798   5.979   1.414 -0.2583 -0.2427  0.3817
11467SOL    HW134995   2.775   6.072   1.418  1.1252  0.1666 -0.5272
11467SOL    HW234996   2.754   5.940   1.488 -2.2607  0.8332 -0.2061
11468SOL     OW34997   4.336   6.034   5.454  0.0977  0.9558  0.0548
11468SOL    HW134998   4.359   6.109   5.510 -1.4928  3.1006 -2.0313
11468SOL    HW234999   4.331   6.071   5.366 -1.2149 -1.5369 -0.9719
11469SOL     OW35000   3.547   0.874   4.026  0.2108 -0.5296  0.2752
11469SOL    HW135001   3.512   0.845   4.110  0.5598 -1.0102  0.2568
11469SOL    HW235002   3.632   0.831   4.019  0.8971  0.7769  0.3993
11470SOL     OW35003   2.249   1.010   1.634  0.2290 -0.0553 -0.8164
11470SOL    HW135004   2.335   0.969   1.623  0.1631 -0.3956 -0.1406
11470SOL    HW235005   2.226   1.042   1.547  0.8620 -0.3165 -1.0862
11471SOL     OW35006   2.943   1.333   3.508 -0.3767 -0.2065 -0.4746
11471SOL    HW135007   3.013   1.270   3.527  1.0563  1.0648 -1.4089
11471SOL    HW235008   2.947   1.396   3.580  0.2364  0.5091 -1.1125
11472SOL     OW35009   1.347   3.772   2.171  0.0502  0.8931 -0.1526
11472SOL    HW135010   1.313   3.825   2.098 -0.0967 -0.0784 -0.7962
11472SOL    HW235011   1.434   3.746   2.144 -1.3853 -2.6119 -1.6724
11473SOL     OW35012   6.342   6.509   3.630  0.3291 -0.6581  0.1552
11473SOL    HW135013   6.352   6.563   3.551  3.2457 -1.1252  0.1586
11473SOL    HW235014   6.412   6.444   3.624  0.9646 -0.3492  3.3909
11474SOL     OW35015   1.048   3.574   1.968  0.3665  0.1940  0.1391
11474SOL    HW135016   0.989   3.627   2.021 -1.4658 -0.5610 -1.1019
11474SOL    HW235017   1.037   3.485   2.002 -0.7860 -0.2830 -1.4747
11475SOL     OW35018   4.122   4.442   5.763  0.0336  0.0565 -0.4732
11475SOL    HW135019   4.062   4.392   5.708  0.4165  1.1754 -1.9539
11475SOL    HW235020   4.073   4.519   5.789  0.7164  0.8449 -1.4705
11476SOL     OW35021   6.335   6.606   6.355  0.1044 -0.1903  0.4174
11476SOL    HW135022   6.372   6.518   6.346  0.3259 -0.0382 -0.1404
11476SOL    HW235023   6.408   6.660   6.384  0.5258  0.2761 -1.4749
11477SOL     OW35024   6.765   3.745   4.722  0.1711 -0.9683  0.6832
11477SOL    HW135025   6.677   3.713   4.701  0.4446 -0.1088 -1.9058
11477SOL    HW235026   6.821   3.703   4.657  1.0257  2.0202 -0.5603
11478SOL     OW35027   6.845   4.023   4.701 -0.6010 -0.0842  0.4529
11478SOL    HW135028   6.907   3.969   4.749 -0.4882 -0.0841  0.3069
11478SOL    HW235029   6.797   4.070   4.769 -0.2885  0.0853  0.5582
11479SOL     OW35030   1.929   2.378   0.592 -0.0944 -0.0231  0.0852
11479SOL    HW135031   2.019   2.346   0.589  0.4437  1.4559 -0.2529
11479SOL    HW235032   1.937   2.472   0.574 -1.6277  0.2717  0.8856
11480SOL     OW35033   3.738   1.039   2.336 -0.3161 -0.1056 -0.0837
11480SOL    HW135034   3.766   1.004   2.251  0.6589  0.4276  0.0119
11480SOL    HW235035   3.678   1.110   2.314  0.8044  0.7668 -0.3552
11481SOL     OW35036   3.671   5.376   2.741 -0.3131  0.1086  0.2518
11481SOL    HW135037   3.707   5.374   2.652 -1.7938 -1.1474 -0.3406
11481SOL    HW235038   3.742   5.410   2.795  1.0292 -0.2848 -1.2297
11482SOL     OW35039   4.390   0.388   3.944  0.1815 -0.4738  0.2533
11482SOL    HW135040   4.476   0.397   3.984  1.5538  0.1735 -2.7733
11482SOL    HW235041   4.361   0.478   3.928 -0.8405 -0.7010  0.7660
11483SOL     OW35042   1.012   5.279   4.706  0.3459  1.0404 -0.2264
11483SOL    HW135043   0.946   5.214   4.680  0.3065  0.7102  0.6725
11483SOL    HW235044   1.019   5.268   4.801 -0.2380  2.9070  0.0523
11484SOL     OW35045   3.054   5.570   5.800  0.1194 -0.4196 -0.0880
11484SOL    HW135046   3.078   5.488   5.843 -2.2443 -0.7249  0.7411
11484SOL    HW235047   3.072   5.637   5.865 -0.9789 -0.6136  0.4192
11485SOL     OW35048   3.148   2.745   5.023 -0.0533  0.0698  0.4627
11485SOL    HW135049   3.196   2.692   5.087  0.0063 -0.1967  0.1959
11485SOL    HW235050   3.202   2.824   5.013  1.6348 -1.3093 -1.7000
11486SOL     OW35051   0.528   3.154   0.949  0.3142  0.0790  0.4921
11486SOL    HW135052   0.588   3.197   0.887  0.7006 -2.0869 -0.6805
11486SOL    HW235053   0.584   3.092   0.996 -0.8548 -1.4459 -0.1033
11487SOL     OW35054   1.501   1.407   3.353 -0.0863 -0.0165  0.6702
11487SOL    HW135055   1.567   1.356   3.401 -0.2932  0.7819  1.8303
11487SOL    HW235056   1.552   1.468   3.300  0.1430 -0.8052 -0.0318
11488SOL     OW35057   0.603   3.147   6.957  0.0499 -0.2285  0.2938
11488SOL    HW135058   0.620   3.067   7.007  0.8311 -0.0089  0.3843
11488SOL    HW235059   0.511   3.139   6.930 -0.0740 -0.8350  0.8768
11489SOL     OW35060   4.281   3.169   3.981  0.2292 -0.0244  0.1511
11489SOL    HW135061   4.257   3.255   3.946  1.8226  0.5325  0.3975
11489SOL    HW235062   4.256   3.108   3.912 -1.5100  0.5630  0.2425
11490SOL     OW35063   7.092   6.958   6.667  0.1753  0.0081  0.1291
11490SOL    HW135064   7.136   6.978   6.750 -0.5371  0.3138  0.4335
11490SOL    HW235065   7.043   6.878   6.685 -0.0785  0.1435  0.0338
11491SOL     OW35066   2.602   2.830   0.102 -0.2106  0.1767 -0.1592
11491SOL    HW135067   2.669   2.838   0.034 -0.6200  1.5697 -0.4091
11491SOL    HW235068   2.522   2.808   0.054 -0.7481  2.2604 -0.2865
11492SOL     OW35069   4.817   1.651   1.976 -0.0205 -0.2773 -0.3367
11492SOL    HW135070   4.855   1.565   1.959  0.8751  0.0540 -0.0468
11492SOL    HW235071   4.771   1.640   2.060  0.0307 -0.4951 -0.3355
11493SOL     OW35072   6.323   5.394   3.590 -0.5318  0.0548 -0.3096
11493SOL    HW135073   6.262   5.321   3.594 -0.1878 -0.3393 -1.9993
11493SOL    HW235074   6.385   5.378   3.662 -2.7660  0.8218  1.8512
11494SOL     OW35075   6.155   6.810   0.266 -0.3598 -0.0974  0.1711
11494SOL    HW135076   6.215   6.826   0.193 -0.9050  0.2413 -0.2050
11494SOL    HW235077   6.158   6.716   0.280  0.7744 -0.0190  0.5982
11495SOL     OW35078   3.269   1.448   3.429 -0.3693  0.1909  0.0271
11495SOL    HW135079   3.212   1.376   3.455  1.2322 -1.3998 -0.8288
11495SOL    HW235080   3.320   1.414   3.356 -0.7723  2.7510 -1.4977
11496SOL     OW35081   2.944   2.591   6.904 -0.0386  0.0969 -0.2869
11496SOL    HW135082   2.951   2.584   6.999 -0.9648  0.3864 -0.1888
11496SOL    HW235083   2.853   2.618   6.889 -0.0354 -0.4319 -1.2805
11497SOL     OW35084   1.490   7.243   7.105  0.1438 -0.4938  0.3088
11497SOL    HW135085   1.535   7.326   7.086  0.4901 -0.7133  0.1660
11497SOL    HW235086   1.559   7.187   7.141 -0.1441 -0.6403  0.6276
11498SOL     OW35087   4.159   1.351   3.009  0.3046  0.2228  0.3612
11498SOL    HW135088   4.171   1.261   3.037 -0.9269  0.1022  0.5385
11498SOL    HW235089   4.245   1.392   3.020  0.1521 -0.1340  3.1928
11499SOL     OW35090   3.544   3.173   0.386  0.1568  0.3227 -0.0504
11499SOL    HW135091   3.492   3.144   0.311  0.9388  1.0623 -0.8997
11499SOL    HW235092   3.602   3.100   0.406 -0.9149 -0.3597  0.6567
11500SOL     OW35093   0.319   1.479   3.337  0.4647  0.6065  0.3995
11500SOL    HW135094   0.358   1.490   3.424  0.2691  0.3457  0.5218
11500SOL    HW235095   0.390   1.498   3.276  0.8023  0.0660  0.6172
11501SOL     OW35096   3.060   5.903   4.143 -0.1366  0.2021 -0.0905
11501SOL    HW135097   3.070   5.994   4.171  0.6981  0.8232 -2.2776
11501SOL    HW235098   3.139   5.860   4.175 -0.0429  0.4837  0.0628
11502SOL     OW35099   6.509   6.864   3.847  0.7123  0.0550 -0.5078
11502SOL    HW135100   6.447   6.918   3.798 -0.2737 -1.4329 -0.9516
11502SOL    HW235101   6.481   6.871   3.938 -1.5413 -2.3611 -0.9516
11503SOL     OW35102   2.507   4.751   1.548 -0.0735 -0.1236  0.0577
11503SOL    HW135103   2.601   4.769   1.537  0.2628 -1.3966  0.7123
11503SOL    HW235104   2.503   4.690   1.622 -1.4223 -0.1095  0.0065
11504SOL     OW35105   2.105   1.484   0.998  0.3236 -0.1365 -0.4896
11504SOL    HW135106   2.040   1.445   0.940  0.1438  1.9384 -1.7591
11504SOL    HW235107   2.068   1.474   1.086 -0.2875 -1.6413 -0.9058
11505SOL     OW35108   5.250   6.590   2.788 -0.5647 -0.4685  0.7555
11505SOL    HW135109   5.179   6.649   2.762 -0.8974 -2.8400 -4.3559
11505SOL    HW235110   5.209   6.503   2.791  1.5387 -1.4912  0.4133
11506SOL     OW35111   0.431   0.344   0.344  0.1853 -0.0327 -0.7890
11506SOL    HW135112   0.457   0.316   0.257 -1.1717 -0.0050 -1.2036
11506SOL    HW235113   0.470   0.431   0.354  2.7264 -1.1564 -0.2558
11507SOL     OW35114   1.022   2.124   4.564 -0.2046 -0.7563  0.0090
11507SOL    HW135115   0.973   2.200   4.596  0.6848  0.4927 -1.5142
11507SOL    HW235116   1.053   2.081   4.644 -0.2741  0.7841  0.9047
11508SOL     OW35117   5.386   2.005   3.092  0.4500  0.3379  0.0311
11508SOL    HW135118   5.394   2.016   3.187  1.5471  1.3002 -0.1522
11508SOL    HW235119   5.335   2.082   3.064  0.0817  0.0269 -0.1541
11509SOL     OW35120   2.390   3.572   2.825  0.1233  0.0100  0.0711
11509SOL    HW135121   2.355   3.630   2.893  0.9570  2.0436 -1.1859
11509SOL    HW235122   2.315   3.518   2.799 -0.2312 -0.6913  2.4776
11510SOL     OW35123   1.557   2.755   7.052  0.2790 -0.6501 -0.6754
11510SOL    HW135124   1.462   2.768   7.050 -0.0649 -1.7833  3.1653
11510SOL    HW235125   1.570   2.669   7.012 -0.1337  0.0743 -2.4239
11511SOL     OW35126   5.605   0.279   4.227 -0.4022 -0.0590  0.1722
11511SOL    HW135127   5.680   0.337   4.220  0.5952 -1.0935  1.8470
11511SOL    HW235128   5.540   0.328   4.276  0.2562 -0.1783  1.1671
11512SOL     OW35129   6.187   4.876   1.256 -0.3131 -0.1204 -0.2085
11512SOL    HW135130   6.240   4.805   1.291 -0.3871  0.1858  0.5218
11512SOL    HW235131   6.124   4.896   1.325 -1.4405 -0.5420 -1.0971
11513SOL     OW35132   2.719   1.921   3.711 -0.4931  0.0427 -0.2237
11513SOL    HW135133   2.687   1.880   3.631  1.1581  0.0562 -0.9076
11513SOL    HW235134   2.760   1.850   3.760  2.4436  0.8115 -1.4464
11514SOL     OW35135   3.340   7.165   2.396 -0.5042  0.2983  0.0911
11514SOL    HW135136   3.316   7.245   2.349  0.4061 -0.8425 -2.4206
11514SOL    HW235137   3.425   7.140   2.359 -0.8739 -1.9409  0.6799
11515SOL     OW35138   6.915   4.486   5.439  0.1793  0.2404  0.1760
11515SOL    HW135139   6.882   4.570   5.408 -0.3765  0.0631  0.2892
11515SOL    HW235140   6.838   4.441   5.474  0.2579 -0.7988 -0.9684
11516SOL     OW35141   4.277   6.412   2.705 -0.5216 -0.3308  0.0694
11516SOL    HW135142   4.217   6.361   2.759 -0.8174 -1.1692 -1.0446
11516SOL    HW235143   4.281   6.365   2.622  0.9674  0.2280 -0.1824
11517SOL     OW35144   6.595   4.808   2.913  0.2088  0.5962  0.2186
11517SOL    HW135145   6.583   4.734   2.854  0.9147 -0.2460  1.1298
11517SOL    HW235146   6.535   4.875   2.879 -1.2031 -0.7418  0.0059
11518SOL     OW35147   1.458   3.718   0.590  0.0147 -0.4486 -0.2838
11518SOL    HW135148   1.391   3.664   0.632 -0.7644  0.3259 -0.5281
11518SOL    HW235149   1.450   3.696   0.497 -1.9407  1.8606 -0.6924
11519SOL     OW35150   6.003   1.619   3.513  1.0380  0.5826  0.0542
11519SOL    HW135151   6.075   1.650   3.457  0.4170  0.7081 -0.6928
11519SOL    HW235152   6.040   1.547   3.563  1.4216  0.0078 -1.0336
11520SOL     OW35153   6.497   4.951   3.981  0.4489 -0.8539 -0.7596
11520SOL    HW135154   6.473   4.907   3.899  0.3235 -1.4935 -0.3874
11520SOL    HW235155   6.534   5.035   3.954 -3.5491  0.8508 -1.3099
11521SOL     OW35156   2.955   0.039   5.309  0.1207  0.2865 -0.1993
11521SOL    HW135157   3.048   0.026   5.327  0.2850 -0.4094 -1.4512
11521SOL    HW235158   2.947   0.130   5.280  0.2000  0.7361  1.1880
11522SOL     OW35159   6.412   6.774   2.042 -0.3046  0.7644 -0.1567
11522SOL    HW135160   6.384   6.689   2.077  3.2033 -0.1412  0.6966
11522SOL    HW235161   6.367   6.781   1.958 -2.5355 -0.7859  0.8353
11523SOL     OW35162   5.146   0.587   0.454 -0.2346  0.3486 -0.9401
11523SOL    HW135163   5.133   0.681   0.467  1.1989  0.1954  1.9448
11523SOL    HW235164   5.221   0.582   0.395  1.3493  1.0413  0.9597
11524SOL     OW35165   3.828   0.075   3.259 -0.6420  0.4697  0.1298
11524SOL    HW135166   3.781   0.015   3.316 -2.4222  1.6194 -0.0749
11524SOL    HW235167   3.760   0.113   3.204  0.7161  1.2341 -1.0529
11525SOL     OW35168   3.420   2.482   4.416 -0.3199 -0.2867 -0.2317
11525SOL    HW135169   3.358   2.450   4.483 -1.0061 -0.0145 -0.7271
11525SOL    HW235170   3.398   2.575   4.407  1.4634  0.2713  0.9854
11526SOL     OW35171   7.013   3.635   7.250  0.2070  0.6012  0.2281
11526SOL    HW135172   7.084   3.689   7.214  0.3255  0.8467  0.8223
11526SOL    HW235173   7.044   3.545   7.242  0.9592  0.7574  1.2855
11527SOL     OW35174   3.719   4.093   0.171 -0.1809 -0.2287  0.1300
11527SOL    HW135175   3.639   4.100   0.222 -0.5994  0.0374 -0.5519
11527SOL    HW235176   3.691   4.060   0.086  0.4613 -0.3477 -0.0385
11528SOL     OW35177   5.086   6.880   3.360 -0.1100  0.2257  0.0566
11528SOL    HW135178   5.045   6.950   3.412 -1.3029 -1.5190  1.5599
11528SOL    HW235179   5.048   6.890   3.273  0.2735  1.8714  0.0591
11529SOL     OW35180   6.215   5.284   2.946 -0.0569  0.0493  0.0144
11529SOL    HW135181   6.196   5.274   3.039 -1.6714 -2.4815 -0.5553
11529SOL    HW235182   6.155   5.352   2.916  0.6606  1.0705  0.8478
11530SOL     OW35183   7.058   0.804   6.836 -0.9199  0.4042 -0.4482
11530SOL    HW135184   7.111   0.878   6.809 -1.4726  1.5144  1.3999
11530SOL    HW235185   7.064   0.804   6.932 -1.0782 -1.8210 -0.4205
11531SOL     OW35186   5.151   1.689   2.087  0.5179  0.6193 -0.0338
11531SOL    HW135187   5.159   1.726   1.999  0.4931 -0.4030 -0.4749
11531SOL    HW235188   5.149   1.595   2.073 -2.0381  0.5095  0.8639
11532SOL     OW35189   0.767   3.445   4.347 -0.0879 -0.1357  0.3220
11532SOL    HW135190   0.775   3.441   4.442  0.4633  1.8465  0.3795
11532SOL    HW235191   0.838   3.503   4.319  0.2880 -1.3700 -1.3820
11533SOL     OW35192   0.403   2.994   3.069 -0.0041  0.0091  0.2134
11533SOL    HW135193   0.427   3.066   3.011  0.7454 -0.2548  0.1848
11533SOL    HW235194   0.451   2.919   3.034 -0.4363 -0.4025  0.5053
11534SOL     OW35195   1.637   6.440   1.481 -0.1323  0.1328 -0.2670
11534SOL    HW135196   1.568   6.496   1.518  1.3001  2.9489 -1.7305
11534SOL    HW235197   1.694   6.500   1.434  2.9325 -2.2584  0.2600
11535SOL     OW35198   3.369   6.239   1.307  0.7408 -0.1294  0.0832
11535SOL    HW135199   3.390   6.255   1.399 -0.1964  0.4307  0.2105
11535SOL    HW235200   3.398   6.319   1.262  3.0546 -1.2129 -0.4225
11536SOL     OW35201   3.737   3.039   4.136  0.2990 -0.1359 -0.2021
11536SOL    HW135202   3.764   3.086   4.058  0.3420  0.4447  0.1558
11536SOL    HW235203   3.677   3.099   4.180  1.2044  0.0414  0.8212
11537SOL     OW35204   2.361   5.606   3.028 -0.0951  0.2671 -0.1870
11537SOL    HW135205   2.289   5.552   3.062  0.6573 -0.1835  0.7240
11537SOL    HW235206   2.327   5.642   2.946 -1.0051 -0.7358 -0.2689
11538SOL     OW35207   6.487   3.971   4.279 -0.3086 -0.2056 -0.4740
11538SOL    HW135208   6.541   3.902   4.241  0.4245  0.9547 -1.5311
11538SOL    HW235209   6.405   3.968   4.229 -0.5506 -0.7624 -0.0546
11539SOL     OW35210   3.321   6.107   5.836 -0.4184  0.0952  0.8868
11539SOL    HW135211   3.232   6.104   5.800 -0.6653  0.6905  1.4351
11539SOL    HW235212   3.316   6.057   5.918  0.1986 -1.4587 -0.0021
11540SOL     OW35213   6.951   6.374   1.408 -0.0860 -0.2176 -0.1543
11540SOL    HW135214   6.946   6.458   1.363  0.7497  0.8474  1.6846
11540SOL    HW235215   6.987   6.314   1.342 -0.7808  0.8148 -1.5106
11541SOL     OW35216   7.159   3.061   4.869 -0.4574  0.1516 -0.6539
11541SOL    HW135217   7.138   2.968   4.860 -1.8529  0.0904  2.5810
11541SOL    HW235218   7.076   3.106   4.850 -0.6504  0.5257  0.9660
11542SOL     OW35219   4.007   2.695   0.385  0.4942  0.0872 -0.2087
11542SOL    HW135220   3.920   2.675   0.417 -0.2133  1.5760 -1.1535
11542SOL    HW235221   4.066   2.655   0.449 -0.8741  0.0600  1.0447
11543SOL     OW35222   3.534   3.873   4.109  0.1589  0.2469 -0.1196
11543SOL    HW135223   3.503   3.820   4.182  1.2001  0.4584  0.4896
11543SOL    HW235224   3.454   3.906   4.068 -0.4508 -0.3414  0.5751
11544SOL     OW35225   1.981   4.817   6.137 -0.1678 -0.0442 -0.0791
11544SOL    HW135226   1.991   4.725   6.159  0.5675  0.0921  0.1651
11544SOL    HW235227   2.018   4.865   6.211  0.9679  0.4242 -0.9171
11545SOL     OW35228   6.627   3.083   4.980  0.0397  0.6964 -0.1351
11545SOL    HW135229   6.637   3.169   5.021  0.6088  0.5759 -0.0090
11545SOL    HW235230   6.642   3.021   5.051 -1.6848  0.4972  0.0609
11546SOL     OW35231   1.209   4.567   6.272  0.8065 -0.0125  0.0587
11546SOL    HW135232   1.282   4.517   6.236  0.0241 -0.0168 -1.5780
11546SOL    HW235233   1.166   4.606   6.195 -0.2392  0.9017  1.0820
11547SOL     OW35234   5.711   0.957   5.296 -0.5665 -0.4961 -0.7664
11547SOL    HW135235   5.679   0.979   5.208 -1.9328  0.6686  0.0033
11547SOL    HW235236   5.764   1.032   5.322  0.0616 -0.9628 -0.7015
11548SOL     OW35237   4.929   2.422   2.596  0.5088  0.3659  0.6517
11548SOL    HW135238   4.986   2.358   2.639  0.8192 -0.0973 -0.4434
11548SOL    HW235239   4.886   2.468   2.668  0.3889 -0.9774  1.4558
11549SOL     OW35240   1.288   2.005   3.827 -0.6356 -0.0987 -0.2209
11549SOL    HW135241   1.265   1.924   3.873  2.9289 -0.6230  0.8502
11549SOL    HW235242   1.278   2.074   3.892  2.3756 -0.5716  0.8423
11550SOL     OW35243   6.294   2.592   2.369  0.3799  0.4179  0.0488
11550SOL    HW135244   6.271   2.499   2.363 -1.7459  0.7837  1.7954
11550SOL    HW235245   6.277   2.626   2.281  1.1055 -0.8211 -0.5903
11551SOL     OW35246   5.469   4.457   1.479 -0.1090  0.1902  0.2023
11551SOL    HW135247   5.436   4.371   1.454 -2.0471  1.2847 -1.0988
11551SOL    HW235248   5.548   4.438   1.530 -0.0774 -2.3199 -0.7052
11552SOL     OW35249   0.175   3.563   1.996 -0.0847 -0.0739 -0.2016
11552SOL    HW135250   0.169   3.537   2.088 -1.4061  0.9303  0.0241
11552SOL    HW235251   0.094   3.529   1.957  0.2155 -0.0223 -0.8704
11553SOL     OW35252   1.395   1.785   4.746 -0.3043 -0.7462  0.0414
11553SOL    HW135253   1.326   1.722   4.766 -1.7207  0.5078 -0.7560
11553SOL    HW235254   1.382   1.855   4.810 -1.0490  0.4273 -1.3644
11554SOL     OW35255   4.378   1.810   1.459 -0.3430 -0.4409  0.5760
11554SOL    HW135256   4.393   1.749   1.387  0.5978 -0.9709  1.2053
11554SOL    HW235257   4.459   1.807   1.510  0.1265  2.0659  0.0835
11555SOL     OW35258   0.600   6.779   5.243  0.1441 -0.0923 -0.1243
11555SOL    HW135259   0.575   6.837   5.316 -1.0263 -0.0199 -0.5688
11555SOL    HW235260   0.652   6.710   5.285 -0.9835 -0.3606  0.8800
11556SOL     OW35261   5.037   6.211   1.846 -0.0606 -0.0929  0.1458
11556SOL    HW135262   5.081   6.229   1.763  0.3768 -0.0400  0.3876
11556SOL    HW235263   4.982   6.135   1.828 -1.2862  0.9533 -0.6588
11557SOL     OW35264   3.473   5.887   3.781 -0.1340 -0.3567 -0.2905
11557SOL    HW135265   3.476   5.983   3.792  1.7408 -0.4263 -0.0101
11557SOL    HW235266   3.431   5.856   3.861  1.6348  0.0857  0.8623
11558SOL     OW35267   6.534   2.787   6.185 -0.0220  0.4507 -0.5452
11558SOL    HW135268   6.553   2.695   6.204  0.2019  0.2464 -1.6970
11558SOL    HW235269   6.440   2.790   6.171 -0.2640  0.7004  1.0858
11559SOL     OW35270   4.189   1.468   3.862  0.2448 -0.0235 -0.3669
11559SOL    HW135271   4.206   1.461   3.956  0.3332  1.8784 -0.2175
11559SOL    HW235272   4.094   1.466   3.855  0.1662  1.9540 -0.0272
11560SOL     OW35273   4.608   0.552   0.700 -0.6619  0.2175 -0.3304
11560SOL    HW135274   4.556   0.585   0.626 -1.4760  1.2549  0.6697
11560SOL    HW235275   4.576   0.602   0.775 -0.9427 -1.9250  1.0088
11561SOL     OW35276   0.627   6.376   5.206  0.5862 -0.9131  0.1011
11561SOL    HW135277   0.552   6.423   5.170  2.6338 -0.4063 -3.8367
11561SOL    HW235278   0.678   6.444   5.251  0.2809 -0.6134  0.0007
11562SOL     OW35279   5.983   6.620   2.739 -0.1153  0.2867  0.6434
11562SOL    HW135280   5.909   6.597   2.684 -1.7129  3.0392  1.5592
11562SOL    HW235281   6.026   6.692   2.694  0.1584  0.7737  1.6626
11563SOL     OW35282   4.852   3.708   5.973  0.1948 -0.1091  0.2558
11563SOL    HW135283   4.931   3.753   6.003  0.1982 -0.8821  1.4507
11563SOL    HW235284   4.873   3.615   5.979 -0.8221 -0.3261  0.6445
11564SOL     OW35285   0.006   7.172   4.469 -0.2898 -0.3471  1.0256
11564SOL    HW135286   0.022   7.077   4.474  0.1693 -0.6433 -3.2921
11564SOL    HW235287  -0.085   7.179   4.442 -0.3736  0.4556  1.5257
11565SOL     OW35288   5.676   6.578   1.137 -0.0607  0.7262  0.0407
11565SOL    HW135289   5.592   6.592   1.181  0.8341  0.5040  1.8593
11565SOL    HW235290   5.699   6.488   1.158  0.6593  0.8009 -0.4055
11566SOL     OW35291   1.661   0.925   0.710  0.1645  0.4074 -0.2847
11566SOL    HW135292   1.736   0.965   0.665  1.1186  1.5347  2.1996
11566SOL    HW235293   1.701   0.872   0.780 -1.3367  1.3491  1.3263
11567SOL     OW35294   3.385   5.661   3.228  0.3551  0.3914  0.4740
11567SOL    HW135295   3.327   5.644   3.154 -0.1213 -0.9106  1.1218
11567SOL    HW235296   3.376   5.754   3.244 -2.0505  0.1247  0.9415
11568SOL     OW35297   3.045   5.950   6.250  0.0232 -0.0632 -0.6747
11568SOL    HW135298   2.951   5.962   6.231 -0.2508 -0.6641  0.2604
11568SOL    HW235299   3.046   5.899   6.331  1.1775  0.9317 -0.0610
11569SOL     OW35300   6.730   0.152   3.999  0.2563  0.4941 -0.1988
11569SOL    HW135301   6.754   0.232   3.951  1.1522  0.4081  0.1008
11569SOL    HW235302   6.776   0.082   3.953 -3.8073 -0.4606 -3.0593
11570SOL     OW35303   3.923   6.982   5.729  0.2572  0.6939  0.6889
11570SOL    HW135304   3.872   6.910   5.691  1.2712  0.2488  0.1525
11570SOL    HW235305   4.001   6.987   5.674  0.3762  1.9573  0.9590
11571SOL     OW35306   0.782   0.471   1.117 -0.3789  0.5365  0.1802
11571SOL    HW135307   0.691   0.475   1.087 -0.7034  0.2384  1.1108
11571SOL    HW235308   0.782   0.403   1.184  0.9176 -0.7982 -1.1281
11572SOL     OW35309   3.372   3.777   3.489 -0.7585  0.4446  0.1913
11572SOL    HW135310   3.418   3.701   3.454 -0.1001  0.5588  0.7918
11572SOL    HW235311   3.409   3.790   3.576  0.8038  2.8182 -0.7598
11573SOL     OW35312   5.856   4.157   0.290 -0.3556  0.9563 -0.0638
11573SOL    HW135313   5.869   4.063   0.296  0.8398  0.9153 -2.6397
11573SOL    HW235314   5.830   4.172   0.199 -1.3310  3.0358  0.5156
11574SOL     OW35315   3.684   6.552   2.567  0.3281  0.3640  0.1096
11574SOL    HW135316   3.683   6.646   2.549  2.2547  0.1329 -1.2660
11574SOL    HW235317   3.700   6.511   2.482 -0.4877 -1.2206  0.6943
11575SOL     OW35318   3.446   5.650   0.482  0.9135 -0.4932 -0.7568
11575SOL    HW135319   3.504   5.652   0.406  0.2882  0.7179 -1.2096
11575SOL    HW235320   3.430   5.742   0.503 -2.5637 -0.7294 -2.0067
11576SOL     OW35321   6.053   2.399   6.964 -0.0533 -0.0359  0.2115
11576SOL    HW135322   6.041   2.353   7.047 -0.4882 -0.0281  0.1527
11576SOL    HW235323   6.122   2.463   6.982 -0.6573  0.4566  0.7707
11577SOL     OW35324   1.443   1.452   1.501  0.1096  0.1683 -0.2018
11577SOL    HW135325   1.402   1.512   1.439  0.1830 -0.7702 -1.1554
11577SOL    HW235326   1.376   1.440   1.569 -0.6500 -0.2184 -1.0088
11578SOL     OW35327   7.033   2.118   0.229 -0.2581  0.3551  0.3838
11578SOL    HW135328   6.984   2.074   0.299 -0.3485 -1.2521 -0.6695
11578SOL    HW235329   7.122   2.084   0.238 -0.4700 -0.5567 -0.8318
11579SOL     OW35330   0.841   5.288   2.650  0.2549  0.3682 -0.8373
11579SOL    HW135331   0.848   5.376   2.612  1.1552  0.6961  0.0850
11579SOL    HW235332   0.836   5.302   2.744 -1.2865 -0.4906 -0.7656
11580SOL     OW35333   2.531   1.313   0.754  0.7459  0.1221 -0.2720
11580SOL    HW135334   2.524   1.223   0.786 -1.5879  0.8340  1.4033
11580SOL    HW235335   2.622   1.338   0.772  0.8971 -1.2934  1.0351
11581SOL     OW35336   3.481   5.914   5.679 -0.2279  0.4291 -0.1809
11581SOL    HW135337   3.426   5.977   5.726 -1.3739 -1.1794  0.6689
11581SOL    HW235338   3.500   5.846   5.743  2.1076  0.5490 -0.7071
11582SOL     OW35339   2.324   5.616   0.681  0.1155  0.0898 -0.6101
11582SOL    HW135340   2.400   5.611   0.623 -0.4346  1.3606 -1.4410
11582SOL    HW235341   2.358   5.652   0.763  0.4586  0.3893 -0.8859
11583SOL     OW35342   1.895   3.903   3.026 -0.2449 -0.1620 -0.1977
11583SOL    HW135343   1.888   3.990   2.988 -0.9929  0.3681  1.1153
11583SOL    HW235344   1.958   3.857   2.970  0.5755  1.3881 -0.5767
11584SOL     OW35345   4.184   4.878   4.443  0.2649 -0.1243  0.2598
11584SOL    HW135346   4.208   4.958   4.490 -1.3245 -0.0702  1.0063
11584SOL    HW235347   4.202   4.898   4.351  2.0717  0.2570  0.6791
11585SOL     OW35348   3.674   5.765   2.141  0.0670 -0.1432 -0.3225
11585SOL    HW135349   3.740   5.806   2.197 -0.6016 -0.5535  0.7624
11585SOL    HW235350   3.675   5.818   2.061 -0.3185  1.6066  0.8108
11586SOL     OW35351   5.805   3.879   3.708  0.4049  0.4220  0.3405
11586SOL    HW135352   5.760   3.820   3.768  2.2138 -0.5645  0.7609
11586SOL    HW235353   5.862   3.931   3.764  0.6902  0.8190 -0.3188
11587SOL     OW35354   0.393   1.080   0.483 -0.3843 -0.0030 -0.0924
11587SOL    HW135355   0.432   1.157   0.524  0.0390  0.0557 -0.6078
11587SOL    HW235356   0.404   1.094   0.389  0.9892 -1.3783 -0.1495
11588SOL     OW35357   2.653   2.991   2.273  0.0539 -0.0792  0.0790
11588SOL    HW135358   2.641   2.921   2.210  2.2240 -0.1141 -0.3160
11588SOL    HW235359   2.564   3.011   2.304 -0.7468 -1.8199 -1.0479
11589SOL     OW35360   5.400   3.421   6.518  0.1630  0.3036  0.2058
11589SOL    HW135361   5.418   3.467   6.600  0.8777 -0.9244  0.7488
11589SOL    HW235362   5.334   3.476   6.474 -1.2941  0.2584  2.2427
11590SOL     OW35363   2.566   2.273   6.538 -0.3201  0.1497  0.4169
11590SOL    HW135364   2.566   2.177   6.542  1.3390  0.1388  0.5956
11590SOL    HW235365   2.474   2.297   6.542 -0.6715 -1.3532  2.6721
11591SOL     OW35366   6.923   4.625   4.899  0.2426 -0.2197  0.0184
11591SOL    HW135367   6.871   4.634   4.819 -1.1351 -1.3909  0.7586
11591SOL    HW235368   6.940   4.715   4.927 -1.6635  0.2011 -0.0874
11592SOL     OW35369   0.963   1.388   0.342 -0.2452  0.0952 -0.0743
11592SOL    HW135370   0.964   1.468   0.290 -0.8286  1.1432  1.4917
11592SOL    HW235371   0.945   1.318   0.279 -0.9026  1.3343 -1.2733
11593SOL     OW35372   4.112   7.112   3.390  0.2650 -0.5384 -0.1486
11593SOL    HW135373   4.163   7.040   3.429  0.8404 -0.1231 -0.1283
11593SOL    HW235374   4.030   7.112   3.440  0.5516 -0.7183  0.3328
11594SOL     OW35375   1.144   3.271   0.641  0.5051 -0.2407 -0.0045
11594SOL    HW135376   1.063   3.268   0.692  0.8394 -0.6461  0.5026
11594SOL    HW235377   1.206   3.217   0.690  1.1244  0.1655 -0.3295
11595SOL     OW35378   2.970   6.782   4.755 -0.2318  0.3626  0.0551
11595SOL    HW135379   2.969   6.747   4.844  0.1567  1.4594  0.4983
11595SOL    HW235380   2.878   6.802   4.735 -0.4106 -0.5568 -0.0708
11596SOL     OW35381   5.503   0.560   4.023 -0.2725  0.7395 -0.7956
11596SOL    HW135382   5.591   0.570   4.061 -0.5429  0.1538 -0.0013
11596SOL    HW235383   5.486   0.466   4.028 -0.7833  0.8001 -1.3248
11597SOL     OW35384   3.862   4.337   5.528 -0.3433  0.4044 -0.0707
11597SOL    HW135385   3.767   4.348   5.528 -0.4834 -0.7751  1.2857
11597SOL    HW235386   3.879   4.268   5.592  1.2349 -1.0974 -2.0145
11598SOL     OW35387   2.525   6.615   3.305 -0.2033 -0.2953  0.1962
11598SOL    HW135388   2.552   6.550   3.370 -3.0842  0.6579  2.4867
11598SOL    HW235389   2.474   6.565   3.241 -1.3420 -0.5134  1.2610
11599SOL     OW35390   4.194   6.814   5.423  0.0037 -0.3038 -0.2640
11599SOL    HW135391   4.238   6.857   5.496  1.3912 -0.9529 -0.7045
11599SOL    HW235392   4.119   6.870   5.405  0.1603  0.3668  1.0508
11600SOL     OW35393   0.635   2.087   6.630  0.1207 -0.2313  0.5957
11600SOL    HW135394   0.540   2.084   6.642  0.0067 -1.6761 -0.4679
11600SOL    HW235395   0.668   2.134   6.706 -1.4586  0.3244  0.9445
11601SOL     OW35396   2.412   1.998   3.600 -0.2826  0.0702 -0.0176
11601SOL    HW135397   2.469   2.074   3.587  1.5246 -0.7904  2.7171
11601SOL    HW235398   2.462   1.925   3.564 -1.1104 -0.2011 -0.6371
11602SOL     OW35399   6.341   5.584   5.014  0.1652  0.4288 -0.0777
11602SOL    HW135400   6.336   5.511   4.951 -0.1640  0.2701  0.1298
11602SOL    HW235401   6.292   5.553   5.090  1.6050  0.1483  0.7414
11603SOL     OW35402   5.246   0.641   3.139 -0.0832  0.4869  1.0637
11603SOL    HW135403   5.231   0.715   3.080  1.3429 -0.7264 -0.9032
11603SOL    HW235404   5.167   0.588   3.131  0.0637  0.3760  0.2812
11604SOL     OW35405   0.879   4.650   0.402  0.2015  0.4203 -0.1045
11604SOL    HW135406   0.839   4.720   0.350  1.7705 -0.5505 -2.7178
11604SOL    HW235407   0.814   4.579   0.400 -0.4088  0.9569  0.5921
11605SOL     OW35408   1.086   3.757   6.225 -0.4720 -0.0607  0.0525
11605SOL    HW135409   1.158   3.702   6.254 -0.4380 -1.3354 -2.3140
11605SOL    HW235410   1.018   3.695   6.199 -1.2020  1.0485 -0.7202
11606SOL     OW35411   0.651   0.536   5.531  0.4020  0.1420 -0.0569
11606SOL    HW135412   0.627   0.619   5.574 -0.5743  0.2453 -0.7772
11606SOL    HW235413   0.679   0.479   5.602  0.5267  0.9073  0.5131
11607SOL     OW35414   0.745   2.941   0.190  0.4053  0.0843  0.9380
11607SOL    HW135415   0.670   2.991   0.157 -0.3360 -1.8914 -0.4354
11607SOL    HW235416   0.799   2.926   0.113 -0.3371 -2.8455  0.9526
11608SOL     OW35417   2.805   7.111   3.968  0.0307 -0.0377  0.0102
11608SOL    HW135418   2.744   7.040   3.983  0.4074 -0.2226  0.6893
11608SOL    HW235419   2.880   7.091   4.024 -0.6665  1.8830  1.7231
11609SOL     OW35420   5.091   3.742   5.318 -0.8486  0.0001 -0.5127
11609SOL    HW135421   5.178   3.783   5.314 -0.1698 -1.4797 -1.1241
11609SOL    HW235422   5.065   3.749   5.410 -0.8194  1.9293 -0.6209
11610SOL     OW35423   4.881   1.150   0.837 -0.5872 -0.7590 -0.3140
11610SOL    HW135424   4.970   1.181   0.819 -0.3500 -2.2403 -1.8259
11610SOL    HW235425   4.883   1.123   0.929  0.4431 -0.5255 -0.2626
11611SOL     OW35426   5.283   4.139   4.223 -0.4767 -0.3032 -0.0681
11611SOL    HW135427   5.192   4.118   4.243 -0.1075 -0.5914  1.3318
11611SOL    HW235428   5.304   4.212   4.282  0.0336  0.1349 -0.7793
11612SOL     OW35429   4.469   2.998   6.903  0.2937  0.3606 -0.0765
11612SOL    HW135430   4.510   3.035   6.825 -1.5479  1.2655 -0.6329
11612SOL    HW235431   4.377   2.987   6.879  0.0534 -0.9904  1.3850
11613SOL     OW35432   3.499   6.225   4.653 -0.1690  0.2334  0.1037
11613SOL    HW135433   3.524   6.196   4.565 -1.2137 -0.6310  0.0920
11613SOL    HW235434   3.550   6.170   4.712  0.1527  0.4704  0.0499
11614SOL     OW35435   2.822   0.964   2.679  0.3567  0.4420  0.1995
11614SOL    HW135436   2.768   0.891   2.710  2.4580 -0.7427  1.1871
11614SOL    HW235437   2.865   0.931   2.600  1.5208  0.4996  0.7997
11615SOL     OW35438   3.868   0.911   4.114 -0.2316  0.7912 -0.3681
11615SOL    HW135439   3.925   0.918   4.037  0.4452  0.4854  0.1022
11615SOL    HW235440   3.850   1.001   4.140  1.2260  0.8854  0.3542
11616SOL     OW35441   3.964   6.559   0.301  0.3551  0.4549  0.0828
11616SOL    HW135442   3.952   6.649   0.331  1.4625  0.7720 -0.3848
11616SOL    HW235443   3.965   6.507   0.381  0.2065  0.9142  0.3849
11617SOL     OW35444   0.659   3.488   1.319  0.2001 -0.0853  0.1265
11617SOL    HW135445   0.579   3.491   1.267  0.6933  0.5661 -0.6219
11617SOL    HW235446   0.688   3.580   1.322  1.0700 -0.3577  0.1370
11618SOL     OW35447   4.212   6.548   3.135 -0.0967  0.4158  0.1619
11618SOL    HW135448   4.283   6.591   3.182 -0.8985  2.6277 -0.5788
11618SOL    HW235449   4.249   6.531   3.048 -0.1611  0.7200  0.0731
11619SOL     OW35450   2.356   5.338   4.304  0.4897  0.1548 -0.4247
11619SOL    HW135451   2.425   5.394   4.270  2.4041 -0.2033  2.6220
11619SOL    HW235452   2.389   5.249   4.292  0.9214  0.0024  1.6697
11620SOL     OW35453   1.983   0.195   0.685  0.6768  0.1284  0.2530
11620SOL    HW135454   2.028   0.126   0.733  1.1679  0.6598  0.5725
11620SOL    HW235455   1.920   0.231   0.748 -0.2603 -0.6728 -0.2210
11621SOL     OW35456   1.257   6.702   2.247  0.3615 -0.5956  0.0892
11621SOL    HW135457   1.245   6.797   2.253 -0.1335 -0.5232 -1.8125
11621SOL    HW235458   1.292   6.677   2.333 -0.4877  1.1511  0.9759
11622SOL     OW35459   2.152   0.006   0.814 -0.4401  0.3895 -0.3818
11622SOL    HW135460   2.085  -0.029   0.872 -0.3924  2.7850  1.2209
11622SOL    HW235461   2.225   0.028   0.873  0.4966  0.7457 -1.6552
11623SOL     OW35462   2.299   0.364   3.169  0.6406 -0.2118 -0.0577
11623SOL    HW135463   2.313   0.379   3.262  1.2347  0.4390 -0.2474
11623SOL    HW235464   2.315   0.270   3.157  0.5332 -0.3022  0.4979
11624SOL     OW35465   4.498   0.931   2.742 -0.1970  0.4263 -0.3927
11624SOL    HW135466   4.587   0.908   2.771 -0.2026 -0.6406 -1.1602
11624SOL    HW235467   4.511   0.992   2.669  0.0289 -1.7250 -2.2415
11625SOL     OW35468   2.898   0.710   1.307  0.7133  0.5307 -0.4423
11625SOL    HW135469   2.991   0.729   1.318  0.4536  0.5633  1.8296
11625SOL    HW235470   2.855   0.796   1.312  0.3332  0.2555  1.1389
11626SOL     OW35471   5.461   1.399   0.257  0.3913  0.3663 -0.1860
11626SOL    HW135472   5.406   1.324   0.278  0.0950  0.7403  0.3705
11626SOL    HW235473   5.433   1.468   0.317  1.0801  0.7352 -0.2782
11627SOL     OW35474   4.301   1.020   3.928  0.2790 -0.0631 -0.3000
11627SOL    HW135475   4.250   1.073   3.866  1.8755  1.3289 -0.4735
11627SOL    HW235476   4.391   1.026   3.895  0.7953 -1.1682  0.8851
11628SOL     OW35477   3.484   5.101   4.190 -0.3787 -0.4608 -0.8061
11628SOL    HW135478   3.556   5.079   4.249 -0.9251 -0.8314 -0.2669
11628SOL    HW235479   3.477   5.026   4.131 -0.0403 -0.2339 -1.1293
11629SOL     OW35480   1.988   5.313   4.358 -0.1594 -0.0701 -0.0312
11629SOL    HW135481   1.901   5.291   4.393  0.3169 -0.8973  0.6345
11629SOL    HW235482   2.012   5.237   4.305  1.7701 -1.5001  2.7810
11630SOL     OW35483   6.707   0.053   6.424  0.2545 -1.0522 -0.3432
11630SOL    HW135484   6.674   0.018   6.507 -0.3218 -0.2670 -0.2345
11630SOL    HW235485   6.648   0.018   6.357  0.0398 -0.7750 -0.2994
11631SOL     OW35486   0.422   2.194   3.087  0.7436  0.2299 -0.0629
11631SOL    HW135487   0.417   2.132   3.014 -0.1709  0.0245  0.1673
11631SOL    HW235488   0.344   2.248   3.077 -0.5487 -1.1736  1.9844
11632SOL     OW35489   3.891   4.464   3.381 -0.0573  0.1742 -0.1216
11632SOL    HW135490   3.914   4.371   3.371  0.2819  0.3349 -0.8963
11632SOL    HW235491   3.900   4.481   3.474 -2.2335 -1.1269  0.3607
11633SOL     OW35492   6.462   6.894   3.386 -0.2957  0.8347  0.0901
11633SOL    HW135493   6.544   6.929   3.421  1.0280 -1.3151 -0.7601
11633SOL    HW235494   6.430   6.962   3.327  0.0989  2.3091  1.5241
11634SOL     OW35495   5.081   4.498   5.919 -0.5196  0.3146 -0.0572
11634SOL    HW135496   5.034   4.580   5.934 -1.1964  0.3018 -2.0782
11634SOL    HW235497   5.015   4.429   5.934  0.2818  0.0669  2.5784
11635SOL     OW35498   0.817   3.751   4.938 -0.2417  0.0717  0.4474
11635SOL    HW135499   0.752   3.801   4.888  1.2144  1.6268  0.0404
11635SOL    HW235500   0.794   3.767   5.029  0.9456  2.5647  0.3480
11636SOL     OW35501   1.335   1.678   0.028  0.0755  0.5020  0.7350
11636SOL    HW135502   1.286   1.728   0.094 -1.1005 -0.7197  0.8146
11636SOL    HW235503   1.424   1.711   0.035 -0.3133  1.3584  1.9947
11637SOL     OW35504   4.997   4.811   6.073 -0.2949 -0.4093  0.4302
11637SOL    HW135505   5.050   4.872   6.022  1.5576 -0.6780  2.0004
11637SOL    HW235506   5.050   4.791   6.150 -1.4656 -2.9165  0.6372
11638SOL     OW35507   3.019   5.321   1.326  0.1121  0.0109 -0.0430
11638SOL    HW135508   2.979   5.401   1.360  0.9446  1.3466 -2.0683
11638SOL    HW235509   3.108   5.348   1.300  0.4437 -1.5997 -0.6271
11639SOL     OW35510   3.372   2.088   7.120  0.5378 -0.1815 -0.5204
11639SOL    HW135511   3.290   2.100   7.071 -0.8864  0.8918  2.0593
11639SOL    HW235512   3.440   2.093   7.053 -1.4979 -1.7218 -2.8216
11640SOL     OW35513   5.507   4.801   5.858 -0.9426  0.3787 -0.1516
11640SOL    HW135514   5.566   4.790   5.932  0.6132  1.2067 -1.2443
11640SOL    HW235515   5.446   4.727   5.865 -0.4506  0.1258  1.6031
11641SOL     OW35516   5.680   5.006   0.845  0.0386  0.3004 -0.0537
11641SOL    HW135517   5.644   4.918   0.836  0.9736 -0.1075  0.2265
11641SOL    HW235518   5.772   4.993   0.865 -0.0210  1.3338  0.9527
11642SOL     OW35519   0.250   6.012   6.164  0.1879  0.3226  0.2952
11642SOL    HW135520   0.268   5.966   6.083 -0.9059 -0.0618  0.2591
11642SOL    HW235521   0.299   6.094   6.156  0.7025 -0.0472 -0.4143
11643SOL     OW35522   0.289   3.346   1.644 -0.0959  0.0659 -0.3751
11643SOL    HW135523   0.346   3.283   1.689 -1.3827 -0.9055 -0.0785
11643SOL    HW235524   0.314   3.431   1.680 -0.5899 -0.6149  1.6307
11644SOL     OW35525   5.064   6.204   3.529 -0.0139 -0.3498 -0.2554
11644SOL    HW135526   5.124   6.211   3.602  1.2547  0.3204 -1.3448
11644SOL    HW235527   5.049   6.295   3.501 -0.9009 -0.5615 -0.4897
11645SOL     OW35528   0.937   6.196   2.584  0.3879  0.2788 -0.1707
11645SOL    HW135529   1.008   6.256   2.558  0.6287  0.4581  0.8894
11645SOL    HW235530   0.946   6.122   2.524  1.2082  0.4937 -0.3273
11646SOL     OW35531   6.693   0.397   0.048 -0.5721  0.0230  0.5091
11646SOL    HW135532   6.771   0.359   0.087 -1.8276 -1.1478  1.9740
11646SOL    HW235533   6.704   0.491   0.059  0.5466 -0.1414  0.8436
11647SOL     OW35534   7.220   1.994   2.535  0.0830 -0.1615  0.0989
11647SOL    HW135535   7.273   1.984   2.456 -0.1474 -2.5268  0.2082
11647SOL    HW235536   7.275   2.046   2.594  1.1109 -0.1579 -0.8376
11648SOL     OW35537   2.884   0.089   4.065  0.1965 -0.2964  0.0291
11648SOL    HW135538   2.945   0.121   3.998  0.2839 -1.7682 -0.6224
11648SOL    HW235539   2.839   0.016   4.022 -0.7968 -0.3137  1.0943
11649SOL     OW35540   5.970   3.517   7.007 -0.0920  0.6517 -0.7596
11649SOL    HW135541   5.903   3.491   6.944  0.6539 -3.2034 -0.0754
11649SOL    HW235542   6.052   3.483   6.970  0.9893  2.2599  0.1108
11650SOL     OW35543   6.332   2.823   6.532 -0.0712  0.1843  0.4396
11650SOL    HW135544   6.264   2.858   6.473 -0.1855 -0.0828  0.4152
11650SOL    HW235545   6.381   2.762   6.478  1.4642  1.8745 -0.1336
11651SOL     OW35546   2.183   6.284   3.972  0.0729 -0.0287 -0.6080
11651SOL    HW135547   2.164   6.197   3.937  0.1480 -0.4261  0.3264
11651SOL    HW235548   2.188   6.271   4.067  2.9636  0.4291 -0.6457
11652SOL     OW35549   4.734   5.455   6.649  0.0041  0.3576  0.1850
11652SOL    HW135550   4.801   5.426   6.587  0.3015  0.3741  0.4947
11652SOL    HW235551   4.652   5.446   6.601  0.3402  1.5441 -0.6299
11653SOL     OW35552   7.178   3.410   1.628 -0.2900  0.1849 -0.0364
11653SOL    HW135553   7.192   3.316   1.617 -1.1415  0.1192 -0.5622
11653SOL    HW235554   7.163   3.442   1.539  0.8615  0.9604  0.0442
11654SOL     OW35555   0.145   0.156   4.855 -0.1533  0.1991  0.3837
11654SOL    HW135556   0.217   0.150   4.792 -0.7391 -0.1637 -0.2605
11654SOL    HW235557   0.075   0.200   4.807 -0.9673 -1.0047  0.4371
11655SOL     OW35558   3.551   6.118   1.995  0.1694  0.4115 -0.7746
11655SOL    HW135559   3.622   6.055   1.981  0.5607  0.6408  0.1399
11655SOL    HW235560   3.481   6.067   2.036  0.2830  0.4501 -0.5299
11656SOL     OW35561   6.870   1.641   1.167  0.0172  0.0398  0.1116
11656SOL    HW135562   6.964   1.646   1.184 -0.1772  0.4806  1.1196
11656SOL    HW235563   6.838   1.576   1.231 -0.3758 -0.0524 -0.1753
11657SOL     OW35564   1.589   0.014   2.564 -0.0930 -0.1307 -0.1252
11657SOL    HW135565   1.624  -0.053   2.505 -1.0001  1.4577 -2.5231
11657SOL    HW235566   1.601   0.096   2.517  0.7447  1.4110  2.6602
11658SOL     OW35567   1.740   2.821   5.934  0.2094  0.4194  0.3262
11658SOL    HW135568   1.689   2.860   6.005 -0.6075 -0.1391  0.0527
11658SOL    HW235569   1.783   2.746   5.974 -0.1439  0.1839  0.2630
11659SOL     OW35570   3.755   0.312   5.918  0.1075 -0.4305  0.0145
11659SOL    HW135571   3.784   0.324   6.009 -1.1074 -1.1834  0.5065
11659SOL    HW235572   3.702   0.232   5.920 -0.0888 -0.3393 -1.3262
11660SOL     OW35573   2.769   3.634   6.304 -0.3744  0.1261 -0.1140
11660SOL    HW135574   2.796   3.555   6.257  0.1017  1.2894 -1.8317
11660SOL    HW235575   2.848   3.663   6.350 -0.5629 -0.4252  0.5576
11661SOL     OW35576   7.193   4.515   2.968  0.0680  0.4566  0.1755
11661SOL    HW135577   7.284   4.488   2.957 -0.7094 -2.5027  0.7928
11661SOL    HW235578   7.154   4.504   2.881 -0.6281 -1.9134  0.7748
11662SOL     OW35579   6.620   1.761   1.390  0.2880  0.6116  0.0087
11662SOL    HW135580   6.628   1.844   1.343  1.1753  0.8888  0.6212
11662SOL    HW235581   6.548   1.774   1.451 -0.5257  0.4310 -0.9154
11663SOL     OW35582   0.898   6.788   3.491  0.2175 -0.7109  0.2071
11663SOL    HW135583   0.860   6.737   3.562 -2.4077  1.6783  0.6156
11663SOL    HW235584   0.939   6.862   3.534 -1.0993  0.5740 -0.7195
11664SOL     OW35585   3.425   3.906   4.628 -0.3704 -0.1730 -0.2561
11664SOL    HW135586   3.397   3.825   4.669 -0.6855  0.7729  1.4227
11664SOL    HW235587   3.346   3.959   4.622  0.1838  0.7366  0.3679
11665SOL     OW35588   3.551   0.496   5.399  0.1639  0.2668  0.4647
11665SOL    HW135589   3.481   0.501   5.334 -0.6644  1.0504  1.4080
11665SOL    HW235590   3.507   0.474   5.481  1.2083 -0.7853  0.7648
11666SOL     OW35591   4.812   3.873   4.947  0.1900 -0.0889  0.3521
11666SOL    HW135592   4.802   3.867   5.042 -2.4158 -0.3575  0.1146
11666SOL    HW235593   4.877   3.807   4.925  0.5041 -0.3126  1.9094
11667SOL     OW35594   6.756   1.126   3.290  0.5261 -0.7114 -0.2078
11667SOL    HW135595   6.829   1.124   3.352  1.1809 -1.9838 -1.0040
11667SOL    HW235596   6.785   1.072   3.217  0.2922  1.7964 -2.2177
11668SOL     OW35597   6.926   4.065   4.251 -0.6487  0.6264 -0.1382
11668SOL    HW135598   6.982   4.027   4.184  0.8201  0.3089  1.2446
11668SOL    HW235599   6.845   4.087   4.205  0.5716  1.0203 -2.1545
11669SOL     OW35600   1.423   1.787   3.498 -0.1764  0.0764  0.0491
11669SOL    HW135601   1.425   1.716   3.562  3.1512 -0.3738 -0.4144
11669SOL    HW235602   1.450   1.746   3.416  1.7341  1.8025 -0.2424
11670SOL     OW35603   1.262   0.436   1.586  0.4965 -0.6900  0.3366
11670SOL    HW135604   1.333   0.500   1.585  1.7574 -2.0757 -0.6836
11670SOL    HW235605   1.288   0.372   1.652  0.4798 -1.5100 -0.4458
11671SOL     OW35606   0.469   6.112   4.904 -0.5523 -0.0258  0.0433
11671SOL    HW135607   0.530   6.091   4.975 -1.6877 -1.6255  0.5680
11671SOL    HW235608   0.468   6.207   4.900  0.3978  0.0430  1.4076
11672SOL     OW35609   6.762   1.896   1.089  0.0058 -0.3836 -0.0444
11672SOL    HW135610   6.681   1.885   1.038 -0.1224  0.9402 -0.1526
11672SOL    HW235611   6.791   1.807   1.108 -2.3416 -0.9012  1.3384
11673SOL     OW35612   5.542   6.401   4.954  0.1995 -0.0940  0.1987
11673SOL    HW135613   5.591   6.319   4.955 -0.0016 -0.2417 -0.8553
11673SOL    HW235614   5.462   6.382   5.002 -0.3152 -0.8253 -0.9245
11674SOL     OW35615   1.406   3.554   3.506 -0.3493  0.1427  0.5452
11674SOL    HW135616   1.493   3.565   3.543  0.9412 -1.7074 -1.8164
11674SOL    HW235617   1.373   3.473   3.544 -0.9725  0.7315  1.2770
11675SOL     OW35618   2.894   0.433   3.804  0.1848  0.0289  0.0896
11675SOL    HW135619   2.842   0.385   3.740  0.1558  0.0074  0.1292
11675SOL    HW235620   2.983   0.431   3.769  0.5739 -1.8554  1.1400
11676SOL     OW35621   4.877   7.165   6.405  0.1478  0.0348 -0.2830
11676SOL    HW135622   4.965   7.187   6.378  0.4616  0.3095  0.9281
11676SOL    HW235623   4.854   7.231   6.471  0.2802 -1.8931  1.7655
11677SOL     OW35624   5.253   2.413   4.337 -0.3248 -0.1221  0.4098
11677SOL    HW135625   5.225   2.449   4.421  1.5489  0.9032  0.6303
11677SOL    HW235626   5.267   2.490   4.282  0.0299 -0.7007 -0.3100
11678SOL     OW35627   1.939   3.660   1.524 -0.0038 -0.0373 -0.6511
11678SOL    HW135628   2.022   3.613   1.533  0.2140  0.3505 -0.6213
11678SOL    HW235629   1.912   3.645   1.433 -0.0341 -0.3813 -0.5859
11679SOL     OW35630   5.870   1.377   5.756 -0.2296 -0.0127 -0.1788
11679SOL    HW135631   5.830   1.431   5.824  0.0839  0.5585 -0.4412
11679SOL    HW235632   5.962   1.373   5.780 -0.1770 -0.0838 -0.3914
11680SOL     OW35633   4.296   6.930   5.076 -0.1212  0.9298 -0.0517
11680SOL    HW135634   4.316   6.985   5.151  1.0228  0.3027  0.1106
11680SOL    HW235635   4.380   6.916   5.033 -0.5200 -0.0574 -0.5290
11681SOL     OW35636   0.865   2.541   6.403  0.0729  0.2039  0.2486
11681SOL    HW135637   0.914   2.485   6.344  0.5322  0.7132  0.1407
11681SOL    HW235638   0.807   2.481   6.451 -1.2391 -0.0622 -1.6188
11682SOL     OW35639   3.960   3.721   1.526  0.2134  0.5632 -0.7412
11682SOL    HW135640   3.887   3.777   1.552 -0.8542  0.3221 -3.1186
11682SOL    HW235641   3.925   3.633   1.527  1.4260  0.0571  1.3152
11683SOL     OW35642   4.631   1.740   1.510 -0.1273  0.1214  0.1691
11683SOL    HW135643   4.649   1.719   1.419 -0.7638  0.1998  0.0224
11683SOL    HW235644   4.707   1.707   1.558  0.3397  0.3440 -0.4189
11684SOL     OW35645   1.481   6.082   3.679  0.4789 -0.1555 -0.1662
11684SOL    HW135646   1.464   6.165   3.635 -0.5396  0.1169  0.7055
11684SOL    HW235647   1.543   6.104   3.749  0.1533 -0.1097  0.1101
11685SOL     OW35648   0.638   0.142   6.339 -0.1166  0.5041  0.2008
11685SOL    HW135649   0.716   0.122   6.392  0.8696  0.4195 -1.2507
11685SOL    HW235650   0.564   0.122   6.397  0.9417  0.8964  1.7111
11686SOL     OW35651   4.241   0.447   1.926 -0.2936  0.3892 -0.5728
11686SOL    HW135652   4.207   0.534   1.947  1.2594  0.6815  0.8015
11686SOL    HW235653   4.203   0.390   1.993  2.6069  0.8817  1.5626
11687SOL     OW35654   3.110   1.815   0.163 -0.2306 -0.5217  0.2277
11687SOL    HW135655   3.090   1.832   0.255 -1.0891 -0.4345  0.0288
11687SOL    HW235656   3.107   1.720   0.154 -1.3890 -0.4728  0.0207
11688SOL     OW35657   0.359   0.101   2.162 -0.5649  0.4502  0.4266
11688SOL    HW135658   0.354   0.111   2.257  1.5839  0.3283  0.5718
11688SOL    HW235659   0.367   0.191   2.130 -0.3977  0.4350  0.4250
11689SOL     OW35660   2.188   3.567   4.952  0.1409 -0.2358  0.1861
11689SOL    HW135661   2.200   3.534   4.863 -1.5082 -0.4863  0.0347
11689SOL    HW235662   2.239   3.649   4.954  1.1282 -0.8212 -0.6118
11690SOL     OW35663   6.126   6.909   4.003  0.1703  0.1813 -0.8557
11690SOL    HW135664   6.089   6.822   3.986 -0.0558  0.3460 -1.2175
11690SOL    HW235665   6.174   6.930   3.923  2.1223 -0.5780  0.1031
11691SOL     OW35666   1.471   4.993   6.648 -0.3800 -0.3717 -0.3751
11691SOL    HW135667   1.539   4.990   6.716 -0.2385  0.0807 -0.4938
11691SOL    HW235668   1.439   5.083   6.652 -0.3763 -0.3503 -0.9105
11692SOL     OW35669   3.483   4.885   3.992 -0.1327  0.0087 -0.3562
11692SOL    HW135670   3.454   4.957   3.936 -1.1840  1.3549  1.8602
11692SOL    HW235671   3.409   4.824   3.992 -0.6463  0.6153  0.5450
11693SOL     OW35672   3.626   3.957   0.800  0.1278  0.1940  0.5599
11693SOL    HW135673   3.606   4.007   0.880 -0.5208  0.8003  0.0195
11693SOL    HW235674   3.662   3.875   0.833 -2.8522 -0.7670  1.5593
11694SOL     OW35675   1.957   3.857   5.070 -0.2011 -0.3980 -0.6321
11694SOL    HW135676   1.889   3.897   5.125  1.0382  0.2447  0.4711
11694SOL    HW235677   1.976   3.773   5.112 -1.0133 -1.0269 -1.5102
11695SOL     OW35678   6.119   2.132   2.426 -0.2504  0.0218 -0.2615
11695SOL    HW135679   6.062   2.208   2.429  2.6066  2.2592 -1.0072
11695SOL    HW235680   6.149   2.122   2.516 -2.9987 -2.1755  0.4875
11696SOL     OW35681   2.759   1.699   5.258  0.1069  0.0622  0.4715
11696SOL    HW135682   2.795   1.723   5.173  0.5867 -0.6678  0.4662
11696SOL    HW235683   2.745   1.782   5.303 -2.2426  0.5937 -1.1601
11697SOL     OW35684   4.349   5.229   6.031 -0.3398  0.0933 -0.1888
11697SOL    HW135685   4.284   5.234   6.101  0.4360  1.3409  0.4591
11697SOL    HW235686   4.362   5.320   6.004  0.6449 -0.2137 -0.7662
11698SOL     OW35687   2.258   4.738   0.768 -0.2394 -0.7810  0.0055
11698SOL    HW135688   2.299   4.722   0.853  0.4714  0.4226 -0.0900
11698SOL    HW235689   2.306   4.682   0.707  0.0494 -0.7633  0.2109
11699SOL     OW35690   3.189   1.146   6.766 -0.6737  0.2469  0.2203
11699SOL    HW135691   3.268   1.155   6.713 -1.1030  1.6002 -0.2263
11699SOL    HW235692   3.122   1.117   6.704 -1.2156  1.9926 -0.0596
11700SOL     OW35693   2.195   5.821   3.401 -0.2917 -0.5168 -0.5419
11700SOL    HW135694   2.269   5.795   3.346 -0.6629 -1.2458 -0.7042
11700SOL    HW235695   2.235   5.870   3.473  0.2772 -0.2851 -1.0123
11701SOL     OW35696   4.194   4.184   4.530  0.0746 -0.0040 -0.0618
11701SOL    HW135697   4.115   4.221   4.568  0.3784  0.1982  0.3753
11701SOL    HW235698   4.190   4.091   4.550  0.6176  0.2249  1.1472
11702SOL     OW35699   2.601   5.931   4.969  0.2059 -0.5053 -0.1835
11702SOL    HW135700   2.643   5.938   4.883  0.4208  1.3552  0.0534
11702SOL    HW235701   2.671   5.904   5.028  0.6023  0.5870 -0.1555
11703SOL     OW35702   2.002   6.844   0.812  0.2916 -0.0786  0.2475
11703SOL    HW135703   1.927   6.853   0.870  0.6203  1.9101  0.3891
11703SOL    HW235704   1.976   6.776   0.749 -1.0740 -0.3738  1.1177
11704SOL     OW35705   3.505   5.385   2.239  0.3511 -0.4510 -0.4182
11704SOL    HW135706   3.410   5.395   2.226  0.0041 -3.0239 -0.1454
11704SOL    HW235707   3.522   5.426   2.323 -0.7451 -1.0559  0.1068
11705SOL     OW35708   1.336   1.003   6.023 -0.2229  0.4379 -0.6825
11705SOL    HW135709   1.275   0.935   6.053  0.9055 -0.0910  0.5035
11705SOL    HW235710   1.390   1.021   6.100  0.5574  1.5004 -1.4757
11706SOL     OW35711   1.302   3.784   5.417  0.5960  0.2784 -0.7487
11706SOL    HW135712   1.386   3.762   5.375  0.5165  1.0640 -1.3230
11706SOL    HW235713   1.260   3.699   5.430  2.5514 -0.3572  1.8912
11707SOL     OW35714   5.068   2.217   5.427  0.0260 -0.4532  0.2171
11707SOL    HW135715   5.016   2.214   5.507  0.7577 -0.9398  0.6778
11707SOL    HW235716   5.064   2.128   5.392 -0.0034 -0.3268 -0.1033
11708SOL     OW35717   3.779   5.496   5.423 -0.2834  0.0577  0.2106
11708SOL    HW135718   3.685   5.513   5.433 -0.0772  1.0310  0.5326
11708SOL    HW235719   3.815   5.504   5.511  0.4320  1.8039 -0.2106
11709SOL     OW35720   2.122   5.053   1.662  0.0927 -0.6977  0.5369
11709SOL    HW135721   2.177   5.089   1.592  3.0660 -1.3895  2.3972
11709SOL    HW235722   2.092   4.969   1.627  1.6412 -1.0925  0.0907
11710SOL     OW35723   3.464   4.248   5.033  0.0619 -0.1428  0.4945
11710SOL    HW135724   3.436   4.339   5.020  1.8525  0.4872  0.9022
11710SOL    HW235725   3.412   4.198   4.969 -0.4288  1.2494 -0.2223
11711SOL     OW35726   2.736   3.645   0.264 -0.0715  0.2032  0.1345
11711SOL    HW135727   2.690   3.726   0.285 -0.4286  0.0822 -0.1686
11711SOL    HW235728   2.826   3.671   0.247 -0.7321  0.8902 -2.4910
11712SOL     OW35729   5.615   2.408   2.689  0.1974  0.3873 -0.0415
11712SOL    HW135730   5.683   2.453   2.739  0.4560  0.0824 -0.1148
11712SOL    HW235731   5.616   2.319   2.724  1.1471 -0.1342 -1.3537
11713SOL     OW35732   5.314   1.456   1.001  0.4021  0.0424  0.0975
11713SOL    HW135733   5.361   1.385   0.956  2.0800  0.7035  0.7495
11713SOL    HW235734   5.225   1.424   1.009  0.7553 -1.3140 -1.0832
11714SOL     OW35735   2.249   5.150   3.071 -0.7695 -0.7382  0.1257
11714SOL    HW135736   2.309   5.218   3.040  0.5147 -2.1260 -0.5297
11714SOL    HW235737   2.162   5.186   3.058 -0.0791  1.3614  1.1737
11715SOL     OW35738   4.303   2.986   2.431  0.4386  0.2473 -0.4915
11715SOL    HW135739   4.319   3.038   2.353 -0.4294  0.9073 -0.2330
11715SOL    HW235740   4.284   2.898   2.398  2.9512 -0.2029 -0.8885
11716SOL     OW35741   2.992   1.541   0.112  0.1238 -0.7990  0.0910
11716SOL    HW135742   2.903   1.554   0.081 -0.1586 -0.8212  0.8879
11716SOL    HW235743   2.985   1.540   0.208  1.0840  0.0146  0.1849
11717SOL     OW35744   6.293   6.610   5.537 -0.4586 -0.5995 -0.3934
11717SOL    HW135745   6.340   6.551   5.597 -0.4534  0.2444  0.4547
11717SOL    HW235746   6.361   6.643   5.479  0.1778  1.1969  1.3067
11718SOL     OW35747   1.631   4.544   2.295  0.1312 -0.7436 -0.7443
11718SOL    HW135748   1.585   4.511   2.372  2.5556  0.2086  1.1714
11718SOL    HW235749   1.692   4.474   2.272  1.7622  0.3194  0.2749
11719SOL     OW35750   4.773   1.000   4.375 -0.0805  0.1004 -0.4731
11719SOL    HW135751   4.748   0.944   4.448  1.4951  0.0996  0.0857
11719SOL    HW235752   4.705   1.068   4.373 -0.2527 -0.0160  0.8597
11720SOL     OW35753   1.168   6.527   3.262 -0.5727  0.4234 -0.4708
11720SOL    HW135754   1.087   6.577   3.253 -0.8854 -0.1718 -0.9782
11720SOL    HW235755   1.201   6.550   3.349 -2.8085 -1.6022  0.9583
11721SOL     OW35756   6.332   7.214   5.522  0.0400  0.2917  0.7527
11721SOL    HW135757   6.360   7.126   5.498  1.7050  1.2249 -0.8848
11721SOL    HW235758   6.276   7.202   5.598 -1.7445 -2.3866 -0.9268
11722SOL     OW35759   6.390   1.976   2.581 -0.0409  0.8948  0.3784
11722SOL    HW135760   6.429   1.936   2.658 -1.5133  1.3073  1.3595
11722SOL    HW235761   6.454   2.040   2.552  0.2311  1.2117  1.6704
11723SOL     OW35762   6.477   5.276   3.910  0.2370 -0.1260  0.1905
11723SOL    HW135763   6.499   5.362   3.949 -1.4132  0.9408 -1.1775
11723SOL    HW235764   6.381   5.276   3.905  0.2503 -1.8852 -0.2554
11724SOL     OW35765   6.858   6.665   4.797  0.9183 -0.3211  0.3455
11724SOL    HW135766   6.844   6.759   4.811  1.0315  0.0477 -1.8604
11724SOL    HW235767   6.938   6.646   4.846  2.5562  1.3814 -1.5478
11725SOL     OW35768   0.713   6.168   6.048 -0.2482  0.5735  0.7820
11725SOL    HW135769   0.756   6.248   6.081  1.0122  0.1110  0.3103
11725SOL    HW235770   0.667   6.196   5.969  1.0427  0.6565  0.0307
11726SOL     OW35771   6.890   3.886   3.022  0.2522 -0.0708 -0.4672
11726SOL    HW135772   6.929   3.972   3.008 -2.4288  1.6180  1.7719
11726SOL    HW235773   6.810   3.904   3.071  0.4686 -3.9969  1.5315
11727SOL     OW35774   0.837   5.827   4.444 -0.5850 -0.5681  0.2409
11727SOL    HW135775   0.771   5.758   4.445 -1.7521  0.4903 -1.0986
11727SOL    HW235776   0.788   5.907   4.423  0.9947  0.3715  0.0239
11728SOL     OW35777   2.870   1.987   1.105 -0.2482  0.5137 -0.7482
11728SOL    HW135778   2.888   1.991   1.198 -0.7869  1.4664 -0.6736
11728SOL    HW235779   2.777   1.964   1.099  0.4492 -2.3418 -1.0955
11729SOL     OW35780   4.076   6.192   1.388  0.1409 -0.1441  0.3759
11729SOL    HW135781   4.020   6.228   1.319  0.9601 -4.1112 -2.5793
11729SOL    HW235782   4.143   6.259   1.402 -1.2483  1.6299 -1.1664
11730SOL     OW35783   0.648   5.158   6.704 -0.0501  0.2973 -0.4945
11730SOL    HW135784   0.554   5.142   6.704 -0.2331  1.3093 -1.5455
11730SOL    HW235785   0.687   5.075   6.732 -1.2096 -0.3716 -0.8515
11731SOL     OW35786   5.952   7.148   0.925  0.0882  0.8724 -0.3327
11731SOL    HW135787   6.038   7.164   0.964  0.5422  2.9024 -2.1141
11731SOL    HW235788   5.891   7.199   0.980  0.3530  1.4849 -0.6099
11732SOL     OW35789   0.298   3.977   3.850  0.3036  0.1783 -0.2808
11732SOL    HW135790   0.294   4.049   3.912  1.7470  0.4208 -0.4535
11732SOL    HW235791   0.354   4.009   3.779 -2.1870  0.3156 -2.2623
11733SOL     OW35792   6.282   4.414   3.233 -0.0842  0.5053 -0.1494
11733SOL    HW135793   6.353   4.477   3.242 -0.0766  0.3259  1.1999
11733SOL    HW235794   6.214   4.445   3.293 -0.4449 -0.2553 -0.1503
11734SOL     OW35795   4.912   1.992   6.193  0.4546 -0.0198 -0.3619
11734SOL    HW135796   4.924   1.910   6.145 -0.0600 -0.3160  0.0126
11734SOL    HW235797   4.866   1.967   6.273  1.8974  0.3813  0.6059
11735SOL     OW35798   3.916   6.704   5.224  0.4533 -0.0683 -0.3800
11735SOL    HW135799   3.931   6.797   5.240 -0.9962  0.0625  0.2938
11735SOL    HW235800   3.972   6.683   5.149  2.6950  0.7419  1.0138
11736SOL     OW35801   0.261   6.413   2.059 -0.4623 -0.2148 -0.3796
11736SOL    HW135802   0.279   6.479   1.991  0.7015 -1.4592 -1.3045
11736SOL    HW235803   0.205   6.349   2.015 -0.4309 -0.5633  0.0907
11737SOL     OW35804   1.381   0.719   2.459 -0.0106  0.0427  0.3081
11737SOL    HW135805   1.462   0.751   2.419 -0.1329  0.4026  0.3459
11737SOL    HW235806   1.410   0.672   2.537  0.1759  0.0249  0.2268
11738SOL     OW35807   0.337   3.830   6.528  0.1197  0.2670  0.0970
11738SOL    HW135808   0.332   3.925   6.519 -0.7411  0.4929  2.6743
11738SOL    HW235809   0.416   3.805   6.479  0.8203  2.4002  0.1096
11739SOL     OW35810   6.364   0.268   1.083  0.4895 -0.0253 -0.0658
11739SOL    HW135811   6.452   0.246   1.112  1.4385  0.6632 -2.3174
11739SOL    HW235812   6.370   0.360   1.056 -0.9646  0.0942 -0.0391
11740SOL     OW35813   2.223   4.604   6.361 -0.0771  0.3664 -0.2031
11740SOL    HW135814   2.310   4.635   6.335 -0.0175 -0.2052 -0.6823
11740SOL    HW235815   2.186   4.567   6.281 -1.0367  1.2361 -0.1648
11741SOL     OW35816   4.002   3.557   5.452  0.0389 -0.0991 -0.0813
11741SOL    HW135817   4.023   3.477   5.403  2.2158  0.9329 -0.9182
11741SOL    HW235818   3.940   3.603   5.395 -2.7660 -2.0432  1.2890
11742SOL     OW35819   4.403   1.062   0.393 -0.2523 -0.4663  0.5142
11742SOL    HW135820   4.446   1.007   0.458  1.2324  0.6111  0.4613
11742SOL    HW235821   4.309   1.046   0.407  0.0146  0.1624  3.2730
11743SOL     OW35822   3.475   0.187   6.060  0.2081 -0.2745  0.0025
11743SOL    HW135823   3.398   0.220   6.106  0.5379  2.0236 -1.0357
11743SOL    HW235824   3.529   0.146   6.128 -0.4293  0.9460  1.2450
11744SOL     OW35825   1.584   3.932   3.414  0.0372  0.1749 -0.5060
11744SOL    HW135826   1.678   3.951   3.408  0.1545 -0.4517 -0.7880
11744SOL    HW235827   1.558   3.915   3.323  0.1459 -1.8883 -0.1873
11745SOL     OW35828   4.777   5.323   5.028  0.1273  0.3970  0.2418
11745SOL    HW135829   4.841   5.253   5.030 -0.1543  0.1107 -0.7911
11745SOL    HW235830   4.692   5.278   5.024 -0.1979  0.7484  2.4206
11746SOL     OW35831   1.494   3.165   5.852  0.4638  0.8424  0.0223
11746SOL    HW135832   1.518   3.255   5.874 -0.6767  1.4594 -1.1602
11746SOL    HW235833   1.476   3.124   5.937  2.2512  1.3479  0.6574
11747SOL     OW35834   6.596   7.168   1.968  0.0428 -0.4123  0.2073
11747SOL    HW135835   6.558   7.089   2.005 -1.4219  0.3147  0.2920
11747SOL    HW235836   6.674   7.184   2.020 -0.1108 -1.3434  0.7218
11748SOL     OW35837   3.724   2.621   1.081 -0.3403  0.0827  0.1217
11748SOL    HW135838   3.700   2.615   0.989 -0.4220  0.6104  0.1068
11748SOL    HW235839   3.641   2.624   1.128 -0.3186  1.7610  0.0778
11749SOL     OW35840   4.653   5.862   2.150  0.2232 -0.0069  0.1519
11749SOL    HW135841   4.650   5.902   2.237  0.7075  1.8535 -0.6375
11749SOL    HW235842   4.738   5.818   2.146  1.0606  1.5786 -0.0463
11750SOL     OW35843   2.448   6.923   5.027 -0.1077 -0.0150 -0.7276
11750SOL    HW135844   2.535   6.963   5.036 -0.8440  1.6316 -0.8681
11750SOL    HW235845   2.387   6.997   5.026 -1.5458 -1.1723 -0.3240
11751SOL     OW35846   3.332   5.777   6.857 -0.4764  0.2279  0.2803
11751SOL    HW135847   3.375   5.809   6.936  0.8867 -0.5934 -0.1122
11751SOL    HW235848   3.373   5.693   6.840 -1.8768 -0.3192 -0.4233
11752SOL     OW35849   0.704   4.812   0.176 -0.1793 -0.3768  0.6476
11752SOL    HW135850   0.759   4.876   0.131  0.0775 -0.6750  0.5365
11752SOL    HW235851   0.743   4.727   0.154  0.0580 -0.5103  1.5910
11753SOL     OW35852   2.487   3.221   1.973  0.5823 -0.3004  0.3237
11753SOL    HW135853   2.537   3.174   1.906  0.3841 -1.7789  1.1803
11753SOL    HW235854   2.399   3.184   1.967  0.5449 -0.3848  1.3208
11754SOL     OW35855   0.925   1.493   6.570 -0.7992  0.1682 -0.4060
11754SOL    HW135856   0.963   1.575   6.602  0.1792 -0.6692  0.5916
11754SOL    HW235857   0.994   1.454   6.516 -0.9684 -0.3742 -0.2330
11755SOL     OW35858   4.397   4.640   4.943  0.1077 -0.1041 -0.1129
11755SOL    HW135859   4.484   4.676   4.960 -0.5804  1.3633  0.3768
11755SOL    HW235860   4.352   4.709   4.894 -0.6262 -1.0429 -0.7825
11756SOL     OW35861   3.393   0.494   4.923  0.3761  0.7488 -0.6366
11756SOL    HW135862   3.372   0.546   4.846  0.4337  1.4875 -0.1671
11756SOL    HW235863   3.428   0.412   4.889  0.1210  0.9516 -1.3915
11757SOL     OW35864   4.914   1.935   5.585 -0.3944 -0.4369 -0.0381
11757SOL    HW135865   4.832   1.899   5.619 -0.8090  1.0262  0.5559
11757SOL    HW235866   4.915   2.026   5.616  1.4998 -0.4664  0.0547
11758SOL     OW35867   0.556   0.056   2.564 -0.2883 -0.0503 -0.8301
11758SOL    HW135868   0.651   0.062   2.553 -0.2206 -1.5705 -1.2184
11758SOL    HW235869   0.530  -0.016   2.506 -1.6074  0.0102 -0.3241
11759SOL     OW35870   1.754   0.122   0.929  0.4318 -0.3284  0.6260
11759SOL    HW135871   1.746   0.200   0.874 -0.2368 -1.3440 -0.7320
11759SOL    HW235872   1.843   0.126   0.964  1.5726 -0.7285 -2.1453
11760SOL     OW35873   6.003   5.412   4.009  0.5005  0.3368 -0.1578
11760SOL    HW135874   6.054   5.482   4.050  0.4417 -1.0576  2.3827
11760SOL    HW235875   5.913   5.447   4.007  0.6292  0.6914  0.2209
11761SOL     OW35876   6.350   4.088   1.158 -0.1860 -0.3414 -0.1875
11761SOL    HW135877   6.281   4.081   1.224  0.0220 -1.5091 -0.0845
11761SOL    HW235878   6.424   4.040   1.195  0.6346  0.7790 -0.3629
11762SOL     OW35879   6.883   2.604   4.943  0.0367  0.2364 -0.4042
11762SOL    HW135880   6.857   2.530   4.998  1.0707 -0.4947 -0.8833
11762SOL    HW235881   6.920   2.564   4.864  3.9676  1.1540  0.8474
11763SOL     OW35882   3.810   2.898   3.575  0.0792  0.4455  0.0026
11763SOL    HW135883   3.825   2.874   3.666  0.3682  1.2180  0.1666
11763SOL    HW235884   3.748   2.834   3.542  1.0642 -0.7022  0.3414
11764SOL     OW35885   5.570   0.707   0.462 -0.2434  0.3188  0.7856
11764SOL    HW135886   5.634   0.755   0.409  0.2793 -1.2970 -0.0726
11764SOL    HW235887   5.624   0.657   0.525 -0.7122 -0.2134  0.7677
11765SOL     OW35888   6.736   0.667   2.454  0.0084  0.0812  0.2042
11765SOL    HW135889   6.707   0.581   2.424  0.1216  0.1417 -0.0832
11765SOL    HW235890   6.753   0.716   2.373 -0.0808  0.3802  0.3660
11766SOL     OW35891   3.037   5.505   2.545 -0.3322  0.3097  0.3053
11766SOL    HW135892   3.045   5.442   2.617  0.4702  2.2753  1.9732
11766SOL    HW235893   3.119   5.497   2.497  1.2146  2.3737  2.4694
11767SOL     OW35894   2.765   1.577   6.715 -0.4508 -0.1187  0.5801
11767SOL    HW135895   2.852   1.567   6.676 -0.1735  0.8808  0.9212
11767SOL    HW235896   2.728   1.489   6.713 -0.5217 -0.0749 -2.1182
11768SOL     OW35897   0.777   2.059   2.852  0.4681 -0.0606  0.3340
11768SOL    HW135898   0.818   2.130   2.901  2.3384  0.7023 -2.2106
11768SOL    HW235899   0.759   2.097   2.766 -1.8789 -1.6133  0.0911
11769SOL     OW35900   0.092   3.711   0.250 -0.0803  0.2269  0.5131
11769SOL    HW135901   0.067   3.621   0.230  0.7585 -0.2599  1.5858
11769SOL    HW235902   0.020   3.744   0.303  0.1746 -0.2198  1.1487
11770SOL     OW35903   1.094   3.068   7.052  0.3047  0.4489 -0.1970
11770SOL    HW135904   1.130   3.147   7.012  3.2162 -0.4972  0.4808
11770SOL    HW235905   1.151   2.998   7.023 -1.4685 -1.2466  0.2806
11771SOL     OW35906   0.760   1.851   5.194 -0.5142  0.5885  0.1497
11771SOL    HW135907   0.789   1.893   5.274 -0.6338  1.5538 -0.3065
11771SOL    HW235908   0.756   1.921   5.130 -0.6357 -0.1354 -0.6475
11772SOL     OW35909   2.827   6.133   3.555 -0.5143  0.5668 -0.1209
11772SOL    HW135910   2.801   6.058   3.501 -2.0560  1.8573 -1.2488
11772SOL    HW235911   2.747   6.186   3.561 -0.1562  0.8133  2.8440
11773SOL     OW35912   6.468   4.634   4.193 -0.8315  0.1054 -0.4775
11773SOL    HW135913   6.537   4.678   4.144 -1.1926  2.2035  0.8650
11773SOL    HW235914   6.459   4.684   4.274 -2.1108 -1.7062  0.5444
11774SOL     OW35915   0.502   2.940   5.776  0.3505  0.0915  0.1425
11774SOL    HW135916   0.542   3.025   5.756 -0.3859  0.7415  1.3343
11774SOL    HW235917   0.438   2.927   5.705  0.1293  0.7666  0.2102
11775SOL     OW35918   0.589   1.877   1.075  0.1750  0.3488  0.0082
11775SOL    HW135919   0.558   1.886   1.165  0.0692 -1.2661  0.1583
11775SOL    HW235920   0.647   1.801   1.077  0.9441  0.8924 -1.0931
11776SOL     OW35921   3.803   2.882   3.856 -0.0241  0.4986 -0.0305
11776SOL    HW135922   3.775   2.970   3.882 -0.7801  0.5230 -0.8943
11776SOL    HW235923   3.870   2.858   3.920  1.8207  2.6063 -1.1348
11777SOL     OW35924   2.983   2.365   0.914 -0.0340  0.0623  0.1764
11777SOL    HW135925   3.045   2.369   0.987  0.1516  2.0487 -0.0627
11777SOL    HW235926   3.036   2.344   0.838  0.1550  0.4691  0.1940
11778SOL     OW35927   1.467   2.415   6.033 -0.3519 -0.0003 -0.1974
11778SOL    HW135928   1.376   2.410   6.003 -0.5574  1.8989  0.0349
11778SOL    HW235929   1.469   2.492   6.089  1.3165 -0.2965  0.1706
11779SOL     OW35930   2.338   0.923   1.250  0.0027  0.1441  0.0095
11779SOL    HW135931   2.296   0.838   1.251  1.8317 -0.8135  2.2468
11779SOL    HW235932   2.266   0.986   1.250 -1.3639 -1.3641 -2.3950
11780SOL     OW35933   1.139   2.710   4.548 -0.1058  0.1599 -0.0459
11780SOL    HW135934   1.230   2.699   4.521  0.4601  1.0511  1.4461
11780SOL    HW235935   1.140   2.697   4.643 -1.2988  1.5313  0.1758
11781SOL     OW35936   0.577   0.499   1.791  0.1453  0.1161 -0.2191
11781SOL    HW135937   0.535   0.582   1.768  0.2764 -0.0952 -1.2531
11781SOL    HW235938   0.634   0.480   1.717  0.0189 -0.9647 -0.0459
11782SOL     OW35939   2.511   1.420   1.827  0.2869 -0.2223 -0.3073
11782SOL    HW135940   2.455   1.344   1.846 -0.2933 -0.0668 -1.3171
11782SOL    HW235941   2.596   1.382   1.804  0.1817 -0.5398 -0.1723
11783SOL     OW35942   4.531   3.725   6.808 -0.1405 -0.3720 -0.5176
11783SOL    HW135943   4.445   3.725   6.850 -0.4898  0.5561 -1.2072
11783SOL    HW235944   4.512   3.738   6.715  0.6222 -2.4260 -0.9754
11784SOL     OW35945   2.207   6.927   1.205 -0.3703  0.4382  0.3893
11784SOL    HW135946   2.224   6.842   1.247  1.1471 -0.0504 -1.1235
11784SOL    HW235947   2.220   6.991   1.274 -1.2122 -0.5491  1.4813
11785SOL     OW35948   3.432   7.022   0.301  0.1119 -0.6750  0.7560
11785SOL    HW135949   3.511   7.040   0.250 -0.5240 -2.7647 -1.0652
11785SOL    HW235950   3.377   7.099   0.288  0.8356 -0.2707  0.0118
11786SOL     OW35951   0.205   2.168   2.543  0.0040  0.1274 -0.3002
11786SOL    HW135952   0.205   2.252   2.588 -0.5544 -0.0784  0.0868
11786SOL    HW235953   0.287   2.126   2.570 -1.0065 -0.6219  1.7081
11787SOL     OW35954   0.430   6.129   5.644  0.0638  0.1600  0.0074
11787SOL    HW135955   0.350   6.078   5.630  0.0551 -0.4055  1.9012
11787SOL    HW235956   0.419   6.206   5.589 -0.7834 -0.9553 -1.4385
11788SOL     OW35957   5.608   2.504   4.671 -1.0995 -0.0744 -0.6170
11788SOL    HW135958   5.545   2.530   4.603 -2.9702 -1.4432  0.5410
11788SOL    HW235959   5.572   2.541   4.752  0.2498  0.1576 -0.1162
11789SOL     OW35960   0.318   5.798   7.143  0.0347 -0.1125  0.1559
11789SOL    HW135961   0.389   5.861   7.154 -0.1295  0.3271 -1.2426
11789SOL    HW235962   0.270   5.828   7.066 -0.0161 -1.9610 -0.5724
11790SOL     OW35963   2.765   2.429   0.038  0.3588  0.6434 -0.3005
11790SOL    HW135964   2.697   2.370   0.072  0.6487 -0.2860 -1.3290
11790SOL    HW235965   2.811   2.460   0.116 -0.7774  0.7150  0.3542
11791SOL     OW35966   5.887   2.988   6.860 -0.0887  0.1327 -0.9241
11791SOL    HW135967   5.977   2.988   6.893 -0.5154 -2.3729  0.3372
11791SOL    HW235968   5.897   2.969   6.766  0.7013 -0.2969 -0.7608
11792SOL     OW35969   4.981   1.587   6.821 -0.7119 -0.4876 -0.0318
11792SOL    HW135970   4.897   1.621   6.851 -0.0136 -0.9241  2.5082
11792SOL    HW235971   4.957   1.519   6.758 -2.2618 -0.6029  0.6496
11793SOL     OW35972   5.757   6.084   6.694 -0.8826  0.2388  0.1468
11793SOL    HW135973   5.666   6.054   6.691 -0.7235 -0.2940  0.4501
11793SOL    HW235974   5.769   6.136   6.615 -1.2575 -0.2496 -0.2296
11794SOL     OW35975   3.705   6.798   1.589 -0.5654  0.1901  0.5775
11794SOL    HW135976   3.800   6.797   1.582 -0.6402 -0.4549 -0.4760
11794SOL    HW235977   3.677   6.872   1.536 -0.6963 -0.1721  0.1316
11795SOL     OW35978   5.068   3.207   4.644 -0.3269  0.0308  0.1753
11795SOL    HW135979   5.160   3.222   4.622  0.1749  1.1487  2.7942
11795SOL    HW235980   5.056   3.113   4.636  0.8524 -0.0421 -0.8863
11796SOL     OW35981   5.716   1.575   5.286 -0.2480 -0.0029 -0.5797
11796SOL    HW135982   5.729   1.497   5.233  0.2663 -0.7495  0.6461
11796SOL    HW235983   5.646   1.623   5.240  0.9724 -0.0541 -2.5573
11797SOL     OW35984   6.075   5.010   4.223  0.6103 -0.2989  0.4866
11797SOL    HW135985   6.168   5.007   4.200  0.2580  0.1738 -1.0232
11797SOL    HW235986   6.056   5.103   4.234 -0.4056 -0.1578 -2.2386
11798SOL     OW35987   3.923   2.770   2.346 -0.2679 -0.1888 -0.7869
11798SOL    HW135988   3.910   2.809   2.432  1.4364 -2.2069  0.4094
11798SOL    HW235989   3.839   2.783   2.301 -1.0971  1.0748  1.0797
11799SOL     OW35990   0.595   4.724   4.278 -0.3715  0.5974 -0.0985
11799SOL    HW135991   0.624   4.659   4.341 -0.1531  1.1574  0.3819
11799SOL    HW235992   0.530   4.678   4.224  1.4142 -0.6914 -1.2299
11800SOL     OW35993   2.110   6.126   0.641  0.1978 -0.5853 -0.1141
11800SOL    HW135994   2.112   6.218   0.665  0.6158 -0.8511  0.9266
11800SOL    HW235995   2.022   6.112   0.606 -0.5463 -0.2301  1.5784
11801SOL     OW35996   1.773   1.417   1.962  0.1589  0.5026 -0.1189
11801SOL    HW135997   1.791   1.354   2.032  1.1000  0.9877  0.0861
11801SOL    HW235998   1.681   1.404   1.941  0.7809 -2.3022 -1.4113
11802SOL     OW35999   4.713   6.310   6.473  0.3432 -0.0741 -0.6397
11802SOL    HW136000   4.699   6.378   6.540  0.2978  0.0254 -0.7505
11802SOL    HW236001   4.762   6.354   6.404  1.6679 -0.5525 -0.0300
11803SOL     OW36002   4.560   3.440   5.934  0.7341  0.4379 -0.0521
11803SOL    HW136003   4.634   3.382   5.915  0.8352  1.5839 -3.4023
11803SOL    HW236004   4.483   3.383   5.932  1.2118 -0.2393  0.5748
11804SOL     OW36005   1.235   5.896   7.097  0.0546 -0.0284 -0.1004
11804SOL    HW136006   1.236   5.950   7.018 -0.4808  0.5262  0.2643
11804SOL    HW236007   1.326   5.876   7.115  0.4364  2.4410  0.9066
11805SOL     OW36008   6.745   6.357   6.723  0.3119 -0.1813  0.0377
11805SOL    HW136009   6.665   6.410   6.719  0.0960 -0.3561  1.6650
11805SOL    HW236010   6.724   6.279   6.672 -0.4957 -0.1373  0.2865
11806SOL     OW36011   1.186   4.691   0.270 -0.2789 -0.6178  0.5793
11806SOL    HW136012   1.123   4.647   0.327  0.0404 -2.1687 -0.2284
11806SOL    HW236013   1.158   4.669   0.181 -0.0398  0.7320  0.1499
11807SOL     OW36014   5.149   3.124   3.470 -0.1963 -0.0900 -0.2661
11807SOL    HW136015   5.242   3.104   3.475 -0.2867 -0.1472  1.2390
11807SOL    HW236016   5.145   3.220   3.475 -0.0673  0.0846 -2.8961
11808SOL     OW36017   2.448   3.232   0.777  0.2949 -0.4039  0.4827
11808SOL    HW136018   2.536   3.252   0.744  0.0769 -3.0782 -1.9308
11808SOL    HW236019   2.454   3.143   0.809 -1.2628 -0.1740  1.4715
11809SOL     OW36020   6.792   1.691   4.200  0.1247 -0.5237  0.1257
11809SOL    HW136021   6.742   1.656   4.273  1.2096 -1.7921  0.2895
11809SOL    HW236022   6.843   1.763   4.236 -1.9351  1.1091 -0.1536
11810SOL     OW36023   1.102   6.908   6.615 -0.7032 -0.2266 -0.3215
11810SOL    HW136024   1.181   6.864   6.647 -0.7585 -0.6693 -0.7869
11810SOL    HW236025   1.072   6.960   6.689 -0.5345 -0.8274  0.1750
11811SOL     OW36026   2.105   5.514   2.814  0.2352 -0.1298 -0.1186
11811SOL    HW136027   2.114   5.469   2.898 -0.8806  0.1063  0.1298
11811SOL    HW236028   2.130   5.605   2.833 -1.4041  0.2480  0.2936
11812SOL     OW36029   3.380   5.842   4.047 -0.2244  0.4000 -0.1259
11812SOL    HW136030   3.348   5.776   4.109 -0.0925 -0.9472 -1.4573
11812SOL    HW236031   3.391   5.921   4.099 -0.9571 -0.4773  1.3818
11813SOL     OW36032   4.365   2.303   2.461  0.2245  0.0205  1.4593
11813SOL    HW136033   4.459   2.287   2.463  0.2388 -0.2616 -0.5379
11813SOL    HW236034   4.340   2.290   2.369 -1.8191 -0.2790  2.0285
11814SOL     OW36035   5.622   0.024   3.904 -0.2152 -0.0588 -0.2841
11814SOL    HW136036   5.571  -0.032   3.845 -0.9778  0.5851 -0.2354
11814SOL    HW236037   5.627  -0.025   3.986 -0.6234 -0.1883 -0.3379
11815SOL     OW36038   1.524   5.097   5.834 -0.3821  0.4390 -0.0734
11815SOL    HW136039   1.439   5.071   5.869 -0.2961  0.5152  0.1896
11815SOL    HW236040   1.524   5.193   5.838 -1.2124  0.5616 -2.2279
11816SOL     OW36041   4.120   6.530   5.705 -0.1781  0.8595 -0.5761
11816SOL    HW136042   4.140   6.619   5.734  0.0947  0.4063  0.6786
11816SOL    HW236043   4.128   6.533   5.610 -1.9621  2.6197 -0.6904
11817SOL     OW36044   0.968   6.111   2.829 -0.5856  0.3789  0.2435
11817SOL    HW136045   0.967   6.126   2.735 -1.2866  1.4747  0.4220
11817SOL    HW236046   0.995   6.194   2.867  1.2925 -0.5218  0.9408
11818SOL     OW36047   6.933   3.408   6.661 -0.2152  0.6577 -0.0656
11818SOL    HW136048   6.974   3.478   6.611 -1.2908  0.9142 -0.6121
11818SOL    HW236049   6.952   3.328   6.611  1.0711  0.5431  0.5957
11819SOL     OW36050   7.253   1.776   0.150 -0.5860 -0.6417 -0.4092
11819SOL    HW136051   7.159   1.785   0.169 -0.7804  0.5159 -1.8225
11819SOL    HW236052   7.267   1.830   0.073  0.5719 -3.4927 -2.2762
11820SOL     OW36053   0.870   1.438   1.245  0.2044  0.0235  0.4705
11820SOL    HW136054   0.808   1.369   1.267  0.6276 -0.8220 -0.9331
11820SOL    HW236055   0.954   1.393   1.236  0.5978  0.8068  0.1651
11821SOL     OW36056   2.418   3.509   6.597 -0.7147  0.3081  0.8130
11821SOL    HW136057   2.377   3.567   6.533  0.0306  2.6771  2.4088
11821SOL    HW236058   2.491   3.560   6.632 -0.1109 -1.5610  2.3477
11822SOL     OW36059   1.118   5.903   0.736 -0.3936 -0.1234  0.7524
11822SOL    HW136060   1.100   5.817   0.773 -0.1173 -0.6512 -0.3143
11822SOL    HW236061   1.033   5.936   0.711 -0.2589 -1.2155 -1.2516
11823SOL     OW36062   2.028   6.737   0.037  0.4040 -0.4815  0.3236
11823SOL    HW136063   2.114   6.777   0.022  0.1980 -0.0317  0.3371
11823SOL    HW236064   1.992   6.724  -0.051 -0.6641  1.8493  0.3831
11824SOL     OW36065   3.987   4.211   0.140  0.9996 -0.7494 -0.0117
11824SOL    HW136066   3.976   4.301   0.169  1.2640 -0.9104  0.5971
11824SOL    HW236067   3.908   4.166   0.171  0.0434 -0.3562 -1.8158
11825SOL     OW36068   7.103   6.148   5.842 -0.0355 -0.0751 -0.2748
11825SOL    HW136069   7.147   6.076   5.798  1.1028  1.2409 -1.3111
11825SOL    HW236070   7.010   6.134   5.824  0.3215 -0.3273 -1.9174
11826SOL     OW36071   2.645   4.177   2.902  0.3866  0.4963  0.1193
11826SOL    HW136072   2.637   4.205   2.810 -1.4335  0.6496  0.3077
11826SOL    HW236073   2.734   4.141   2.908 -0.1487 -1.4258 -2.2564
11827SOL     OW36074   2.574   1.730   1.163 -0.0852 -0.0052 -0.5175
11827SOL    HW136075   2.505   1.794   1.179  1.0996  1.1248  0.2331
11827SOL    HW236076   2.594   1.738   1.070 -1.8240 -1.2583 -1.0329
11828SOL     OW36077   2.762   6.012   4.753  0.1558  0.5347  0.1288
11828SOL    HW136078   2.839   6.047   4.798  0.7430  0.0163 -0.4594
11828SOL    HW236079   2.793   5.994   4.664 -0.4849 -0.2731  0.0676
11829SOL     OW36080   7.020   0.400   4.243 -0.7364 -0.1420 -0.1549
11829SOL    HW136081   7.032   0.305   4.243  1.8388  0.1168  2.5266
11829SOL    HW236082   6.949   0.415   4.306  0.9633 -0.1245  1.8038
11830SOL     OW36083   5.662   5.977   2.092  0.3610  0.0799 -0.6713
11830SOL    HW136084   5.634   5.954   2.180  0.0378 -0.0138 -0.7996
11830SOL    HW236085   5.747   5.934   2.082  0.8028  0.8093 -0.0881
11831SOL     OW36086   6.600   4.227   4.653 -0.3800  0.5500 -0.6672
11831SOL    HW136087   6.635   4.232   4.742  1.0378 -0.8630 -1.1327
11831SOL    HW236088   6.531   4.294   4.651  0.7521  1.8081  0.9461
11832SOL     OW36089   3.569   2.824   0.129 -0.4520  0.0875 -0.3776
11832SOL    HW136090   3.525   2.908   0.118 -0.5438  0.0919  0.0224
11832SOL    HW236091   3.499   2.762   0.148 -0.5855 -0.4215 -2.3876
11833SOL     OW36092   1.291   0.309   6.610  0.8437  0.1093 -0.3851
11833SOL    HW136093   1.275   0.217   6.633  2.1787  0.5021  2.3718
11833SOL    HW236094   1.283   0.355   6.694  3.1515  2.0871 -1.2096
11834SOL     OW36095   3.727   1.489   0.746 -0.1632 -0.6789 -0.6715
11834SOL    HW136096   3.728   1.489   0.842 -1.2239 -1.6081 -0.6554
11834SOL    HW236097   3.744   1.398   0.722  3.0608  0.0661 -1.4226
11835SOL     OW36098   6.884   3.969   5.946  0.1332  0.0068 -0.2343
11835SOL    HW136099   6.845   4.051   5.916 -1.5367 -0.1624  1.3552
11835SOL    HW236100   6.975   3.991   5.965 -0.9498  2.2816  2.9304
11836SOL     OW36101   2.074   2.000   5.781  0.7172 -0.2409 -0.2774
11836SOL    HW136102   2.057   2.050   5.860 -0.0826 -1.6998  0.4861
11836SOL    HW236103   1.991   2.002   5.733  1.4249  1.3013 -1.4673
11837SOL     OW36104   4.267   5.213   2.134 -0.3120 -0.1184 -0.4666
11837SOL    HW136105   4.319   5.254   2.202  0.8106 -1.5145 -0.4420
11837SOL    HW236106   4.319   5.225   2.054 -0.7777  0.0003 -0.7509
11838SOL     OW36107   6.904   6.815   6.293 -0.0165  0.3349  0.3431
11838SOL    HW136108   6.974   6.879   6.302 -0.1914  0.5210  0.3836
11838SOL    HW236109   6.883   6.790   6.383 -1.0464  1.4129  0.4143
11839SOL     OW36110   0.935   5.639   5.020  0.1332  0.5321 -0.1251
11839SOL    HW136111   0.940   5.650   5.115 -0.7103  0.6445 -0.0907
11839SOL    HW236112   0.906   5.549   5.008  0.6538  0.3888 -0.2824
11840SOL     OW36113   3.632   1.282   2.853  0.1437 -0.3405 -0.4243
11840SOL    HW136114   3.591   1.242   2.930 -1.3489  0.0560 -0.9864
11840SOL    HW236115   3.625   1.377   2.868  0.5003 -0.2638 -0.7181
11841SOL     OW36116   6.922   5.729   3.551 -0.0969 -0.0195 -0.3192
11841SOL    HW136117   6.899   5.704   3.461 -0.2365  0.0985 -0.3160
11841SOL    HW236118   6.994   5.791   3.540 -0.5731  0.5264 -0.3804
11842SOL     OW36119   0.121   6.501   0.573  0.3230  0.4054  0.0004
11842SOL    HW136120   0.126   6.427   0.633  2.4431  0.6310  0.1672
11842SOL    HW236121   0.198   6.491   0.517 -1.6042  0.2105 -2.6809
11843SOL     OW36122   2.499   2.382   2.188 -0.3829  0.4784  0.6480
11843SOL    HW136123   2.565   2.411   2.125 -0.3003  0.4368  0.7140
11843SOL    HW236124   2.416   2.409   2.150 -0.3726 -0.0426  0.2472
11844SOL     OW36125   6.714   4.144   4.109 -0.5798 -0.0680  0.1197
11844SOL    HW136126   6.657   4.067   4.099 -1.1458  0.3836 -0.1342
11844SOL    HW236127   6.712   4.187   4.024 -0.8324  0.6221  0.4714
11845SOL     OW36128   5.174   2.866   6.243  0.1701 -0.1615 -0.1389
11845SOL    HW136129   5.177   2.861   6.148 -2.9718 -0.1082 -0.3035
11845SOL    HW236130   5.162   2.960   6.261 -1.2913 -0.4015  0.1928
11846SOL     OW36131   1.557   4.103   4.136 -0.5279  0.8012  0.4418
11846SOL    HW136132   1.474   4.146   4.118 -0.9213 -0.0381  0.1967
11846SOL    HW236133   1.608   4.115   4.056 -0.9325  0.1449  0.0797
11847SOL     OW36134   0.809   1.618   5.952  0.1506 -0.2136 -0.8875
11847SOL    HW136135   0.882   1.555   5.953  1.0013  0.7434 -1.4082
11847SOL    HW236136   0.849   1.701   5.977 -1.2497 -0.1503  1.1967
11848SOL     OW36137   4.671   5.618   5.286  0.2023  0.2784  0.0481
11848SOL    HW136138   4.759   5.627   5.251  0.1779 -0.2808 -0.1672
11848SOL    HW236139   4.628   5.701   5.266 -0.3648 -0.6281 -2.8017
11849SOL     OW36140   7.065   5.387   2.949 -0.1769 -0.0723 -0.0732
11849SOL    HW136141   7.075   5.474   2.986 -3.6301  0.7074 -0.7936
11849SOL    HW236142   7.115   5.390   2.867  0.3912  0.9535  0.3049
11850SOL     OW36143   3.358   6.085   2.608  0.2823  0.2703  0.3840
11850SOL    HW136144   3.263   6.091   2.615  0.0505  0.5053 -2.2525
11850SOL    HW236145   3.390   6.105   2.696 -2.0482  1.4191  1.0279
11851SOL     OW36146   2.089   6.065   2.458 -0.2801  0.3853  0.1559
11851SOL    HW136147   2.080   6.156   2.487  0.2122  0.1059  1.2437
11851SOL    HW236148   2.070   6.067   2.365  1.1299  1.8579 -0.1332
11852SOL     OW36149   0.587   3.475   1.935 -0.1636  0.3723 -0.1456
11852SOL    HW136150   0.662   3.483   1.877  0.9042 -0.3399  1.1247
11852SOL    HW236151   0.588   3.384   1.964  0.5784  1.2352  2.6666
11853SOL     OW36152   0.833   4.166   4.497 -0.3015 -0.6948  0.6070
11853SOL    HW136153   0.787   4.192   4.417 -0.3259 -2.0866  0.1717
11853SOL    HW236154   0.776   4.197   4.568  0.6487  2.2791  0.1366
11854SOL     OW36155   4.442   6.001   5.842  0.3927  0.0340  0.6142
11854SOL    HW136156   4.370   5.954   5.883 -0.0417  0.9843  0.9411
11854SOL    HW236157   4.486   5.935   5.789 -1.8277 -0.1228 -1.0710
11855SOL     OW36158   4.452   2.603   6.371  0.0747 -0.6501  0.1120
11855SOL    HW136159   4.519   2.535   6.361  1.7051  0.7391  1.2058
11855SOL    HW236160   4.413   2.586   6.456  0.0691 -0.5607  0.1266
11856SOL     OW36161   2.880   3.464   6.119  0.1378 -0.1414  0.6456
11856SOL    HW136162   2.857   3.535   6.060  0.0645 -1.3797 -0.8597
11856SOL    HW236163   2.976   3.461   6.117  0.1390 -0.1088  0.6729
11857SOL     OW36164   6.301   3.226   1.955 -0.4275  0.1932 -0.4949
11857SOL    HW136165   6.397   3.232   1.958 -0.3880 -0.7500  0.5265
11857SOL    HW236166   6.280   3.219   1.862  0.5441 -0.2100 -0.6911
11858SOL     OW36167   4.380   4.165   6.271 -0.1833 -0.2241 -0.0884
11858SOL    HW136168   4.469   4.137   6.249 -0.2963 -0.0590 -0.7708
11858SOL    HW236169   4.363   4.126   6.357  1.5995  2.1003  1.3560
11859SOL     OW36170   0.153   4.214   0.154  0.2564  0.0191 -0.3123
11859SOL    HW136171   0.197   4.173   0.229 -1.3804  0.5911  0.9948
11859SOL    HW236172   0.150   4.307   0.177 -0.8682  0.0976 -0.7589
11860SOL     OW36173   5.296   2.083   0.954 -0.6988 -0.3438  0.3826
11860SOL    HW136174   5.257   2.048   1.034 -0.9120 -0.2389  0.3238
11860SOL    HW236175   5.390   2.087   0.974 -0.6736 -0.9770  0.3711
11861SOL     OW36176   0.194   7.168   5.894 -0.8647 -0.0680 -0.0538
11861SOL    HW136177   0.277   7.152   5.850 -0.8174  1.1550 -0.4305
11861SOL    HW236178   0.195   7.262   5.912 -2.2590 -0.0105 -0.2546
11862SOL     OW36179   2.738   1.302   1.009 -0.2906 -0.1804  0.3085
11862SOL    HW136180   2.814   1.324   1.063  0.3136  1.2617 -1.1085
11862SOL    HW236181   2.750   1.352   0.929 -2.1358 -0.8712 -0.4221
11863SOL     OW36182   0.682   6.153   1.768 -0.5139  0.2804 -0.5951
11863SOL    HW136183   0.672   6.120   1.679  0.9341 -1.4890 -0.1272
11863SOL    HW236184   0.678   6.076   1.824  0.7705  1.1153  0.6962
11864SOL     OW36185   0.310   5.927   5.260 -0.1146 -0.2092 -0.3005
11864SOL    HW136186   0.220   5.895   5.254 -1.3112  2.6659  1.3280
11864SOL    HW236187   0.307   6.013   5.219  1.2236  1.1396  2.3409
11865SOL     OW36188   0.499   6.010   3.332 -0.0378  0.0074 -0.5893
11865SOL    HW136189   0.546   5.977   3.409 -0.7969  1.8805  0.7191
11865SOL    HW236190   0.407   5.994   3.352 -0.3444  1.7895 -0.4260
11866SOL     OW36191   6.344   2.368   6.792  0.0974 -0.2499  0.4622
11866SOL    HW136192   6.264   2.382   6.844 -0.0756 -0.2411  0.1938
11866SOL    HW236193   6.359   2.274   6.797 -0.0122 -0.2711  0.3892
11867SOL     OW36194   0.121   1.015   1.276  0.7258 -0.7276  0.1079
11867SOL    HW136195   0.104   1.083   1.341  1.9580 -1.2659  1.0119
11867SOL    HW236196   0.200   0.971   1.308  0.3867 -2.0688 -0.8832
11868SOL     OW36197   4.387   7.215   0.060 -0.3908  0.0487 -0.0859
11868SOL    HW136198   4.325   7.283   0.087 -2.4855 -0.6005 -3.0303
11868SOL    HW236199   4.349   7.178  -0.020  1.7938 -3.1213  0.2432
11869SOL     OW36200   3.543   2.542   0.355 -0.4409  0.0903 -0.4658
11869SOL    HW136201   3.563   2.605   0.425 -0.0032 -0.8759  0.2921
11869SOL    HW236202   3.629   2.511   0.326 -0.7089 -3.1776  1.9556
11870SOL     OW36203   5.997   0.732   4.588  0.5758  0.1502  0.4722
11870SOL    HW136204   5.928   0.794   4.565 -1.0938 -1.4010  1.2278
11870SOL    HW236205   5.976   0.703   4.677  1.1789 -1.7000  0.0372
11871SOL     OW36206   5.074   4.774   1.837 -0.5577 -0.8979 -0.1111
11871SOL    HW136207   5.057   4.697   1.892 -0.6581 -2.3186 -2.0747
11871SOL    HW236208   5.104   4.841   1.899  0.2487 -2.7314  1.5655
11872SOL     OW36209   0.038   1.765   6.662 -0.0037 -0.7134  0.4914
11872SOL    HW136210   0.088   1.824   6.606 -0.3784  0.9901  1.8972
11872SOL    HW236211   0.086   1.683   6.659  0.9081 -0.1441 -0.9849
11873SOL     OW36212   6.611   2.973   5.999  0.2705  0.5324 -0.0976
11873SOL    HW136213   6.543   3.036   6.022  0.4801  0.4091  0.8665
11873SOL    HW236214   6.586   2.892   6.042  0.4906  0.2053 -0.5769
11874SOL     OW36215   7.160   2.837   0.271  0.0163 -0.1428  0.0777
11874SOL    HW136216   7.144   2.808   0.181 -2.1626 -1.1817  0.7517
11874SOL    HW236217   7.075   2.827   0.315  1.0296  0.3577  2.2484
11875SOL     OW36218   1.716   6.731   3.093 -0.3000  0.3534 -0.5872
11875SOL    HW136219   1.793   6.788   3.103  1.1567 -1.1216 -3.0662
11875SOL    HW236220   1.675   6.759   3.011 -0.9624 -0.5773 -0.5860
11876SOL     OW36221   2.372   1.386   6.197  0.4255  0.0580  0.1708
11876SOL    HW136222   2.336   1.447   6.134 -1.4740 -0.3067  0.8643
11876SOL    HW236223   2.419   1.441   6.260  0.9421  0.5574 -0.6417
11877SOL     OW36224   3.721   4.426   7.073  0.0350  0.3507  0.1413
11877SOL    HW136225   3.732   4.343   7.025 -1.1185  1.1066 -1.4593
11877SOL    HW236226   3.648   4.409   7.132  1.4551 -0.5823  1.6825
11878SOL     OW36227   2.972   1.539   5.709 -0.4760 -0.5298 -0.4257
11878SOL    HW136228   2.910   1.606   5.682 -0.3838 -0.6315 -0.8942
11878SOL    HW236229   2.938   1.458   5.671  0.7668 -0.3420 -1.9935
11879SOL     OW36230   6.177   0.911   3.122  0.3705  0.0819 -0.3237
11879SOL    HW136231   6.206   0.934   3.034 -1.3545  0.5234 -0.7951
11879SOL    HW236232   6.167   0.816   3.120  2.0281 -0.1061 -0.0693
11880SOL     OW36233   7.108   6.781   3.689 -0.0469 -0.2247 -0.5482
11880SOL    HW136234   7.103   6.876   3.698 -1.1927 -0.1653 -1.5839
11880SOL    HW236235   7.025   6.749   3.726 -0.2574 -0.7118 -1.4238
11881SOL     OW36236   4.641   3.798   1.466  0.0965 -0.0795  0.5928
11881SOL    HW136237   4.690   3.781   1.386  1.7424  0.4631  1.4680
11881SOL    HW236238   4.707   3.797   1.535 -1.3637 -0.9135  1.9953
11882SOL     OW36239   6.866   4.846   1.390  0.1871 -0.4231  0.3779
11882SOL    HW136240   6.900   4.902   1.321 -0.2490 -1.9031 -1.0726
11882SOL    HW236241   6.943   4.800   1.423  0.3741  0.1813  0.7953
11883SOL     OW36242   0.940   4.439   2.173  0.1494  0.4046 -0.2889
11883SOL    HW136243   0.961   4.434   2.079 -1.0780  0.5093 -0.5740
11883SOL    HW236244   0.910   4.351   2.195 -0.6006  0.6675 -0.2491
11884SOL     OW36245   1.197   6.080   1.364 -0.3397 -0.2949 -0.1644
11884SOL    HW136246   1.228   5.996   1.396  0.4804 -0.2419 -0.8160
11884SOL    HW236247   1.157   6.121   1.441 -2.2539 -1.9632 -0.2291
11885SOL     OW36248   2.188   2.983   5.723  0.4161 -0.0453 -0.3829
11885SOL    HW136249   2.261   3.041   5.702  0.8361 -1.0462 -1.7550
11885SOL    HW236250   2.228   2.897   5.736 -0.4503 -0.4666 -0.4589
11886SOL     OW36251   3.446   5.738   2.873 -0.5292 -0.2268 -0.8406
11886SOL    HW136252   3.502   5.781   2.809 -1.3137  0.0268 -1.3728
11886SOL    HW236253   3.494   5.742   2.955  0.2811 -0.1319 -1.3216
11887SOL     OW36254   5.168   0.615   5.105 -0.1860 -0.2857 -0.7435
11887SOL    HW136255   5.198   0.692   5.153 -1.4475 -0.5575  0.4943
11887SOL    HW236256   5.249   0.577   5.070  0.6359  0.5843  0.1587
11888SOL     OW36257   0.451   2.072   6.172 -0.2147 -0.1445 -0.2150
11888SOL    HW136258   0.418   1.999   6.225 -1.1531  0.5448  0.1772
11888SOL    HW236259   0.509   2.031   6.108  0.2570 -1.0913  0.7989
11889SOL     OW36260   1.149   4.217   1.019  0.2274 -0.2012  0.0100
11889SOL    HW136261   1.233   4.255   1.045 -0.2089 -0.6512  2.1685
11889SOL    HW236262   1.088   4.291   1.024  0.3270 -0.0582 -0.7775
11890SOL     OW36263   6.311   0.229   5.466  0.1718 -0.1761 -0.0318
11890SOL    HW136264   6.286   0.139   5.486 -1.3670  0.5648  1.5367
11890SOL    HW236265   6.252   0.255   5.395  2.2119 -1.1394 -2.1516
11891SOL     OW36266   4.550   0.418   5.332  0.1946  0.0666 -0.4076
11891SOL    HW136267   4.636   0.376   5.333  0.3220  0.3244 -0.3574
11891SOL    HW236268   4.488   0.346   5.331  0.4305 -0.1156 -2.0997
11892SOL     OW36269   0.297   3.960   0.707 -0.1505 -0.4707 -0.4429
11892SOL    HW136270   0.221   3.910   0.677 -1.5015  1.0867  0.3040
11892SOL    HW236271   0.288   3.962   0.802  1.0113 -0.5500 -0.3306
11893SOL     OW36272   6.831   6.050   5.582 -0.2433 -0.8430 -0.3323
11893SOL    HW136273   6.794   6.055   5.670  0.1934  0.4790 -0.2147
11893SOL    HW236274   6.797   5.968   5.546 -1.2432 -0.8831  0.6899
11894SOL     OW36275   0.048   2.360   1.932  0.1149  0.5809  0.4106
11894SOL    HW136276   0.082   2.360   1.843  0.3658  0.2071  0.5068
11894SOL    HW236277  -0.026   2.300   1.930  0.6485 -0.0940  0.6533
11895SOL     OW36278   3.409   4.315   1.018  0.1533 -0.0165  0.1810
11895SOL    HW136279   3.395   4.296   1.110  1.9895  2.7810  1.1057
11895SOL    HW236280   3.504   4.309   1.006 -0.0759 -0.6289 -1.6287
11896SOL     OW36281   4.900   0.848   4.702 -0.0359  0.2995  0.1930
11896SOL    HW136282   4.812   0.812   4.715 -0.1356 -0.3379 -2.1618
11896SOL    HW236283   4.959   0.783   4.741 -0.5430  0.3597  1.0773
11897SOL     OW36284   2.485   3.264   5.807 -0.2244 -0.3381 -0.1930
11897SOL    HW136285   2.484   3.360   5.800 -3.4371 -0.4163 -2.2067
11897SOL    HW236286   2.440   3.246   5.890  0.5529 -0.1081  0.2819
11898SOL     OW36287   1.186   5.258   6.529  0.0272  0.3628 -0.0155
11898SOL    HW136288   1.183   5.332   6.468  1.3329  1.4870  1.2398
11898SOL    HW236289   1.232   5.189   6.481  1.9252  1.5755  0.0138
11899SOL     OW36290   3.600   5.732   6.440  0.1141  0.2911  0.6542
11899SOL    HW136291   3.643   5.734   6.355 -0.2171  2.2770  0.5166
11899SOL    HW236292   3.507   5.744   6.422 -0.4530 -2.9063  1.0440
11900SOL     OW36293   0.234   0.550   5.661 -0.0420  0.3455  0.0206
11900SOL    HW136294   0.259   0.636   5.629  0.2662 -0.2323 -1.3253
11900SOL    HW236295   0.140   0.543   5.643 -0.2333  0.7120  0.8661
11901SOL     OW36296   3.198   0.576   4.334 -0.3544 -0.5200 -0.0055
11901SOL    HW136297   3.141   0.552   4.260 -0.6067 -0.0578  0.0408
11901SOL    HW236298   3.281   0.601   4.293  0.1148 -2.0432 -0.0244
11902SOL     OW36299   1.575   6.739   1.786 -0.5338  0.2064  0.0404
11902SOL    HW136300   1.631   6.735   1.863 -1.3960  0.9121  0.7199
11902SOL    HW236301   1.635   6.741   1.711  0.3673  2.3109  0.8104
11903SOL     OW36302   1.393   4.554   3.695 -0.4762 -0.3583 -0.0608
11903SOL    HW136303   1.329   4.525   3.761 -2.3874  0.9936 -1.2609
11903SOL    HW236304   1.364   4.642   3.672  1.4592  0.0092 -1.1471
11904SOL     OW36305   5.996   3.022   3.985 -0.8048 -0.2711 -0.1369
11904SOL    HW136306   6.030   2.933   3.977  2.0716  0.5820  1.9418
11904SOL    HW236307   5.912   3.010   4.031 -0.1930 -1.8664  0.6261
11905SOL     OW36308   4.364   6.674   4.830 -0.1139  0.1404 -0.1051
11905SOL    HW136309   4.446   6.709   4.795 -0.5783  0.3238 -1.0284
11905SOL    HW236310   4.367   6.581   4.811 -0.8379  0.4091 -1.6177
11906SOL     OW36311   4.141   2.692   7.179 -0.3669 -0.3512 -0.2149
11906SOL    HW136312   4.064   2.674   7.125 -0.1203 -0.3839 -0.5577
11906SOL    HW236313   4.214   2.656   7.129  0.1060  1.3934 -0.8131
11907SOL     OW36314   1.011   6.864   0.599 -0.0202  0.0749  0.1138
11907SOL    HW136315   0.968   6.886   0.517  0.5262  2.2045  0.3858
11907SOL    HW236316   1.085   6.924   0.605  1.3404 -1.6329  1.0372
11908SOL     OW36317   7.033   5.221   6.940 -0.0322 -0.4641 -0.1955
11908SOL    HW136318   6.982   5.302   6.929  2.0559  0.9612  0.2451
11908SOL    HW236319   7.028   5.201   7.033  1.1360  0.3293  0.0490
11909SOL     OW36320   1.545   2.289   5.769 -0.0060  0.5673  0.1602
11909SOL    HW136321   1.527   2.278   5.863  1.2594  0.1541  0.3658
11909SOL    HW236322   1.494   2.366   5.744 -3.5310 -1.6336  0.2501
11910SOL     OW36323   4.237   5.867   1.221 -0.6748  0.3539  0.3947
11910SOL    HW136324   4.304   5.801   1.241  0.6104  0.6908 -2.4181
11910SOL    HW236325   4.185   5.875   1.301  2.0317 -0.6645  2.3237
11911SOL     OW36326   5.441   4.983   3.661  0.1135 -0.2480  0.4262
11911SOL    HW136327   5.360   5.023   3.692  0.3892  0.4827  0.2151
11911SOL    HW236328   5.464   4.919   3.728 -1.1072 -1.0775  0.0577
11912SOL     OW36329   6.294   5.546   3.378  0.2321  0.8158 -0.2291
11912SOL    HW136330   6.304   5.508   3.465 -0.4125  1.1790  0.0148
11912SOL    HW236331   6.325   5.479   3.317  0.4952  0.4848  0.2744
11913SOL     OW36332   3.108   1.128   0.912  1.0251  0.4900  0.1044
11913SOL    HW136333   3.118   1.208   0.964  0.4320 -0.4149  1.6511
11913SOL    HW236334   3.175   1.069   0.946  0.0845 -0.4058  0.4136
11914SOL     OW36335   3.243   4.229   5.802 -0.1072 -0.4446 -0.1045
11914SOL    HW136336   3.182   4.158   5.781 -0.7743 -0.1436  0.7814
11914SOL    HW236337   3.214   4.302   5.746 -0.6474 -0.2611  0.4116
11915SOL     OW36338   4.365   1.789   5.223  0.2504 -0.5079 -0.1336
11915SOL    HW136339   4.429   1.834   5.168 -1.0201  0.1859 -1.0630
11915SOL    HW236340   4.283   1.835   5.207 -0.6792 -1.9916  0.3252
11916SOL     OW36341   1.490   2.665   4.051 -0.5666 -0.7319 -0.3310
11916SOL    HW136342   1.512   2.708   4.133  0.5736 -0.6316 -0.6803
11916SOL    HW236343   1.405   2.702   4.027 -0.5685 -0.2235  0.4312
11917SOL     OW36344   4.435   3.869   0.238 -0.0337  0.4190 -0.4114
11917SOL    HW136345   4.461   3.960   0.233  1.6106  0.0035  0.1697
11917SOL    HW236346   4.472   3.828   0.160  0.9361 -0.1389  0.3208
11918SOL     OW36347   6.050   0.504   1.976  0.2111 -0.7105 -0.1645
11918SOL    HW136348   6.036   0.451   2.054 -2.5154  0.4375  0.1928
11918SOL    HW236349   6.010   0.454   1.905  0.2209 -0.4847 -0.3291
11919SOL     OW36350   4.961   3.651   1.883  0.5100 -0.2070  0.3105
11919SOL    HW136351   5.006   3.644   1.967 -0.8593 -0.7540  1.0245
11919SOL    HW236352   4.868   3.638   1.905  0.0981  0.0505 -1.2286
11920SOL     OW36353   4.622   1.936   5.448  0.3744  0.0239 -0.4079
11920SOL    HW136354   4.606   1.902   5.536 -0.8132 -0.4031 -0.7725
11920SOL    HW236355   4.541   1.916   5.400  1.3338 -0.4959 -1.8229
11921SOL     OW36356   5.675   2.126   3.098 -0.6820  0.0782  0.2740
11921SOL    HW136357   5.670   2.095   3.007  1.6180 -1.6785  0.6905
11921SOL    HW236358   5.629   2.060   3.148 -2.4838  1.3613  0.3691
11922SOL     OW36359   6.976   4.417   6.517  0.0592 -0.2801 -0.0048
11922SOL    HW136360   6.968   4.501   6.562  0.3835 -0.1736 -0.1450
11922SOL    HW236361   7.046   4.431   6.452 -0.9616 -0.1763 -1.1074
11923SOL     OW36362   3.576   5.596   1.388  0.2844  0.5796 -0.3227
11923SOL    HW136363   3.522   5.596   1.309  1.1001 -1.0680 -0.8890
11923SOL    HW236364   3.521   5.555   1.455 -0.6614  2.5861  0.1756
11924SOL     OW36365   3.433   0.336   1.023  0.1309  0.3470 -0.0677
11924SOL    HW136366   3.424   0.304   0.933 -1.7171  0.2396  0.1244
11924SOL    HW236367   3.388   0.270   1.076  3.0108 -0.6709  1.1846
11925SOL     OW36368   6.003   0.207   0.600  0.1792  0.0030  0.4933
11925SOL    HW136369   5.964   0.126   0.632  0.0362 -0.6116 -1.1861
11925SOL    HW236370   6.095   0.185   0.585  0.4588  0.5517  1.3905
11926SOL     OW36371   5.756   3.233   4.106 -0.1665  0.0235 -0.4398
11926SOL    HW136372   5.754   3.185   4.024 -1.3105 -0.3296 -0.2128
11926SOL    HW236373   5.665   3.262   4.119  0.7806  3.8144 -1.4879
11927SOL     OW36374   1.646   2.419   5.127  0.0987 -0.7484  0.4855
11927SOL    HW136375   1.716   2.483   5.143 -2.0058  2.0491 -1.0497
11927SOL    HW236376   1.689   2.349   5.078  1.7158  1.2714 -1.0994
11928SOL     OW36377   5.312   6.436   2.217 -0.2178 -0.3781  0.7803
11928SOL    HW136378   5.240   6.449   2.279  0.0630 -1.5557  1.3870
11928SOL    HW236379   5.386   6.481   2.257 -0.8818  1.8234 -0.4074
11929SOL     OW36380   3.848   5.064   1.113  0.4382 -0.1564  0.1147
11929SOL    HW136381   3.807   5.028   1.034  1.6726 -1.8449  0.2148
11929SOL    HW236382   3.936   5.028   1.113  0.7967  0.6631  1.7303
11930SOL     OW36383   0.192   5.491   0.354 -0.3382  0.7480  0.0818
11930SOL    HW136384   0.245   5.499   0.433 -0.3125  1.8975 -0.0441
11930SOL    HW236385   0.200   5.577   0.311  0.0590 -0.0206 -1.4204
11931SOL     OW36386   0.141   2.988   0.645  0.1898 -0.1276 -0.2834
11931SOL    HW136387   0.061   2.962   0.599 -0.6488 -1.0294  1.6185
11931SOL    HW236388   0.208   2.927   0.614 -0.0256  0.1470 -1.3128
11932SOL     OW36389   2.431   2.879   3.112 -0.2535  0.4097  0.5479
11932SOL    HW136390   2.511   2.827   3.121 -1.0480 -1.5058 -2.7331
11932SOL    HW236391   2.417   2.915   3.199  3.0265 -0.9100  1.7255
11933SOL     OW36392   4.400   2.718   3.828 -0.4553  0.0595  0.2481
11933SOL    HW136393   4.441   2.641   3.790 -0.3597  0.7971 -1.1896
11933SOL    HW236394   4.317   2.686   3.864  0.1863 -0.9458  0.8324
11934SOL     OW36395   0.258   2.991   4.954  0.3097 -0.2881  0.1333
11934SOL    HW136396   0.248   2.898   4.976  0.1568 -0.5465 -1.0336
11934SOL    HW236397   0.176   3.031   4.982 -0.6892 -0.9638 -1.7952
11935SOL     OW36398   7.031   4.138   3.501  0.4296 -0.6037 -0.0979
11935SOL    HW136399   7.022   4.139   3.597  1.4942 -1.7266  0.0286
11935SOL    HW236400   6.952   4.180   3.469  1.1196  1.8740  1.3399
11936SOL     OW36401   1.336   4.865   1.599 -0.1723 -0.4501 -0.4035
11936SOL    HW136402   1.303   4.796   1.656  0.2457 -0.9670 -0.7715
11936SOL    HW236403   1.336   4.944   1.653 -1.3074 -0.5937 -0.1886
11937SOL     OW36404   1.797   4.581   6.071  0.3702 -0.6363 -0.0746
11937SOL    HW136405   1.794   4.606   6.163 -2.5541 -0.2317 -0.2287
11937SOL    HW236406   1.810   4.486   6.072  1.3521 -0.5004  0.7249
11938SOL     OW36407   2.585   7.089   3.738 -0.1088  0.1712  0.5781
11938SOL    HW136408   2.601   7.171   3.691  0.5605  0.8365  1.9429
11938SOL    HW236409   2.558   7.117   3.826 -2.4564 -1.0340  0.2689
11939SOL     OW36410   5.267   4.368   1.808 -0.0005  0.0630  0.0269
11939SOL    HW136411   5.313   4.369   1.892  0.1188  0.2293 -0.0395
11939SOL    HW236412   5.176   4.387   1.831 -0.4345 -2.3022  0.3833
11940SOL     OW36413   6.896   2.504   0.388  0.0786 -0.5541  0.2355
11940SOL    HW136414   6.958   2.513   0.315  1.3468  1.6969  1.5298
11940SOL    HW236415   6.949   2.472   0.461 -0.6971 -0.5849  0.7909
11941SOL     OW36416   0.409   2.538   4.847 -0.5712 -0.0385 -0.3374
11941SOL    HW136417   0.446   2.626   4.834  0.7455 -0.1283  2.4875
11941SOL    HW236418   0.480   2.479   4.822 -1.1925 -0.3072 -1.4905
11942SOL     OW36419   3.094   4.863   2.983  0.3124 -0.3760  0.3186
11942SOL    HW136420   3.021   4.867   3.045  0.0467 -2.1518  0.1451
11942SOL    HW236421   3.107   4.954   2.956 -1.7689 -0.0214  0.4129
11943SOL     OW36422   5.351   6.790   6.769  0.4850  0.2387 -0.0929
11943SOL    HW136423   5.273   6.756   6.725 -0.0409  0.5365  0.5954
11943SOL    HW236424   5.377   6.720   6.829  0.9726 -0.0124 -0.5997
11944SOL     OW36425   1.822   5.657   6.726  0.4414 -0.3939  0.2688
11944SOL    HW136426   1.816   5.603   6.804  0.7519 -0.6683  0.1036
11944SOL    HW236427   1.801   5.597   6.654 -1.1496  0.1566  0.2478
11945SOL     OW36428   6.572   5.486   0.010  0.3168  0.1718  0.2740
11945SOL    HW136429   6.587   5.556  -0.053  0.0981 -0.1142 -0.0965
11945SOL    HW236430   6.593   5.405  -0.037  1.6068  0.0587  1.0306
11946SOL     OW36431   1.218   7.039   0.613 -0.0405  0.7902 -0.6284
11946SOL    HW136432   1.274   7.081   0.548 -1.5398 -0.4792 -2.7862
11946SOL    HW236433   1.268   7.044   0.695  2.0852  1.9599 -1.9616
11947SOL     OW36434   0.571   2.999   5.396 -0.0677 -0.2291  0.1380
11947SOL    HW136435   0.587   2.913   5.357 -0.9060 -0.4055  0.1714
11947SOL    HW236436   0.477   3.013   5.384 -0.2156 -0.0123  1.5347
11948SOL     OW36437   6.962   6.403   4.166  0.4275  0.0540 -0.0765
11948SOL    HW136438   7.015   6.350   4.224 -0.0535  0.1286  0.4373
11948SOL    HW236439   6.884   6.425   4.218  2.2073  4.2829  1.0527
11949SOL     OW36440   6.899   6.344   4.956 -0.0786  0.3755 -0.3570
11949SOL    HW136441   6.900   6.386   5.042 -1.5843  0.8023 -0.5294
11949SOL    HW236442   6.815   6.298   4.952 -0.4733  1.1683 -1.9681
11950SOL     OW36443   6.809   4.439   5.055 -0.0660 -0.3150 -0.3338
11950SOL    HW136444   6.742   4.493   5.097  1.4537  1.0991  0.3343
11950SOL    HW236445   6.857   4.501   4.999  3.3073 -0.3595  2.3444
11951SOL     OW36446   5.129   0.446   2.283 -0.2311  1.1455 -0.1083
11951SOL    HW136447   5.087   0.367   2.248  1.0815  0.2076  0.3585
11951SOL    HW236448   5.185   0.477   2.211  1.2603  0.1174  0.5636
11952SOL     OW36449   4.439   3.780   2.554  0.5208 -0.3259 -0.5757
11952SOL    HW136450   4.486   3.820   2.480 -0.7116 -1.6841 -2.1379
11952SOL    HW236451   4.361   3.834   2.564  0.1205 -0.8115 -1.0297
11953SOL     OW36452   5.433   1.652   7.101  0.2498 -0.0356 -0.3344
11953SOL    HW136453   5.345   1.672   7.131  0.6309  0.0678  0.7399
11953SOL    HW236454   5.442   1.699   7.018 -0.7919 -0.2657 -0.5812
11954SOL     OW36455   3.413   2.239   0.103 -0.0457 -0.1111  0.1280
11954SOL    HW136456   3.354   2.164   0.095 -0.5814 -0.0145  2.7801
11954SOL    HW236457   3.465   2.221   0.181  0.9162  1.5239 -0.1089
11955SOL     OW36458   5.068   2.715   7.083  0.4169  0.3208 -0.0202
11955SOL    HW136459   5.057   2.713   6.988 -2.9997 -0.5250  0.3350
11955SOL    HW236460   5.035   2.801   7.108 -0.4420 -0.1853  0.5861
11956SOL     OW36461   0.183   4.366   4.619 -0.1696  0.5158 -0.3569
11956SOL    HW136462   0.100   4.325   4.645  0.9659 -1.2906  0.5105
11956SOL    HW236463   0.182   4.362   4.523 -1.3660  1.0659 -0.3696
11957SOL     OW36464   0.748   3.971   2.183  0.2504 -0.3297 -0.5870
11957SOL    HW136465   0.723   3.949   2.093  1.0290 -0.9778 -0.6481
11957SOL    HW236466   0.769   3.887   2.224  0.9867  0.0744 -0.1326
11958SOL     OW36467   5.681   6.385   7.140 -0.3069 -0.0800  0.4427
11958SOL    HW136468   5.645   6.462   7.184  0.3947  1.5876 -1.8024
11958SOL    HW236469   5.607   6.346   7.094 -0.3923  0.0464  0.4734
11959SOL     OW36470   2.379   2.319   6.792 -0.2127 -0.1352  0.5299
11959SOL    HW136471   2.360   2.387   6.857  0.6771  0.7985 -0.1608
11959SOL    HW236472   2.474   2.308   6.797 -0.1615 -0.1578 -0.5121
11960SOL     OW36473   6.824   4.050   5.633  0.1007 -0.2549 -0.0814
11960SOL    HW136474   6.865   4.135   5.648 -0.9399  0.4518 -1.1700
11960SOL    HW236475   6.781   4.029   5.716  2.0418 -0.6930  0.8555
11961SOL     OW36476   4.137   6.807   4.280 -1.0610 -0.4649  0.5232
11961SOL    HW136477   4.210   6.840   4.228 -2.0747  0.0473 -0.5956
11961SOL    HW236478   4.178   6.769   4.357  0.2381  1.7572  0.9621
11962SOL     OW36479   4.069   0.611   5.505  0.1853  0.0848 -0.2969
11962SOL    HW136480   3.995   0.641   5.453 -0.4176 -1.7213 -0.5309
11962SOL    HW236481   4.090   0.524   5.469  0.9666 -0.3802  1.2260
11963SOL     OW36482   3.317   6.793   4.470  0.0110 -0.2932 -0.3994
11963SOL    HW136483   3.354   6.756   4.391 -0.2952 -0.3728 -0.5078
11963SOL    HW236484   3.285   6.718   4.520 -1.5685 -0.1226 -1.1026
11964SOL     OW36485   5.667   6.953   2.533  0.7694 -0.2001  0.1392
11964SOL    HW136486   5.598   6.890   2.551  1.9345 -1.4745  0.1891
11964SOL    HW236487   5.687   6.993   2.618 -0.1523  0.4506  0.0607
11965SOL     OW36488   1.137   6.083   3.540  0.1656  0.0390  0.6046
11965SOL    HW136489   1.182   6.163   3.566  1.4350 -0.4295 -0.0890
11965SOL    HW236490   1.111   6.097   3.449 -1.2365  0.3553  1.0401
11966SOL     OW36491   1.344   0.678   7.198  0.1927 -0.1860 -0.0619
11966SOL    HW136492   1.256   0.666   7.232  0.5930 -0.4568  0.9074
11966SOL    HW236493   1.401   0.670   7.275  0.8809  2.6300 -0.2327
11967SOL     OW36494   2.566   3.741   6.514  0.4191 -0.2419 -0.4388
11967SOL    HW136495   2.649   3.734   6.560  1.0548  1.0238 -1.3500
11967SOL    HW236496   2.581   3.809   6.448 -0.8689 -1.0562 -1.6102
11968SOL     OW36497   2.956   1.278   0.305 -0.4639  0.3615  0.0710
11968SOL    HW136498   2.878   1.312   0.262 -1.4047  0.0032  1.4720
11968SOL    HW236499   2.977   1.197   0.258 -1.2492  0.1854  0.0235
11969SOL     OW36500   0.792   6.023   2.394  0.5463 -0.6478  0.4989
11969SOL    HW136501   0.719   6.080   2.370  2.3372  1.5251  0.0613
11969SOL    HW236502   0.766   5.985   2.478 -0.7544  0.6669  0.7173
11970SOL     OW36503   2.383   0.420   2.435 -0.2797 -0.3084 -0.6589
11970SOL    HW136504   2.441   0.346   2.417  0.6672  0.3168 -0.1406
11970SOL    HW236505   2.308   0.405   2.377 -0.3771 -1.9950 -0.1352
11971SOL     OW36506   1.011   3.882   1.999 -0.8059 -0.1307 -0.1996
11971SOL    HW136507   1.035   3.836   1.919  2.9408  1.9231 -0.4080
11971SOL    HW236508   0.924   3.918   1.982  0.0133  0.4454 -3.4568
11972SOL     OW36509   4.254   2.399   4.211 -0.3809 -0.5124 -0.1094
11972SOL    HW136510   4.268   2.318   4.162  2.1067  0.7190 -1.5492
11972SOL    HW236511   4.192   2.449   4.157 -0.5047 -0.6991 -0.1394
11973SOL     OW36512   3.757   6.834   1.198  0.7469  0.5333  0.2868
11973SOL    HW136513   3.708   6.763   1.239 -2.1331  2.4233  0.2195
11973SOL    HW236514   3.810   6.871   1.269 -1.1993  1.2313  1.3901
11974SOL     OW36515   4.585   5.843   5.663  0.1413 -0.2967 -0.1151
11974SOL    HW136516   4.680   5.848   5.668 -0.0228  3.0739  1.0330
11974SOL    HW236517   4.563   5.883   5.579 -0.2214 -2.1691 -0.9287
11975SOL     OW36518   4.356   2.457   5.274  0.0242 -0.4165 -0.3103
11975SOL    HW136519   4.439   2.409   5.284  0.2066 -0.1532 -0.5818
11975SOL    HW236520   4.380   2.538   5.230 -0.3306 -0.1937 -0.0932
11976SOL     OW36521   2.220   4.999   4.271  0.5080 -0.0465 -0.1771
11976SOL    HW136522   2.232   4.935   4.201  1.3153  0.2471 -0.3137
11976SOL    HW236523   2.130   5.030   4.261 -0.3872 -2.2379  0.8062
11977SOL     OW36524   3.217   1.027   2.383  0.2891 -1.1760 -0.1104
11977SOL    HW136525   3.137   1.079   2.389 -1.0796 -2.9202 -2.3649
11977SOL    HW236526   3.247   1.019   2.473 -2.1247 -0.5494  0.7952
11978SOL     OW36527   2.188   4.535   6.099  0.0327 -0.3911  0.0269
11978SOL    HW136528   2.201   4.445   6.069 -0.7555  0.2445 -2.3201
11978SOL    HW236529   2.231   4.589   6.033 -0.0806  0.9882  1.0555
11979SOL     OW36530   0.016   6.658   6.911 -0.1895  0.1171  0.6734
11979SOL    HW136531  -0.009   6.577   6.956  0.4282 -1.1446 -1.1617
11979SOL    HW236532  -0.067   6.700   6.889 -0.5354 -0.3272  1.1145
11980SOL     OW36533   7.014   0.782   5.651 -0.5510 -0.6251  0.4532
11980SOL    HW136534   7.047   0.768   5.562 -2.0250  2.3857 -0.6163
11980SOL    HW236535   6.950   0.712   5.664  0.2878 -1.5990 -0.5015
11981SOL     OW36536   1.170   6.952   6.274  0.1238  0.1229 -0.2042
11981SOL    HW136537   1.215   7.037   6.267  1.0976 -0.3401  0.3600
11981SOL    HW236538   1.174   6.916   6.185  0.3635  0.3394 -0.2831
11982SOL     OW36539   7.204   4.566   4.480  0.1550  0.2318 -0.1901
11982SOL    HW136540   7.241   4.615   4.554  0.4306 -0.5280  0.1854
11982SOL    HW236541   7.158   4.492   4.521 -2.1623  1.3891 -0.6236
11983SOL     OW36542   0.883   4.611   2.353 -0.5406  0.1758  0.1676
11983SOL    HW136543   0.819   4.670   2.313 -0.5794  1.3187  1.8779
11983SOL    HW236544   0.894   4.541   2.289 -3.1463  0.2152 -0.3887
11984SOL     OW36545   3.014   6.225   6.468  0.2866 -0.0033  0.3842
11984SOL    HW136546   3.035   6.196   6.380  0.9821  0.7838  0.2851
11984SOL    HW236547   3.061   6.307   6.478 -1.0168  0.6972  0.9403
11985SOL     OW36548   4.448   2.171   3.866 -0.0728  0.3953  0.0629
11985SOL    HW136549   4.470   2.078   3.856 -1.8254  0.0235 -0.4130
11985SOL    HW236550   4.530   2.212   3.895  0.8180 -1.2239 -0.1277
11986SOL     OW36551   4.685   4.436   4.267  0.7022 -0.2873  0.6741
11986SOL    HW136552   4.634   4.377   4.211  0.1476  0.0141  0.8528
11986SOL    HW236553   4.727   4.378   4.331  2.1484 -0.7380 -0.6486
11987SOL     OW36554   2.078   6.925   4.588  0.3251 -0.6475 -0.0019
11987SOL    HW136555   2.141   6.935   4.660  1.0909 -1.1255 -0.6042
11987SOL    HW236556   2.131   6.910   4.511 -0.4988 -0.0153 -0.7045
11988SOL     OW36557   2.972   2.366   4.553  0.3735  0.0671 -0.7400
11988SOL    HW136558   2.948   2.383   4.462  2.4884  1.4980 -1.0516
11988SOL    HW236559   3.041   2.429   4.572  1.4248 -1.6191  1.2166
11989SOL     OW36560   4.960   1.158   6.930  0.3419 -0.4046  0.2991
11989SOL    HW136561   5.019   1.086   6.912 -0.2150 -0.5357 -1.0762
11989SOL    HW236562   4.902   1.162   6.853  1.1284  2.2465 -0.2302
11990SOL     OW36563   0.468   2.786   1.120  0.2459 -0.2281  0.0670
11990SOL    HW136564   0.450   2.707   1.068 -1.1437  0.5670 -0.7044
11990SOL    HW236565   0.402   2.784   1.189  1.7850 -1.0236  1.5450
11991SOL     OW36566   1.181   0.376   3.433  0.3146  0.0997 -0.4513
11991SOL    HW136567   1.164   0.368   3.340 -0.1741 -2.8627 -0.1641
11991SOL    HW236568   1.270   0.344   3.444  0.5642  0.9454  0.0471
11992SOL     OW36569   4.801   0.137   4.537  0.1020  0.3295 -0.5368
11992SOL    HW136570   4.796   0.222   4.581  1.7062  0.7100 -1.0546
11992SOL    HW236571   4.772   0.154   4.447 -0.7254  0.0713 -0.3271
11993SOL     OW36572   5.944   6.577   4.186 -0.1796 -0.3243 -0.4969
11993SOL    HW136573   5.857   6.610   4.164 -0.5632 -1.8994 -1.4523
11993SOL    HW236574   6.001   6.609   4.117 -0.2649 -0.4156 -0.6095
11994SOL     OW36575   7.158   5.575   5.216 -0.1532 -0.5183 -0.2592
11994SOL    HW136576   7.137   5.599   5.126 -1.0884 -0.2640  0.0255
11994SOL    HW236577   7.243   5.532   5.210 -1.1132 -2.3053 -1.5219
11995SOL     OW36578   4.060   0.974   5.378 -0.1441 -0.6980 -0.8001
11995SOL    HW136579   4.134   0.927   5.415 -1.6734 -1.7030  1.0131
11995SOL    HW236580   4.064   1.061   5.418  0.0041 -0.7738 -0.6519
11996SOL     OW36581   4.982   0.013   3.198 -0.4170 -0.6404  0.5691
11996SOL    HW136582   4.921  -0.046   3.241 -1.9137  1.1554  0.9479
11996SOL    HW236583   5.057  -0.042   3.175 -2.5589 -3.0719 -0.7583
11997SOL     OW36584   0.721   2.432   7.128  0.2021 -0.3814  0.0689
11997SOL    HW136585   0.665   2.409   7.202 -2.3178  2.0475 -0.9913
11997SOL    HW236586   0.752   2.521   7.148  1.5491 -0.6659 -0.6414
11998SOL     OW36587   0.812   3.476   1.794 -0.0973  0.1327  0.5888
11998SOL    HW136588   0.862   3.422   1.855 -0.6162 -0.8302  0.1785
11998SOL    HW236589   0.877   3.510   1.733  0.1395 -0.6607  0.3888
11999SOL     OW36590   4.421   2.725   6.117  0.2607 -0.9153 -0.3102
11999SOL    HW136591   4.422   2.668   6.194 -2.1682 -3.6746 -2.2473
11999SOL    HW236592   4.335   2.767   6.119  1.7515  2.2662  0.7077
12000SOL     OW36593   0.462   1.384   1.576 -0.1633 -0.3538  0.5929
12000SOL    HW136594   0.482   1.319   1.509  1.4234 -0.0530  0.7492
12000SOL    HW236595   0.522   1.363   1.648  0.2390  1.1487  0.7143
12001SOL     OW36596   0.571   6.152   2.277 -0.3168 -0.5064 -0.3783
12001SOL    HW136597   0.564   6.111   2.191 -0.8929  0.3940 -0.7627
12001SOL    HW236598   0.573   6.246   2.260 -1.6132 -0.2733  0.6654
12002SOL     OW36599   0.639   3.209   2.035 -0.3312  0.4053  0.6766
12002SOL    HW136600   0.657   3.183   2.125  1.4409 -1.2164 -0.1187
12002SOL    HW236601   0.722   3.198   1.990 -1.6317 -0.4678 -1.5635
12003SOL     OW36602   2.327   1.099   3.391 -0.2887  0.3428  0.1566
12003SOL    HW136603   2.336   1.185   3.433  0.2218  0.3897 -0.0400
12003SOL    HW236604   2.295   1.042   3.460  1.2594  0.2502  0.8290
12004SOL     OW36605   0.128   0.520   2.585 -0.6157 -0.4990  0.3754
12004SOL    HW136606   0.093   0.484   2.667 -1.3008 -0.1092  0.2559
12004SOL    HW236607   0.204   0.571   2.611 -1.6496  0.7855  0.9381
12005SOL     OW36608   5.906   3.616   0.232  0.0883  0.5379 -0.7236
12005SOL    HW136609   5.982   3.583   0.183 -0.3356  1.2887 -1.8860
12005SOL    HW236610   5.837   3.553   0.213  0.0151  0.6494 -0.8262
12006SOL     OW36611   2.514   1.209   6.473  0.0555 -0.3446 -0.4644
12006SOL    HW136612   2.579   1.198   6.403 -0.0347 -1.7585 -0.3420
12006SOL    HW236613   2.431   1.180   6.434 -0.2886  0.3368 -0.2495
12007SOL     OW36614   1.939   2.643   3.173 -0.3166  0.7184 -0.2904
12007SOL    HW136615   1.871   2.578   3.187 -1.2515  1.2000 -2.4449
12007SOL    HW236616   1.894   2.728   3.179  0.1247  1.0473 -1.4323
12008SOL     OW36617   4.316   5.857   3.040  0.0542  0.4796  0.1298
12008SOL    HW136618   4.303   5.937   3.091  0.1482  1.0687 -0.7576
12008SOL    HW236619   4.335   5.888   2.951 -2.9618 -0.5806 -0.9476
12009SOL     OW36620   6.309   3.919   2.883  0.0171  0.1103 -0.2633
12009SOL    HW136621   6.368   3.854   2.920 -0.0445  0.7169  0.9305
12009SOL    HW236622   6.358   3.959   2.811  0.9499  0.4007  0.5258
12010SOL     OW36623   0.192   6.415   5.009  0.1593 -0.6765  0.0864
12010SOL    HW136624   0.123   6.415   4.941 -0.0321 -0.4185  0.2806
12010SOL    HW236625   0.148   6.447   5.088  0.2352 -1.5542  0.4856
12011SOL     OW36626   5.907   4.441   5.478 -0.2862 -0.6354  0.2155
12011SOL    HW136627   5.888   4.431   5.571 -1.2626 -0.8193 -0.0080
12011SOL    HW236628   5.831   4.405   5.433  1.4101 -3.2119 -0.7090
12012SOL     OW36629   2.194   5.294   4.949 -0.1958 -0.2630 -0.0780
12012SOL    HW136630   2.287   5.313   4.963 -0.2665  0.4907 -0.5988
12012SOL    HW236631   2.148   5.368   4.989 -0.6356 -1.4377  1.6204
12013SOL     OW36632   5.956   5.851   5.917 -0.0603  0.9021 -0.3437
12013SOL    HW136633   6.020   5.783   5.897  0.3741  1.3014 -0.3310
12013SOL    HW236634   5.895   5.850   5.844  1.0333  1.7820 -1.2971
12014SOL     OW36635   4.291   5.633   1.534  0.7873 -0.8501 -0.0310
12014SOL    HW136636   4.340   5.599   1.459 -1.9689  0.1468 -2.3848
12014SOL    HW236637   4.246   5.556   1.570  0.8827 -1.0611 -0.3597
12015SOL     OW36638   6.452   1.062   2.290 -0.1486 -0.6747  0.3491
12015SOL    HW136639   6.436   0.990   2.351  1.6295  0.0375  1.6908
12015SOL    HW236640   6.522   1.030   2.233  0.4377 -0.1300  0.7581
12016SOL     OW36641   4.476   5.986   3.432 -0.3591  0.0197 -0.6353
12016SOL    HW136642   4.523   6.066   3.457 -1.5888  0.1388  1.4711
12016SOL    HW236643   4.425   6.011   3.355  1.0318  0.5958 -1.3918
12017SOL     OW36644   0.788   5.387   4.977  0.0552 -0.0810  0.1159
12017SOL    HW136645   0.851   5.315   4.977 -1.1492 -1.1501 -0.1609
12017SOL    HW236646   0.738   5.375   5.058 -0.6717 -0.0187 -0.3225
12018SOL     OW36647   6.060   4.836   4.404  0.3194  0.0504 -0.2913
12018SOL    HW136648   6.033   4.875   4.487 -2.0147 -1.5457 -0.2457
12018SOL    HW236649   6.050   4.907   4.340 -2.3987  0.0333  0.0520
12019SOL     OW36650   1.746   4.216   0.284  0.1900 -0.0435 -0.1964
12019SOL    HW136651   1.715   4.130   0.312  0.6769 -0.1657 -0.0158
12019SOL    HW236652   1.819   4.196   0.225 -0.3021  0.2271 -0.8936
12020SOL     OW36653   1.125   6.523   4.799 -0.1408 -0.3755  0.0441
12020SOL    HW136654   1.108   6.462   4.727  0.2713 -3.2003  2.3110
12020SOL    HW236655   1.220   6.535   4.799  0.1211 -2.3852  1.7221
12021SOL     OW36656   4.100   0.621   5.145 -0.2988 -0.1769 -0.0477
12021SOL    HW136657   4.144   0.541   5.118 -1.1127 -0.9832  0.9391
12021SOL    HW236658   4.014   0.592   5.175 -0.6747  1.0930  0.1413
12022SOL     OW36659   4.981   1.751   1.350 -0.3535  0.3720  0.0820
12022SOL    HW136660   5.006   1.825   1.294 -0.0835  0.2083 -0.0165
12022SOL    HW236661   5.058   1.694   1.350  0.2578  1.1549  1.9085
12023SOL     OW36662   5.900   1.148   1.927  0.1051 -0.8410 -0.0757
12023SOL    HW136663   5.922   1.172   2.017  0.2141  0.5363 -0.4583
12023SOL    HW236664   5.806   1.131   1.929 -0.0760  0.1456  0.1072
12024SOL     OW36665   6.218   0.419   2.595 -0.3727 -0.3329 -0.1254
12024SOL    HW136666   6.302   0.374   2.584 -0.3155  0.2961 -2.5322
12024SOL    HW236667   6.155   0.363   2.551 -0.5223  1.2134 -1.9594
12025SOL     OW36668   3.817   2.625   6.150 -0.2814 -0.3959 -0.2233
12025SOL    HW136669   3.795   2.666   6.234  0.4972  2.1716 -1.2372
12025SOL    HW236670   3.759   2.667   6.087  2.7787  1.5918 -1.8074
12026SOL     OW36671   5.919   5.480   7.077 -0.3336  0.3015 -0.6587
12026SOL    HW136672   5.825   5.464   7.064 -0.7254 -1.2413  3.3247
12026SOL    HW236673   5.922   5.537   7.155  2.0360  0.1034 -0.5888
12027SOL     OW36674   7.075   1.567   6.908 -0.4844 -0.4116 -0.3250
12027SOL    HW136675   6.998   1.621   6.893  0.4206  0.6248 -1.3868
12027SOL    HW236676   7.092   1.527   6.822  1.5364  1.2405 -0.7279
12028SOL     OW36677   2.627   4.189   6.799 -0.6278 -0.1822  0.0483
12028SOL    HW136678   2.654   4.280   6.810 -2.3786  0.2618  0.6706
12028SOL    HW236679   2.606   4.181   6.706  2.4890 -0.7972 -0.6878
12029SOL     OW36680   0.062   4.059   3.159 -0.0911  0.1680 -0.0169
12029SOL    HW136681  -0.025   4.082   3.126 -1.3352  0.1465  3.0677
12029SOL    HW236682   0.104   4.012   3.086 -2.7913 -0.1197 -1.4397
12030SOL     OW36683   4.418   0.949   1.765  0.2168  0.3446 -0.7888
12030SOL    HW136684   4.427   0.908   1.679  0.0865  0.3270 -0.7941
12030SOL    HW236685   4.427   0.877   1.828 -0.8251  0.1783 -0.8236
12031SOL     OW36686   3.267   4.356   4.134 -0.3555  0.1706 -0.3868
12031SOL    HW136687   3.305   4.279   4.175 -0.4352  0.4056  0.1412
12031SOL    HW236688   3.321   4.429   4.165 -0.6024  0.3859 -0.4566
12032SOL     OW36689   3.877   2.624   1.347 -0.1340  0.5582  0.0723
12032SOL    HW136690   3.864   2.531   1.326 -1.4153  0.5534  0.8551
12032SOL    HW236691   3.949   2.651   1.290 -0.7110 -0.5462 -1.2338
12033SOL     OW36692   3.689   5.687   6.188  0.1896  0.0852  0.0281
12033SOL    HW136693   3.647   5.763   6.148  0.6812 -0.4306 -1.5228
12033SOL    HW236694   3.779   5.690   6.156  0.1553 -1.2631 -0.2083
12034SOL     OW36695   3.006   3.982   0.561  0.0700 -0.0728 -0.1704
12034SOL    HW136696   3.039   4.070   0.582  0.7983 -0.4641  0.3638
12034SOL    HW236697   2.938   3.966   0.626 -0.5848  0.3981 -0.7401
12035SOL     OW36698   1.310   4.494   4.056 -0.5061  0.0709  0.0749
12035SOL    HW136699   1.346   4.538   4.133 -1.6461 -0.6673  1.0479
12035SOL    HW236700   1.327   4.401   4.072 -0.3037 -0.0462 -0.8079
12036SOL     OW36701   3.065   3.041   0.908  0.8952  0.7183 -0.1616
12036SOL    HW136702   2.982   3.011   0.872  1.0884  0.9614 -0.8384
12036SOL    HW236703   3.045   3.124   0.951  0.3035 -0.5134  1.9826
12037SOL     OW36704   5.133   1.795   6.662 -0.0821 -0.0526  0.2356
12037SOL    HW136705   5.066   1.802   6.731 -1.2453  0.1323 -0.8952
12037SOL    HW236706   5.090   1.747   6.592  1.1701 -0.4136 -0.2838
12038SOL     OW36707   2.508   6.027   7.144  0.2595  0.4040  0.5089
12038SOL    HW136708   2.491   6.099   7.205  0.7575  2.0438 -1.2232
12038SOL    HW236709   2.446   6.042   7.073  0.6562 -0.6533 -0.0547
12039SOL     OW36710   3.113   4.396   5.623 -0.0485  0.1558 -0.1713
12039SOL    HW136711   3.037   4.352   5.584  0.0078 -1.2682  1.2588
12039SOL    HW236712   3.140   4.460   5.557  0.2173 -2.3449 -2.6057
12040SOL     OW36713   1.368   4.716   1.097  0.1684  0.0093  0.2140
12040SOL    HW136714   1.385   4.623   1.111  0.5039 -0.0067 -0.2694
12040SOL    HW236715   1.375   4.756   1.184  0.9063 -0.2781  0.2880
12041SOL     OW36716   7.195   5.622   2.141  0.3368  0.3747 -0.3481
12041SOL    HW136717   7.183   5.705   2.093 -1.3295  0.5711  0.3820
12041SOL    HW236718   7.267   5.579   2.096  1.8509  2.6442 -0.1765
12042SOL     OW36719   1.354   2.051   4.911  0.1830  0.1415  0.1161
12042SOL    HW136720   1.347   2.132   4.861  1.5000 -0.8837 -1.7694
12042SOL    HW236721   1.398   2.076   4.992 -0.5899  1.5287  0.1249
12043SOL     OW36722   4.655   1.200   6.955 -0.3941 -0.3099 -0.7116
12043SOL    HW136723   4.562   1.202   6.933 -0.0594 -0.7083 -2.2192
12043SOL    HW236724   4.674   1.109   6.977 -0.3765 -0.2085 -0.2922
12044SOL     OW36725   1.355   3.115   0.334 -0.4512  0.0072 -0.6912
12044SOL    HW136726   1.406   3.189   0.365 -0.1054 -0.2858 -0.5475
12044SOL    HW236727   1.272   3.120   0.381 -0.3155  0.1328 -0.4694
12045SOL     OW36728   0.897   5.393   1.879 -0.4098 -0.2897  0.0731
12045SOL    HW136729   0.989   5.375   1.898 -0.7537 -0.0267  2.0176
12045SOL    HW236730   0.852   5.311   1.898 -0.7162 -0.1388 -0.0042
12046SOL     OW36731   5.708   1.475   2.550  0.6059  0.2530 -0.1737
12046SOL    HW136732   5.715   1.384   2.521 -0.1955 -0.3767  1.5266
12046SOL    HW236733   5.660   1.519   2.480  1.3100 -0.5368 -1.1830
12047SOL     OW36734   1.033   4.095   5.716  0.2242 -0.4623  0.0717
12047SOL    HW136735   1.107   4.060   5.666  0.1834  0.4461 -0.6482
12047SOL    HW236736   0.973   4.127   5.649  1.4298  3.3531  0.7371
12048SOL     OW36737   5.920   5.842   6.712 -0.1469 -0.0619  0.1511
12048SOL    HW136738   5.894   5.925   6.673  1.2959 -0.3829 -1.5728
12048SOL    HW236739   5.973   5.866   6.787 -0.7527  0.5750  0.3770
12049SOL     OW36740   6.717   2.434   1.780 -0.1298 -0.5741  0.2097
12049SOL    HW136741   6.798   2.409   1.824  0.9343 -2.1309 -2.5087
12049SOL    HW236742   6.650   2.380   1.822  0.3479  0.0604  1.8463
12050SOL     OW36743   4.923   3.769   0.744  0.5554 -0.2399  0.5411
12050SOL    HW136744   4.917   3.848   0.798  0.8760  0.0474  0.1557
12050SOL    HW236745   4.985   3.792   0.675  1.8476 -1.3452  1.3093
12051SOL     OW36746   0.751   3.507   6.897  0.4608 -0.4123  1.3853
12051SOL    HW136747   0.700   3.588   6.888  1.6044  0.3658  1.8072
12051SOL    HW236748   0.785   3.510   6.987 -0.2912 -1.8505  1.7481
12052SOL     OW36749   4.844   7.008   3.781  0.5928  0.0194  0.3038
12052SOL    HW136750   4.839   7.103   3.770  1.0987 -0.0727 -0.8582
12052SOL    HW236751   4.931   6.993   3.820 -0.6296  0.2344  3.1983
12053SOL     OW36752   3.596   3.165   2.144 -0.0419  0.2046  0.2866
12053SOL    HW136753   3.674   3.113   2.128  0.4293  1.4004 -1.5038
12053SOL    HW236754   3.531   3.102   2.174  0.7553 -1.3094 -1.0630
12054SOL     OW36755   6.233   5.734   6.755 -0.2315  0.0960  0.3893
12054SOL    HW136756   6.246   5.744   6.849 -0.6381 -1.4373  0.6358
12054SOL    HW236757   6.156   5.677   6.748  0.8542 -1.2767 -0.8245
12055SOL     OW36758   1.856   2.626   4.812 -0.1249 -0.5638 -0.2355
12055SOL    HW136759   1.890   2.580   4.889  0.8143  0.1561 -0.2098
12055SOL    HW236760   1.879   2.718   4.827 -2.3174 -0.0194 -0.1110
12056SOL     OW36761   7.170   4.043   2.330  0.4749 -0.4302  0.2071
12056SOL    HW136762   7.166   4.104   2.404  2.4008 -0.2298  0.1528
12056SOL    HW236763   7.160   4.099   2.253  3.3348 -0.0119  0.1044
12057SOL     OW36764   5.896   7.066   3.910  0.2952  0.2319 -0.2818
12057SOL    HW136765   5.984   7.039   3.939 -0.5748 -1.0621  1.2493
12057SOL    HW236766   5.863   6.990   3.862  0.0192  0.7322 -0.8856
12058SOL     OW36767   6.657   4.421   1.903 -0.2540 -0.1649 -0.1070
12058SOL    HW136768   6.628   4.336   1.935 -1.7347 -0.6667 -2.5998
12058SOL    HW236769   6.724   4.400   1.838 -0.9610  0.5190 -1.0798
12059SOL     OW36770   3.019   1.211   5.302 -0.0802 -0.4054  0.0468
12059SOL    HW136771   3.098   1.178   5.260 -0.2007  1.0889 -1.4053
12059SOL    HW236772   2.948   1.157   5.265 -0.3034  1.5122 -2.4902
12060SOL     OW36773   2.551   2.404   5.186  0.2348 -0.0662 -0.0932
12060SOL    HW136774   2.463   2.442   5.184  0.5828  0.9679  2.3968
12060SOL    HW236775   2.537   2.311   5.171 -1.1382  0.2965 -1.1893
12061SOL     OW36776   5.856   5.751   0.680 -0.1349  0.0995  0.3432
12061SOL    HW136777   5.856   5.709   0.766  0.7349  0.3519  0.4780
12061SOL    HW236778   5.902   5.689   0.624  0.6046  0.5923  0.4016
12062SOL     OW36779   5.805   6.235   4.826  0.4988  0.1953 -0.7579
12062SOL    HW136780   5.765   6.176   4.761  0.6969  0.6610 -1.3081
12062SOL    HW236781   5.835   6.310   4.775  1.9968 -0.1072 -0.3495
12063SOL     OW36782   5.195   2.329   6.080  0.0740  0.3424  0.0579
12063SOL    HW136783   5.232   2.350   5.994  1.1163 -0.8316  0.2025
12063SOL    HW236784   5.266   2.349   6.141  0.2137 -1.1702  0.4099
12064SOL     OW36785   4.994   4.270   4.227 -0.2751 -0.2272 -0.2790
12064SOL    HW136786   4.942   4.333   4.176 -0.0333  1.1482  1.1434
12064SOL    HW236787   5.082   4.306   4.226  0.1048 -1.1371 -0.3658
12065SOL     OW36788   6.502   3.994   3.861 -0.0588  0.5117 -0.1935
12065SOL    HW136789   6.526   3.922   3.919 -0.1964  0.1287 -0.6015
12065SOL    HW236790   6.424   3.962   3.815 -0.5542  1.2170  0.1549
12066SOL     OW36791   0.270   5.893   1.685 -0.2419 -0.1760 -0.3519
12066SOL    HW136792   0.326   5.944   1.744  0.7958  0.7363 -2.0790
12066SOL    HW236793   0.229   5.828   1.741 -1.1163  2.1642  1.8221
12067SOL     OW36794   6.372   3.594   1.045  0.6172 -0.0640  0.6060
12067SOL    HW136795   6.373   3.498   1.041  0.3795  0.0193 -1.9947
12067SOL    HW236796   6.464   3.618   1.034  0.7247  0.0184  1.6150
12068SOL     OW36797   0.097   2.222   4.217  0.2512  0.3432 -0.3167
12068SOL    HW136798   0.148   2.280   4.162  0.4328  0.9304  0.4621
12068SOL    HW236799   0.086   2.270   4.300 -1.1179  0.0267 -0.2914
12069SOL     OW36800   6.562   5.470   0.511  0.2791 -0.4268 -0.1549
12069SOL    HW136801   6.499   5.462   0.440 -0.5983 -0.4263  0.6084
12069SOL    HW236802   6.641   5.504   0.470  0.1625 -1.5452 -1.3239
12070SOL     OW36803   1.096   2.731   6.538 -0.0643 -0.6760  0.1454
12070SOL    HW136804   1.018   2.700   6.493  0.2719  1.2523 -1.8982
12070SOL    HW236805   1.167   2.675   6.505 -0.0055 -0.0049 -0.9008
12071SOL     OW36806   6.371   2.531   0.767 -0.2265 -0.0711 -0.3300
12071SOL    HW136807   6.456   2.489   0.777  0.3084  1.0568  0.0506
12071SOL    HW236808   6.311   2.460   0.747  0.6647 -0.9935  0.2073
12072SOL     OW36809   6.891   0.180   6.896 -0.0651  0.1069 -0.1705
12072SOL    HW136810   6.815   0.123   6.907 -1.5533  2.1694  0.3977
12072SOL    HW236811   6.859   0.268   6.918  2.2991  1.1084 -0.6068
12073SOL     OW36812   4.707   4.558   0.345 -0.4432  0.3304  0.1776
12073SOL    HW136813   4.727   4.530   0.434 -0.3239  1.2488  0.4397
12073SOL    HW236814   4.790   4.548   0.298 -0.3440  0.4581  0.3249
12074SOL     OW36815   4.396   6.473   3.856 -0.3619  0.1028  0.2281
12074SOL    HW136816   4.331   6.525   3.903 -0.0821 -0.0756  0.8087
12074SOL    HW236817   4.349   6.393   3.830 -0.2766 -0.1850  0.9576
12075SOL     OW36818   5.092   3.934   1.185 -0.2601 -0.5928  0.6376
12075SOL    HW136819   5.173   3.925   1.135 -0.6593  0.8523 -0.2792
12075SOL    HW236820   5.096   3.863   1.249  2.7477  0.7519  2.0461
12076SOL     OW36821   1.395   4.309   2.290  0.0052 -0.2510 -0.5800
12076SOL    HW136822   1.384   4.222   2.329  0.3725 -0.6533 -1.3547
12076SOL    HW236823   1.419   4.365   2.364  2.7571 -1.4152 -0.5242
12077SOL     OW36824   5.956   4.243   3.714  0.2107 -0.2775 -0.8517
12077SOL    HW136825   5.960   4.166   3.771 -1.8901  0.2637  0.0797
12077SOL    HW236826   5.894   4.219   3.646  0.8740 -0.0358 -1.5423
12078SOL     OW36827   6.889   6.337   1.829 -0.3772  0.1020  0.0817
12078SOL    HW136828   6.954   6.355   1.762  0.5096 -1.1733  0.5897
12078SOL    HW236829   6.858   6.424   1.856 -1.4119  0.6126 -2.5800
12079SOL     OW36830   4.713   2.404   2.133 -0.1732 -0.0772 -0.2228
12079SOL    HW136831   4.715   2.318   2.092 -0.0463  0.2333 -0.8833
12079SOL    HW236832   4.709   2.386   2.227  0.6676 -0.8045 -0.3143
12080SOL     OW36833   6.043   0.464   0.856 -0.4919 -0.6561 -0.2761
12080SOL    HW136834   6.079   0.511   0.931 -1.2015  0.4028 -0.5752
12080SOL    HW236835   6.090   0.381   0.854 -0.6553 -0.8025  1.4848
12081SOL     OW36836   3.284   4.502   6.949  0.5469 -0.4278  0.4115
12081SOL    HW136837   3.284   4.542   6.862  0.6499 -0.6297  0.3195
12081SOL    HW236838   3.214   4.437   6.945  1.6568 -1.5968 -0.0500
12082SOL     OW36839   0.997   0.314   5.099  0.0319 -0.1321  0.6472
12082SOL    HW136840   0.952   0.264   5.168  1.7032  0.1777  1.9984
12082SOL    HW236841   0.928   0.336   5.037 -1.5719 -0.2349  2.3344
12083SOL     OW36842   0.967   1.782   1.953  0.0288 -0.4468 -0.0830
12083SOL    HW136843   0.966   1.875   1.977  1.9934 -0.4259  0.0657
12083SOL    HW236844   0.944   1.780   1.861 -0.3612  0.1596 -0.0015
12084SOL     OW36845   5.950   4.353   5.989  0.3115 -0.0047 -0.3417
12084SOL    HW136846   6.042   4.351   6.012  0.2807 -0.2976 -0.2353
12084SOL    HW236847   5.908   4.293   6.050  0.1867 -0.5644 -0.9650
12085SOL     OW36848   5.450   2.549   1.555 -0.0711  0.1755  0.6113
12085SOL    HW136849   5.490   2.635   1.553 -1.2956  0.7468  0.1131
12085SOL    HW236850   5.514   2.493   1.598  0.4342  1.4843  1.5700
12086SOL     OW36851   5.330   0.524   2.070  0.0532  0.0868  0.1322
12086SOL    HW136852   5.345   0.617   2.087 -0.7599  0.5251 -1.3511
12086SOL    HW236853   5.415   0.482   2.085  1.4870  1.6798 -2.9641
12087SOL     OW36854   1.033   4.586   6.957 -0.7178  0.0349 -0.4798
12087SOL    HW136855   1.101   4.653   6.948  0.7170 -1.2459  0.5512
12087SOL    HW236856   1.036   4.537   6.875  0.0529 -0.4239 -0.1792
12088SOL     OW36857   3.739   6.221   4.049  0.2765  0.0237  0.1902
12088SOL    HW136858   3.700   6.193   4.132  0.0834  1.2976  0.5501
12088SOL    HW236859   3.819   6.266   4.075 -0.0903  0.9512 -0.2630
12089SOL     OW36860   1.886   3.280   4.407  0.3716 -0.2493  0.4247
12089SOL    HW136861   1.911   3.202   4.457 -0.1343 -1.3503 -0.9957
12089SOL    HW236862   1.828   3.329   4.465 -1.9942 -2.6242  0.1771
12090SOL     OW36863   5.486   1.644   2.753  0.0548  0.0649 -0.3241
12090SOL    HW136864   5.464   1.573   2.693 -0.1117  1.1519 -1.5925
12090SOL    HW236865   5.560   1.688   2.712 -0.5383  1.2749 -0.1208
12091SOL     OW36866   3.440   0.991   1.233 -0.3993  0.0388  0.0777
12091SOL    HW136867   3.530   0.965   1.215 -0.3131 -0.0883  0.6690
12091SOL    HW236868   3.441   1.014   1.326 -0.6858  1.2359 -0.2064
12092SOL     OW36869   4.334   5.923   2.749  0.2432 -0.1491 -0.0437
12092SOL    HW136870   4.389   5.861   2.701  0.5357 -0.1784  0.3171
12092SOL    HW236871   4.354   6.008   2.710  2.1178  0.1331  1.4372
12093SOL     OW36872   2.141   6.747   5.880 -0.0933  0.1656  0.7170
12093SOL    HW136873   2.067   6.725   5.823 -0.8541  2.8045  0.6193
12093SOL    HW236874   2.109   6.732   5.969 -0.9356  1.7814  0.6970
12094SOL     OW36875   4.989   4.756   2.665  0.3472 -0.1579 -0.2041
12094SOL    HW136876   4.925   4.686   2.649 -1.5262  1.7900 -1.5750
12094SOL    HW236877   5.056   4.715   2.719 -1.2842 -2.7086 -0.0061
12095SOL     OW36878   5.192   5.884   3.822 -0.5862  0.9182  0.2164
12095SOL    HW136879   5.263   5.821   3.830  1.7715  3.6744  1.7672
12095SOL    HW236880   5.149   5.861   3.740  2.0513 -0.8212 -0.7401
12096SOL     OW36881   0.346   5.024   5.277  0.3897  0.5843 -0.1635
12096SOL    HW136882   0.391   5.109   5.279  0.1616  0.6984  0.1313
12096SOL    HW236883   0.413   4.960   5.299  0.3827  0.7663  0.4032
12097SOL     OW36884   5.014   4.682   3.865  0.7124  0.0518  0.1998
12097SOL    HW136885   4.984   4.745   3.800  1.0574  0.8667  0.8275
12097SOL    HW236886   5.054   4.612   3.813 -2.6230 -1.2907 -0.7022
12098SOL     OW36887   0.101   0.025   0.015  0.3631 -0.4862  0.2930
12098SOL    HW136888   0.057   0.015   0.100  0.6635  0.7802  0.5978
12098SOL    HW236889   0.089  -0.061  -0.027 -2.3745 -0.2138  0.3737
12099SOL     OW36890   0.850   3.353   0.699 -0.1082  0.3292  0.0873
12099SOL    HW136891   0.837   3.420   0.632  0.2690  0.1716 -0.1411
12099SOL    HW236892   0.778   3.291   0.685  0.9714 -0.6360 -1.2933
12100SOL     OW36893   6.736   0.996   4.179 -0.7976 -0.3412  0.4768
12100SOL    HW136894   6.714   1.002   4.086  0.8587  1.4119  0.1546
12100SOL    HW236895   6.746   0.902   4.195  2.1586 -0.5179 -1.9394
12101SOL     OW36896   4.829   4.634   0.003 -0.6621  0.6622 -0.0043
12101SOL    HW136897   4.759   4.689   0.036 -0.5268 -0.0463  1.4798
12101SOL    HW236898   4.872   4.599   0.081  0.4150 -0.0864 -0.9053
12102SOL     OW36899   0.194   4.970   6.600 -0.3765  0.8197 -0.1865
12102SOL    HW136900   0.111   5.003   6.631 -0.0566  0.6560  0.8463
12102SOL    HW236901   0.174   4.881   6.568 -0.5453  0.6926  0.2761
12103SOL     OW36902   2.167   6.644   6.845 -0.8702 -0.5797 -0.3879
12103SOL    HW136903   2.257   6.675   6.836 -1.6307  1.1548 -2.6684
12103SOL    HW236904   2.142   6.618   6.757 -2.1839 -2.3010  0.4694
12104SOL     OW36905   5.901   5.754   3.853  0.0119 -0.2333 -0.0815
12104SOL    HW136906   5.841   5.738   3.781  0.2864  1.4755 -0.7141
12104SOL    HW236907   5.853   5.726   3.931 -1.0877 -0.1463 -0.7211
12105SOL     OW36908   1.786   1.091   5.407 -0.5248 -0.6529 -0.5353
12105SOL    HW136909   1.712   1.043   5.371 -2.0340  1.8848 -0.9492
12105SOL    HW236910   1.861   1.061   5.355 -1.8212 -0.8235 -2.3693
12106SOL     OW36911   0.927   1.173   7.089  0.1703 -0.1425 -0.4449
12106SOL    HW136912   1.009   1.135   7.120 -1.3152 -1.9632  1.3332
12106SOL    HW236913   0.865   1.100   7.085 -2.3716  1.7715  1.7355
12107SOL     OW36914   2.606   3.506   1.859 -0.1928  0.7530 -0.1270
12107SOL    HW136915   2.698   3.494   1.881 -0.5106 -2.8717 -0.4621
12107SOL    HW236916   2.562   3.518   1.943  0.1520 -1.1691  0.3609
12108SOL     OW36917   5.324   2.316   6.478 -0.1668  0.3546  0.6778
12108SOL    HW136918   5.272   2.394   6.494 -0.7093  0.1273  0.0236
12108SOL    HW236919   5.260   2.247   6.460  0.3458  0.0527 -0.0307
12109SOL     OW36920   3.484   4.572   6.636 -0.1966  0.4616 -0.0814
12109SOL    HW136921   3.493   4.606   6.724 -2.4786  1.2387 -0.1186
12109SOL    HW236922   3.505   4.646   6.579  0.5115  0.1773 -0.1972
12110SOL     OW36923   0.375   5.279   6.283  0.1002  0.5795 -0.4383
12110SOL    HW136924   0.411   5.207   6.334 -2.2942 -0.5678 -0.3296
12110SOL    HW236925   0.374   5.353   6.344 -0.1498 -0.0570  0.3339
12111SOL     OW36926   6.631   6.803   6.088 -0.1968  0.2746 -0.0078
12111SOL    HW136927   6.580   6.846   6.156  1.5062  0.8649  0.9226
12111SOL    HW236928   6.567   6.780   6.021 -1.7810  0.3759  1.4357
12112SOL     OW36929   2.759   3.429   1.522  0.3301 -0.7928 -0.3508
12112SOL    HW136930   2.805   3.424   1.606  1.8934 -0.0368 -1.1463
12112SOL    HW236931   2.668   3.408   1.544  0.6266 -0.2024  1.6100
12113SOL     OW36932   4.952   4.531   6.267 -1.0323  0.7175  0.6417
12113SOL    HW136933   4.906   4.528   6.184  0.4746  1.8026 -0.2395
12113SOL    HW236934   5.007   4.609   6.263  1.1493 -0.7097  1.5215
12114SOL     OW36935   4.747   1.649   0.436 -0.0034 -0.4213 -0.3452
12114SOL    HW136936   4.750   1.648   0.531  0.4931 -1.9000 -0.3592
12114SOL    HW236937   4.786   1.733   0.411  1.8892 -0.9709  0.6928
12115SOL     OW36938   2.491   6.961   0.664  0.3283 -0.0429 -0.2562
12115SOL    HW136939   2.536   7.043   0.644 -0.5948  0.3185 -0.8420
12115SOL    HW236940   2.403   6.987   0.689 -0.0968 -0.8900 -0.8571
12116SOL     OW36941   5.335   3.868   6.147 -0.0566  0.3671  0.2848
12116SOL    HW136942   5.307   3.921   6.073 -1.0490  0.9999  1.0947
12116SOL    HW236943   5.383   3.928   6.204 -2.1319  0.6938  1.7379
12117SOL     OW36944   3.733   0.128   6.990  1.0052 -0.0671  0.6993
12117SOL    HW136945   3.767   0.213   7.019 -2.7907  1.4743  0.8597
12117SOL    HW236946   3.689   0.092   7.066  1.3374 -1.5657  0.2077
12118SOL     OW36947   0.683   2.960   1.087  0.1150  0.3963 -0.0132
12118SOL    HW136948   0.602   2.911   1.099  0.3848 -0.6508 -2.1359
12118SOL    HW236949   0.753   2.898   1.108  0.3918  1.1056  1.2043
12119SOL     OW36950   4.163   5.665   5.306  0.0917 -0.2738  0.0082
12119SOL    HW136951   4.086   5.720   5.318 -0.2032 -0.3932 -1.2490
12119SOL    HW236952   4.182   5.631   5.393 -0.9620  0.1802  0.4251
12120SOL     OW36953   6.182   6.382   2.737  0.0477 -0.0403 -0.2138
12120SOL    HW136954   6.116   6.443   2.704  0.6678  0.4594 -0.5332
12120SOL    HW236955   6.265   6.427   2.724  0.2616  0.5410  2.8418
12121SOL     OW36956   6.027   3.294   4.026 -0.1197  0.2007 -0.1607
12121SOL    HW136957   5.982   3.330   4.102  0.2070  1.9607 -0.7732
12121SOL    HW236958   6.007   3.200   4.028 -1.7012  0.5485  0.9959
12122SOL     OW36959   5.761   4.115   3.247 -0.3978 -0.2177 -0.5267
12122SOL    HW136960   5.800   4.114   3.159 -1.5617 -1.2968 -1.0474
12122SOL    HW236961   5.674   4.152   3.234 -0.6765 -0.6350  0.1343
12123SOL     OW36962   6.064   1.501   6.384 -0.2681 -0.7044 -0.4962
12123SOL    HW136963   6.140   1.449   6.357  0.3225 -1.6071  2.6750
12123SOL    HW236964   5.990   1.441   6.373 -0.0379 -1.0601 -0.1419
12124SOL     OW36965   2.702   5.949   2.376 -0.4515  0.2996 -0.1071
12124SOL    HW136966   2.793   5.979   2.384 -0.5137  0.2873  0.7363
12124SOL    HW236967   2.692   5.886   2.447 -1.2304  0.5878  0.0398
12125SOL     OW36968   2.422   2.966   2.418  0.6457  0.2552  0.0543
12125SOL    HW136969   2.432   2.871   2.425  0.6483  0.2780  0.3755
12125SOL    HW236970   2.461   3.000   2.499  1.5441  0.5940 -0.5213
12126SOL     OW36971   0.769   0.322   3.654 -0.3288  0.1718  0.1377
12126SOL    HW136972   0.734   0.365   3.732 -0.6253 -0.4670  0.3663
12126SOL    HW236973   0.782   0.393   3.592 -1.9138  0.4612  0.0985
12127SOL     OW36974   2.240   1.633   4.787  0.5217  0.3114 -0.1732
12127SOL    HW136975   2.331   1.611   4.807  0.6849 -0.0723 -1.2917
12127SOL    HW236976   2.201   1.550   4.759  0.4961  0.9508 -2.1261
12128SOL     OW36977   5.833   1.873   1.353  0.4895 -0.3126 -0.2829
12128SOL    HW136978   5.775   1.832   1.289 -1.6112  1.2271  0.5882
12128SOL    HW236979   5.825   1.819   1.431  1.0126 -0.6629 -0.4660
12129SOL     OW36980   2.784   3.519   1.096 -0.1315 -0.3078 -0.5375
12129SOL    HW136981   2.754   3.446   1.150  0.3498 -1.5397 -1.8811
12129SOL    HW236982   2.737   3.508   1.013  0.8714  0.1749 -1.1851
12130SOL     OW36983   3.396   4.378   6.432  0.2533 -0.1201 -0.4672
12130SOL    HW136984   3.384   4.472   6.421 -0.1344 -0.1728 -0.4977
12130SOL    HW236985   3.490   4.364   6.420  0.5158  0.4373  0.8236
12131SOL     OW36986   5.822   5.335   1.006 -0.3462  0.2985 -0.0478
12131SOL    HW136987   5.843   5.330   1.099  1.6259  3.6574 -0.2718
12131SOL    HW236988   5.906   5.328   0.961 -1.3302 -1.8696 -1.6506
12132SOL     OW36989   0.807   1.126   1.458  0.6916  0.5279  0.1794
12132SOL    HW136990   0.768   1.159   1.539  0.2419  1.5250 -0.4300
12132SOL    HW236991   0.897   1.105   1.482 -0.2645 -2.0702  1.6750
12133SOL     OW36992   0.568   4.696   3.240  0.1456  0.1909  0.0200
12133SOL    HW136993   0.515   4.671   3.316 -0.0057  3.1558  0.9509
12133SOL    HW236994   0.516   4.669   3.164 -0.4413 -1.3317  0.9280
12134SOL     OW36995   0.415   3.211   2.474 -0.2372  0.9480 -0.6548
12134SOL    HW136996   0.400   3.255   2.557  2.6803  0.8786 -0.0521
12134SOL    HW236997   0.411   3.118   2.495  0.1417  0.9323 -0.6423
12135SOL     OW36998   0.943   2.851   5.467 -0.1520 -0.6586  0.3835
12135SOL    HW136999   1.038   2.854   5.470 -0.1871 -0.8712  1.9700
12135SOL    HW237000   0.923   2.811   5.382  1.1045  1.9561 -1.2219
12136SOL     OW37001   2.822   7.191   1.412  0.0617 -0.2342 -0.5178
12136SOL    HW137002   2.733   7.227   1.407 -0.7965 -2.2374 -0.2427
12136SOL    HW237003   2.813   7.102   1.379  1.9838 -0.4651 -0.4550
12137SOL     OW37004   5.784   1.144   7.021 -0.1086 -0.5621  0.2820
12137SOL    HW137005   5.748   1.126   7.108 -0.9501  0.3528  0.1319
12137SOL    HW237006   5.764   1.236   7.006  1.2512 -0.3578 -0.3086
12138SOL     OW37007   5.687   1.633   6.936  0.0339 -0.3904 -0.1397
12138SOL    HW137008   5.673   1.642   7.031 -0.3022  0.4449 -0.2640
12138SOL    HW237009   5.605   1.663   6.897 -0.1103 -1.4762 -0.6804
12139SOL     OW37010   4.537   3.528   1.491  0.6605 -0.3441  0.1574
12139SOL    HW137011   4.468   3.512   1.555  1.1203  0.9967  0.9946
12139SOL    HW237012   4.551   3.622   1.493 -1.1699  0.1131 -3.8529
12140SOL     OW37013   2.290   4.066   4.161 -0.0383 -0.6779  0.3115
12140SOL    HW137014   2.366   4.064   4.103  0.9695  2.6455  1.3956
12140SOL    HW237015   2.279   3.975   4.188  1.3323 -1.8100 -2.6404
12141SOL     OW37016   5.627   4.527   2.645  0.0740  0.3631  0.0744
12141SOL    HW137017   5.575   4.544   2.724 -2.2461 -0.1339 -1.3043
12141SOL    HW237018   5.655   4.436   2.654 -0.1191  0.3322  0.3797
12142SOL     OW37019   1.134   6.005   0.317 -0.4925 -0.1466  0.2757
12142SOL    HW137020   1.097   5.917   0.325 -1.9277  0.4713  0.5580
12142SOL    HW237021   1.078   6.048   0.252  0.5884  0.3631 -0.3270
12143SOL     OW37022   4.558   6.959   3.538 -0.7198  0.2240  0.5021
12143SOL    HW137023   4.483   6.901   3.524 -1.1486  1.2088 -1.4069
12143SOL    HW237024   4.634   6.906   3.515 -1.0680  0.2123 -0.6536
12144SOL     OW37025   3.104   2.792   6.435 -0.5167  0.5515 -0.3258
12144SOL    HW137026   3.105   2.743   6.517  1.1868  0.1335 -0.5812
12144SOL    HW237027   3.095   2.884   6.462  0.0326  0.4144  0.3291
12145SOL     OW37028   0.346   3.504   3.086 -0.0762 -0.1462 -0.1566
12145SOL    HW137029   0.308   3.585   3.120 -2.3550 -0.8437 -0.9060
12145SOL    HW237030   0.324   3.505   2.992  2.8186 -0.0385 -0.8634
12146SOL     OW37031   6.271   6.203   2.926 -0.1032  0.1109  0.0773
12146SOL    HW137032   6.349   6.190   2.871  0.9237  2.1525  0.9966
12146SOL    HW237033   6.217   6.264   2.876 -0.6671 -0.5348 -0.1076
12147SOL     OW37034   6.684   5.084   0.551 -0.0638 -0.2889  0.9902
12147SOL    HW137035   6.737   5.138   0.492 -0.2484 -0.4399  0.6832
12147SOL    HW237036   6.655   5.011   0.496  0.4156 -0.8500  1.4753
12148SOL     OW37037   1.503   5.959   6.228 -0.3051 -0.2640  0.0610
12148SOL    HW137038   1.589   5.984   6.195  0.4713 -1.9978  0.7124
12148SOL    HW237039   1.508   5.972   6.322 -0.1813 -1.9739  0.3001
12149SOL     OW37040   2.310   3.122   0.430 -0.3109 -0.7642 -0.0787
12149SOL    HW137041   2.232   3.112   0.484  0.0613 -1.9370  0.2476
12149SOL    HW237042   2.277   3.153   0.346 -1.3277 -2.9347 -0.5103
12150SOL     OW37043   2.200   1.710   1.900  0.5823  0.5993 -0.0350
12150SOL    HW137044   2.172   1.620   1.913 -1.3334  0.9520 -1.3783
12150SOL    HW237045   2.119   1.757   1.881  1.4976  2.6896  1.1109
12151SOL     OW37046   5.913   3.160   2.490  0.2330 -0.0524  0.3021
12151SOL    HW137047   5.857   3.229   2.455  0.7408  0.9044  1.3274
12151SOL    HW237048   5.864   3.079   2.476 -0.7896  0.6174 -0.0519
12152SOL     OW37049   5.816   6.531   5.049  0.4766 -0.0696  0.1280
12152SOL    HW137050   5.828   6.554   5.141  0.6568 -0.0527  0.1005
12152SOL    HW237051   5.722   6.512   5.041  0.7989 -1.9572  0.7411
12153SOL     OW37052   5.943   1.082   3.115 -0.2738  0.1736 -0.4143
12153SOL    HW137053   5.992   1.003   3.138 -0.8951  0.8526  3.5679
12153SOL    HW237054   5.853   1.053   3.106 -0.5224  0.4099  1.1742
12154SOL     OW37055   0.380   6.976   0.336  0.7176  0.9079 -0.2142
12154SOL    HW137056   0.357   6.883   0.330 -0.4451  1.2269 -0.9032
12154SOL    HW237057   0.475   6.978   0.321  0.6256 -0.0883 -1.0126
12155SOL     OW37058   6.802   6.450   0.568 -0.7660  0.3696 -0.1163
12155SOL    HW137059   6.758   6.372   0.602  1.1700 -0.4662  0.5213
12155SOL    HW237060   6.815   6.431   0.475  0.5213 -0.4816  0.2236
12156SOL     OW37061   5.002   1.277   5.441  0.7855  0.1015  0.3547
12156SOL    HW137062   4.936   1.273   5.510  1.5566 -1.4330  1.0222
12156SOL    HW237063   4.959   1.323   5.369 -0.3809  0.7670  1.4541
12157SOL     OW37064   6.537   7.048   0.076  0.0100  0.3013  0.3319
12157SOL    HW137065   6.490   7.105   0.137 -1.0313  1.1726 -1.2538
12157SOL    HW237066   6.617   7.097   0.054  0.2227  0.1354  0.7355
12158SOL     OW37067   5.435   1.608   0.416  0.1918 -0.3601  0.3014
12158SOL    HW137068   5.384   1.675   0.461  0.0210  0.8863 -1.6974
12158SOL    HW237069   5.525   1.623   0.445 -0.1329 -0.5843  1.4370
12159SOL     OW37070   6.368   1.750   4.181  0.2698 -0.2407 -0.5187
12159SOL    HW137071   6.421   1.731   4.103 -0.3322 -0.4328 -0.8875
12159SOL    HW237072   6.323   1.667   4.199 -1.6270  0.5143 -1.5471
12160SOL     OW37073   5.425   2.659   5.564  0.5942 -0.1055 -0.2449
12160SOL    HW137074   5.457   2.748   5.581 -1.9827  0.3470  2.8648
12160SOL    HW237075   5.504   2.605   5.563  1.9700  1.8092  0.8844
12161SOL     OW37076   1.328   3.322   3.617  0.2646 -0.2860  0.2139
12161SOL    HW137077   1.248   3.277   3.643 -0.8635  1.2804 -0.4590
12161SOL    HW237078   1.378   3.330   3.698 -1.0122  0.1945  0.9657
12162SOL     OW37079   1.576   1.247   1.695 -0.4647  0.0561  0.4194
12162SOL    HW137080   1.559   1.324   1.749  0.7006 -1.1056  2.4787
12162SOL    HW237081   1.604   1.180   1.756 -0.3814 -1.7020 -1.4854
12163SOL     OW37082   7.256   1.475   2.460 -0.1762  0.0143  0.0232
12163SOL    HW137083   7.211   1.412   2.515  1.4572 -2.0423 -0.9296
12163SOL    HW237084   7.335   1.498   2.509 -1.2695  2.1697  0.8399
12164SOL     OW37085   5.572   0.926   3.889 -0.6645 -1.0511  0.5542
12164SOL    HW137086   5.605   0.936   3.978  0.5761  0.0388 -0.0074
12164SOL    HW237087   5.646   0.892   3.839 -0.9695 -0.4425 -0.3312
12165SOL     OW37088   5.161   5.607   5.292 -0.2209  0.3936  0.1588
12165SOL    HW137089   5.192   5.575   5.377 -1.9048  0.5222  0.8469
12165SOL    HW237090   5.175   5.702   5.296 -0.3128  0.4008  0.2896
12166SOL     OW37091   4.000   6.935   5.040 -0.7272 -0.2232  1.0294
12166SOL    HW137092   4.092   6.949   5.063 -0.3647  0.5919 -0.8456
12166SOL    HW237093   4.002   6.863   4.976 -1.1273  1.3681 -0.8355
12167SOL     OW37094   4.890   7.169   1.868  0.1606 -0.1394 -0.3286
12167SOL    HW137095   4.979   7.135   1.865 -0.4414 -1.6760 -1.7115
12167SOL    HW237096   4.864   7.177   1.777 -0.9557  0.7730  0.0518
12168SOL     OW37097   5.607   6.735   5.133 -0.3093  0.0468 -0.4914
12168SOL    HW137098   5.676   6.708   5.194 -0.4685 -0.2551 -0.4428
12168SOL    HW237099   5.527   6.700   5.171 -0.8342  2.4179  0.7221
12169SOL     OW37100   6.464   0.386   6.442  0.4610  0.2657  0.3704
12169SOL    HW137101   6.526   0.450   6.406 -0.4533  0.9983  0.0740
12169SOL    HW237102   6.381   0.433   6.445 -0.1178 -0.7689  0.6027
12170SOL     OW37103   4.106   1.983   4.969  0.0503  0.0511  0.0442
12170SOL    HW137104   4.175   2.012   5.029 -0.3266 -0.7323  0.8854
12170SOL    HW237105   4.048   2.058   4.962 -1.1259 -0.5553  2.5096
12171SOL     OW37106   3.549   3.435   5.051  0.1630  0.1868 -0.4017
12171SOL    HW137107   3.570   3.431   5.144  0.3157 -0.0074 -0.4463
12171SOL    HW237108   3.453   3.439   5.048  0.0256 -2.3816 -0.3300
12172SOL     OW37109   4.136   3.208   0.876 -0.1499 -0.6747 -0.5111
12172SOL    HW137110   4.097   3.290   0.846 -0.0399 -0.9111 -1.2984
12172SOL    HW237111   4.183   3.232   0.956 -0.3009 -0.0147 -0.6181
12173SOL     OW37112   6.803   6.855   0.299  0.0138 -0.9507  0.5858
12173SOL    HW137113   6.886   6.901   0.287 -0.6559  0.2629  0.5140
12173SOL    HW237114   6.822   6.787   0.364  0.7441  0.1721  1.5582
12174SOL     OW37115   0.714   1.162   0.384 -0.0584 -0.5818  0.3198
12174SOL    HW137116   0.635   1.214   0.395  0.6886  0.4507  0.9486
12174SOL    HW237117   0.693   1.100   0.315 -0.9012  0.6757 -0.5689
12175SOL     OW37118   1.636   4.159   4.402  0.3736  0.3879  0.5754
12175SOL    HW137119   1.623   4.126   4.314  0.0028  2.3027 -0.1087
12175SOL    HW237120   1.559   4.130   4.451  0.2769 -0.1313  0.1094
12176SOL     OW37121   2.308   3.888   6.370 -0.0140  0.1435  0.4480
12176SOL    HW137122   2.368   3.880   6.296 -0.9619 -0.7938 -0.2330
12176SOL    HW237123   2.260   3.970   6.354 -1.0679 -0.6689 -0.6213
12177SOL     OW37124   5.338   2.519   3.654 -0.1413  0.0703 -0.1079
12177SOL    HW137125   5.284   2.598   3.659 -1.2037 -0.7021  0.7004
12177SOL    HW237126   5.426   2.552   3.638 -0.3864  1.4949  1.3499
12178SOL     OW37127   2.008   4.194   3.257 -0.5157  0.1182 -0.5088
12178SOL    HW137128   2.054   4.170   3.177 -2.2280  1.6305 -1.9896
12178SOL    HW237129   2.054   4.271   3.289  0.6352 -0.9268  0.4086
12179SOL     OW37130   6.828   1.524   2.669 -0.6832 -0.0159  0.4847
12179SOL    HW137131   6.913   1.494   2.636  0.0865 -0.3633  2.7097
12179SOL    HW237132   6.791   1.447   2.712 -2.1473  0.1363 -0.4745
12180SOL     OW37133   6.243   0.345   3.015  0.5520 -0.4327 -0.2275
12180SOL    HW137134   6.256   0.405   2.941 -1.1632 -0.6024 -0.6869
12180SOL    HW237135   6.275   0.395   3.091 -0.1030  0.7792 -0.7198
12181SOL     OW37136   0.447   0.963   0.807  0.5269  0.2307 -0.6971
12181SOL    HW137137   0.472   0.901   0.738  0.5418 -0.8604  0.2777
12181SOL    HW237138   0.509   0.947   0.878  0.8594  1.7351 -0.6290
12182SOL     OW37139   2.569   6.659   4.363 -0.2620 -0.0655  0.4747
12182SOL    HW137140   2.512   6.615   4.300  1.7417  0.0218 -1.4767
12182SOL    HW237141   2.590   6.592   4.428  1.9190 -1.7483 -1.8857
12183SOL     OW37142   2.893   3.389   0.618  0.2834  0.4715  1.0144
12183SOL    HW137143   2.894   3.467   0.562 -0.5424  0.1080  0.4913
12183SOL    HW237144   2.825   3.333   0.580  0.4904 -0.2609  1.7211
12184SOL     OW37145   5.761   4.115   3.540  0.3075  0.0044 -0.0999
12184SOL    HW137146   5.773   4.084   3.450 -2.4939  0.3764 -0.6493
12184SOL    HW237147   5.762   4.035   3.593  0.5014 -0.3448 -0.6247
12185SOL     OW37148   2.540   2.124   5.206 -0.2327 -0.1305 -0.1935
12185SOL    HW137149   2.550   2.099   5.298 -0.5949  2.2037  0.5034
12185SOL    HW237150   2.625   2.106   5.166 -0.5231 -2.6442  0.1838
12186SOL     OW37151   3.269   6.125   4.840  0.0020 -0.2690 -0.1994
12186SOL    HW137152   3.290   6.036   4.868  0.9458  0.7393  2.4936
12186SOL    HW237153   3.317   6.137   4.758  2.2235 -1.2582  0.9131
12187SOL     OW37154   5.622   3.127   4.545  0.2046 -0.5357  0.3394
12187SOL    HW137155   5.653   3.174   4.623 -1.3152 -0.9986  1.2616
12187SOL    HW237156   5.534   3.162   4.530  1.4461  1.4294 -2.7645
12188SOL     OW37157   3.010   5.167   3.780 -0.2507  0.2873  0.1189
12188SOL    HW137158   3.081   5.169   3.843  0.3911 -0.0869 -0.5759
12188SOL    HW237159   3.010   5.077   3.747 -0.6275  0.4534 -0.3482
12189SOL     OW37160   1.929   3.378   7.223 -0.0914  0.0625  0.1989
12189SOL    HW137161   2.014   3.418   7.205  0.3103 -0.7531  0.2849
12189SOL    HW237162   1.945   3.284   7.220 -0.3995 -0.1101  2.9672
12190SOL     OW37163   0.980   5.114   6.647 -0.0014  0.0693 -0.1733
12190SOL    HW137164   0.916   5.079   6.585 -0.5680 -0.6364  0.7980
12190SOL    HW237165   1.035   5.172   6.594 -1.3091  0.5234 -1.0674
12191SOL     OW37166   1.300   3.028   0.776 -0.4075 -0.0017 -0.0827
12191SOL    HW137167   1.341   2.963   0.833  1.1664  1.6562  0.7438
12191SOL    HW237168   1.361   3.038   0.703  0.1766  1.7348  0.6319
12192SOL     OW37169   0.200   1.858   4.272  0.3067 -0.3256 -0.0971
12192SOL    HW137170   0.272   1.910   4.309  0.3094  0.6693 -1.4501
12192SOL    HW237171   0.127   1.919   4.265 -0.2408 -0.9664 -0.0695
12193SOL     OW37172   2.409   2.389   1.747  0.7599  0.1545  0.3232
12193SOL    HW137173   2.352   2.406   1.672  0.3750 -1.3451  0.2508
12193SOL    HW237174   2.376   2.446   1.816  0.1182  0.3982 -0.1752
12194SOL     OW37175   1.436   0.781   4.995 -0.0799  0.1206 -0.0016
12194SOL    HW137176   1.394   0.760   5.078  0.0962  0.8189  0.2658
12194SOL    HW237177   1.375   0.749   4.928 -1.7340  2.4121  0.3667
12195SOL     OW37178   6.351   2.927   6.783 -0.0639  0.0247  0.3088
12195SOL    HW137179   6.439   2.962   6.788 -0.4437  0.9338  0.6864
12195SOL    HW237180   6.340   2.901   6.692  0.4216  0.3661  0.1542
12196SOL     OW37181   4.028   0.674   0.982  0.1394  0.4807 -0.2920
12196SOL    HW137182   4.077   0.661   1.063 -0.0387  2.6527  0.2075
12196SOL    HW237183   3.948   0.623   0.993  1.2802 -1.3405 -0.2153
12197SOL     OW37184   3.344   5.950   6.625  0.2407 -0.5694 -0.5320
12197SOL    HW137185   3.318   5.895   6.552  0.3739 -0.9404 -0.3024
12197SOL    HW237186   3.346   5.891   6.700 -0.0364 -0.1632 -0.2019
12198SOL     OW37187   0.411   5.584   6.692  0.3790 -0.3693 -0.4819
12198SOL    HW137188   0.332   5.630   6.665  0.4586 -0.4015 -0.7733
12198SOL    HW237189   0.454   5.644   6.753 -0.3633 -0.7754  0.4358
12199SOL     OW37190   3.682   5.741   5.004 -0.0911 -0.2793  0.0122
12199SOL    HW137191   3.645   5.802   5.067  1.3931  0.5172  0.1395
12199SOL    HW237192   3.734   5.681   5.057  0.2120 -0.3209 -0.3316
12200SOL     OW37193   5.768   4.161   1.014  0.3753  0.1085 -0.5873
12200SOL    HW137194   5.767   4.147   1.109  0.0870 -2.7324 -0.9823
12200SOL    HW237195   5.684   4.127   0.983  0.8945  0.0730 -1.9927
12201SOL     OW37196   1.244   4.458   2.776  0.1860 -0.4486 -0.3438
12201SOL    HW137197   1.191   4.490   2.849 -0.0558 -2.1909  0.2444
12201SOL    HW237198   1.261   4.537   2.723  1.8800  1.1760  2.5042
12202SOL     OW37199   2.566   1.615   4.565 -0.1121 -0.1346  0.0646
12202SOL    HW137200   2.496   1.565   4.523  1.0840 -1.6908 -0.1309
12202SOL    HW237201   2.632   1.625   4.496  0.3502  0.3437  0.5758
12203SOL     OW37202   1.221   5.486   5.554 -0.6718 -0.1824  0.3227
12203SOL    HW137203   1.215   5.448   5.467 -1.5510 -0.8834  0.6726
12203SOL    HW237204   1.177   5.571   5.547 -1.0033 -0.3669  0.1492
12204SOL     OW37205   4.841   2.610   0.532  0.2105 -0.0039 -0.3218
12204SOL    HW137206   4.755   2.580   0.564 -0.3029 -1.2221 -2.7301
12204SOL    HW237207   4.862   2.686   0.587 -1.9135 -0.3419  1.0141
12205SOL     OW37208   5.508   2.740   0.502 -0.4994 -0.2958  0.0651
12205SOL    HW137209   5.539   2.698   0.421 -0.3242  0.5903 -0.3353
12205SOL    HW237210   5.418   2.710   0.511 -1.5194  1.9152 -2.0843
12206SOL     OW37211   6.802   5.508   3.063 -0.7234  0.5260 -0.1428
12206SOL    HW137212   6.796   5.594   3.020  1.4408  0.5271 -0.5417
12206SOL    HW237213   6.727   5.504   3.121 -1.1794  2.4556 -0.5716
12207SOL     OW37214   3.496   2.650   6.446  0.4459 -0.1945  0.3548
12207SOL    HW137215   3.421   2.604   6.484  1.8239 -1.6585  1.3748
12207SOL    HW237216   3.499   2.621   6.355 -0.7590  0.5931  0.0449
12208SOL     OW37217   1.808   7.048   4.547 -0.3021  0.2681 -0.4816
12208SOL    HW137218   1.779   6.971   4.497 -0.0615  0.3323 -0.7218
12208SOL    HW237219   1.887   7.019   4.593 -0.3236  0.3143 -0.4162
12209SOL     OW37220   7.188   2.293   2.257  0.1927 -0.3684  0.4568
12209SOL    HW137221   7.158   2.213   2.300  0.1047 -3.5579 -5.1177
12209SOL    HW237222   7.264   2.266   2.206  2.0883  3.8751  0.8004
12210SOL     OW37223   7.233   2.433   7.088 -0.2073 -0.0531 -0.3378
12210SOL    HW137224   7.146   2.467   7.106 -0.2237  0.4127 -1.2577
12210SOL    HW237225   7.261   2.478   7.008 -0.4717 -2.5502 -1.9297
12211SOL     OW37226   0.503   5.535   4.748  0.2637 -0.1084  0.0808
12211SOL    HW137227   0.509   5.447   4.785  0.7499 -0.2471 -0.3254
12211SOL    HW237228   0.502   5.592   4.825 -1.3085 -0.5232  0.3853
12212SOL     OW37229   1.644   3.097   1.764 -0.1124 -0.1120  0.3284
12212SOL    HW137230   1.720   3.155   1.766  0.2423 -0.5013 -1.0191
12212SOL    HW237231   1.654   3.040   1.840  0.4549  0.4480  0.6697
12213SOL     OW37232   6.649   1.751   7.252 -0.5290  0.4783  0.2287
12213SOL    HW137233   6.730   1.702   7.264  0.4021  2.1734  0.9875
12213SOL    HW237234   6.621   1.731   7.163  0.0611 -1.0791  0.3817
12214SOL     OW37235   4.979   2.362   1.194 -0.0273  0.4679 -0.1728
12214SOL    HW137236   4.909   2.424   1.215  0.3319  1.3325 -1.4593
12214SOL    HW237237   4.998   2.378   1.102  1.4648 -0.1630  0.0147
12215SOL     OW37238   1.343   2.021   1.556  0.1307 -0.1771 -0.0105
12215SOL    HW137239   1.338   2.086   1.626  0.8136 -0.9785  0.7982
12215SOL    HW237240   1.357   2.072   1.476  1.3853  0.6376  0.7115
12216SOL     OW37241   5.197   1.991   6.175 -0.2509  0.1558  0.3194
12216SOL    HW137242   5.102   1.988   6.184 -0.1666  2.0598  1.8328
12216SOL    HW237243   5.231   1.971   6.262  0.8076 -3.0385 -0.7492
12217SOL     OW37244   2.345   6.385   0.245  0.2875 -0.5025  0.1096
12217SOL    HW137245   2.367   6.478   0.254  1.3365 -0.8142  0.9862
12217SOL    HW237246   2.256   6.378   0.279  0.3984  0.1081  0.5456
12218SOL     OW37247   5.082   2.996   1.868 -0.2521 -0.9393 -0.4727
12218SOL    HW137248   4.986   3.002   1.869 -0.2585 -1.0597  0.2048
12218SOL    HW237249   5.108   3.043   1.789 -0.8514 -0.6532 -0.5068
12219SOL     OW37250   5.969   4.734   7.045  0.6412 -0.3462  0.3090
12219SOL    HW137251   5.876   4.712   7.042  0.9846 -2.3354  2.7237
12219SOL    HW237252   6.009   4.661   7.091  3.1679  1.2409  0.6995
12220SOL     OW37253   6.021   7.017   2.730  0.6597 -0.1372 -0.2743
12220SOL    HW137254   6.077   6.980   2.662  0.3801  0.8277 -1.0339
12220SOL    HW237255   5.959   6.947   2.751  0.2176 -0.1514 -1.6088
12221SOL     OW37256   4.336   1.434   1.897 -0.1436  0.2915 -0.1951
12221SOL    HW137257   4.245   1.403   1.905 -0.6276  0.8980 -2.7896
12221SOL    HW237258   4.382   1.362   1.853  0.1783  0.7314 -0.5851
12222SOL     OW37259   1.558   2.223   2.119 -0.2308 -0.6814 -0.5261
12222SOL    HW137260   1.592   2.185   2.200 -1.9585 -0.2896  0.3967
12222SOL    HW237261   1.505   2.153   2.081  1.6321 -1.3364 -2.0321
12223SOL     OW37262   4.087   7.217   6.389  0.6570 -0.3527  0.5120
12223SOL    HW137263   4.051   7.143   6.339  1.5281  1.1959 -2.5144
12223SOL    HW237264   4.010   7.269   6.413  0.0126 -2.2101  2.8095
12224SOL     OW37265   3.435   2.981   2.262 -0.4103  0.0987  0.1735
12224SOL    HW137266   3.407   2.981   2.354 -0.6939 -2.6005  0.1335
12224SOL    HW237267   3.394   2.903   2.225  0.6553  0.5241 -1.9627
12225SOL     OW37268   2.762   1.673   1.367 -0.5404  0.3709 -0.3645
12225SOL    HW137269   2.683   1.632   1.403 -1.1694  1.4198 -0.5123
12225SOL    HW237270   2.743   1.683   1.273 -0.1572  0.4687 -0.4341
12226SOL     OW37271   2.799   2.715   4.469 -0.3353 -0.0764 -0.4495
12226SOL    HW137272   2.885   2.751   4.447 -0.2498 -0.4614 -0.7540
12226SOL    HW237273   2.773   2.762   4.548 -0.1391  0.5121 -0.7271
12227SOL     OW37274   5.640   5.816   1.783  0.3017 -0.2322  0.2812
12227SOL    HW137275   5.657   5.743   1.843  0.5714  0.9951  1.7243
12227SOL    HW237276   5.703   5.883   1.809 -1.1667  1.2019  0.1678
12228SOL     OW37277   0.549   4.510   2.800  0.0098 -0.1596 -0.2064
12228SOL    HW137278   0.531   4.431   2.750  0.8862 -0.2406 -0.3989
12228SOL    HW237279   0.533   4.582   2.738 -2.0277 -0.0985  0.3213
12229SOL     OW37280   5.221   1.244   3.054  0.2675  0.4881  0.3352
12229SOL    HW137281   5.242   1.334   3.032  0.9548  0.0518 -0.8062
12229SOL    HW237282   5.174   1.250   3.137  0.1247  1.9098  0.1570
12230SOL     OW37283   4.148   6.272   0.107  0.9373  0.0530  0.6412
12230SOL    HW137284   4.182   6.182   0.111  1.3029  0.1170 -0.5562
12230SOL    HW237285   4.053   6.262   0.113  0.9620 -0.4455  0.3076
12231SOL     OW37286   1.824   2.063   1.483 -0.4174  0.2732  0.3431
12231SOL    HW137287   1.755   2.059   1.549 -1.6802  1.8617 -0.8209
12231SOL    HW237288   1.852   1.973   1.471 -1.4995 -0.2530  1.6560
12232SOL     OW37289   2.761   3.651   0.807 -0.4089  0.5054  0.1250
12232SOL    HW137290   2.678   3.654   0.760 -0.5022 -2.1304  0.0527
12232SOL    HW237291   2.816   3.592   0.755  1.3470  1.8465  0.4290
12233SOL     OW37292   5.785   2.097   1.649  0.2411 -0.2320 -0.3239
12233SOL    HW137293   5.858   2.158   1.637 -0.4215  0.6571  0.0975
12233SOL    HW237294   5.781   2.081   1.743  1.0817 -1.7854 -0.5304
12234SOL     OW37295   3.201   2.309   4.147  0.0194  0.4288 -0.4355
12234SOL    HW137296   3.175   2.267   4.065  1.2926 -0.8598 -0.1991
12234SOL    HW237297   3.127   2.367   4.169 -0.8524 -0.1251 -1.8465
12235SOL     OW37298   2.367   2.030   5.520  0.5137 -0.1883 -0.1548
12235SOL    HW137299   2.385   2.123   5.503  0.1520 -0.1496 -0.3396
12235SOL    HW237300   2.297   2.008   5.458 -0.7482 -0.0780  1.2164
12236SOL     OW37301   2.489   5.772   5.399  0.1610 -0.3163  0.3399
12236SOL    HW137302   2.477   5.695   5.455  0.6094  0.0900  1.0206
12236SOL    HW237303   2.477   5.740   5.310  0.9660 -1.3101  0.5776
12237SOL     OW37304   3.891   0.668   0.504  0.2305  0.6101 -0.5049
12237SOL    HW137305   3.832   0.735   0.538 -0.8466 -0.8546  0.5521
12237SOL    HW237306   3.941   0.638   0.580  1.4860  0.9498 -1.1632
12238SOL     OW37307   4.643   5.095   2.236  0.5545  0.4360 -0.3107
12238SOL    HW137308   4.583   5.039   2.286  1.7068  0.8372  1.5872
12238SOL    HW237309   4.714   5.036   2.210  0.1951  0.3365 -1.0950
12239SOL     OW37310   7.148   3.725   1.846  0.9653 -0.0485  0.4191
12239SOL    HW137311   7.165   3.632   1.863 -0.2300 -0.5242 -0.9033
12239SOL    HW237312   7.057   3.738   1.871  0.0817 -0.0497 -2.5724
12240SOL     OW37313   4.681   4.685   5.453  0.1975  0.3795  0.1690
12240SOL    HW137314   4.644   4.665   5.367 -0.3885 -0.5400  0.6220
12240SOL    HW237315   4.651   4.613   5.509  1.5389  0.3525  0.8686
12241SOL     OW37316   3.285   1.885   0.751 -0.0251  0.2024 -0.0495
12241SOL    HW137317   3.325   1.945   0.688  1.1239  0.9152  1.3322
12241SOL    HW237318   3.207   1.931   0.782  0.7235  0.9011  0.8289
12242SOL     OW37319   2.427   4.879   0.065  0.3700 -0.2604 -0.4431
12242SOL    HW137320   2.412   4.792   0.101 -1.6014 -0.0536 -0.7176
12242SOL    HW237321   2.416   4.868  -0.030 -0.4550  0.3977 -0.4242
12243SOL     OW37322   2.687   1.594   4.227  0.3887 -0.4715 -0.2496
12243SOL    HW137323   2.634   1.552   4.159  0.5368 -1.2541  0.1173
12243SOL    HW237324   2.777   1.569   4.206  0.7960  2.0508 -1.7287
12244SOL     OW37325   4.439   2.615   0.121 -0.0375 -0.7123  0.3175
12244SOL    HW137326   4.379   2.640   0.191 -0.4806 -0.0872 -0.2837
12244SOL    HW237327   4.494   2.692   0.107 -1.5693  0.0470 -1.7133
12245SOL     OW37328   0.558   5.598   4.998 -0.0510  0.2388  0.2416
12245SOL    HW137329   0.525   5.667   5.055 -0.5459  1.5541 -1.5861
12245SOL    HW237330   0.596   5.533   5.058 -0.8186  1.4232  2.0560
12246SOL     OW37331   2.726   0.566   5.687  0.2349 -0.2512 -0.5427
12246SOL    HW137332   2.751   0.559   5.779 -0.5611 -1.3715 -0.3915
12246SOL    HW237333   2.642   0.612   5.689  1.3683  1.8581 -0.8993
12247SOL     OW37334   6.037   4.364   4.805 -0.0827 -0.4394 -0.3583
12247SOL    HW137335   5.954   4.404   4.779  0.3906 -0.6881 -2.3086
12247SOL    HW237336   6.095   4.438   4.820  0.2195 -0.3316 -2.0130
12248SOL     OW37337   5.858   6.260   0.030  1.0399 -0.1709 -0.2987
12248SOL    HW137338   5.859   6.315   0.108  1.3612  1.2418 -1.2828
12248SOL    HW237339   5.800   6.305  -0.031 -1.3551 -2.6512  0.0688
12249SOL     OW37340   2.414   3.993   6.098  0.0963  0.0807  0.1311
12249SOL    HW137341   2.324   4.011   6.124  0.1682  1.0975 -0.3187
12249SOL    HW237342   2.467   4.050   6.154  0.4710 -0.5202  0.4033
12250SOL     OW37343   1.478   0.596   1.296  0.0431  0.5614 -0.7146
12250SOL    HW137344   1.387   0.576   1.274  0.6949 -1.8560 -1.4510
12250SOL    HW237345   1.474   0.641   1.381 -1.7432 -0.9366  0.0237
12251SOL     OW37346   1.753   5.383   0.124  0.1112  0.5105  0.1989
12251SOL    HW137347   1.836   5.352   0.088 -0.8365 -0.3597 -1.2484
12251SOL    HW237348   1.740   5.468   0.083 -0.4493 -0.0128 -0.7020
12252SOL     OW37349   0.389   1.838   6.309  0.0058  0.3364 -0.3088
12252SOL    HW137350   0.331   1.781   6.259  0.5176 -0.2618 -0.2346
12252SOL    HW237351   0.453   1.778   6.348  0.1724  0.9003  0.2859
12253SOL     OW37352   5.875   5.668   5.568  0.5467  0.0805  0.0182
12253SOL    HW137353   5.815   5.726   5.521  0.2056  0.6920  1.2060
12253SOL    HW237354   5.960   5.684   5.528 -0.2962 -1.9092 -2.7296
12254SOL     OW37355   5.182   1.486   2.768  0.0542 -0.3330  0.1900
12254SOL    HW137356   5.212   1.510   2.855  0.8230  0.0271 -0.1711
12254SOL    HW237357   5.258   1.497   2.712 -0.2802 -1.1207 -0.4344
12255SOL     OW37358   1.173   1.869   1.057  0.3155 -0.0277 -0.2003
12255SOL    HW137359   1.187   1.778   1.031 -0.9538 -0.1777 -0.3942
12255SOL    HW237360   1.082   1.887   1.034 -0.1116  0.5946  1.9040
12256SOL     OW37361   1.542   5.836   5.198  0.1454  0.0928  0.5573
12256SOL    HW137362   1.629   5.809   5.229  1.0526 -0.6941 -2.4669
12256SOL    HW237363   1.482   5.774   5.240  1.3492 -1.1960  0.4331
12257SOL     OW37364   5.020   6.964   6.588 -0.1306  0.3594  0.1492
12257SOL    HW137365   5.091   6.909   6.554 -2.6064 -2.2950 -1.0480
12257SOL    HW237366   5.007   7.031   6.521  0.6034  0.2779 -0.0766
12258SOL     OW37367   0.654   5.462   6.628 -0.3281  0.1323 -0.3557
12258SOL    HW137368   0.683   5.372   6.608 -1.7502  0.0253 -2.0207
12258SOL    HW237369   0.562   5.452   6.653 -0.5827  1.1776 -0.8929
12259SOL     OW37370   0.479   5.264   2.931 -0.1399  0.0655 -0.4051
12259SOL    HW137371   0.394   5.266   2.885  0.7409  2.8481 -2.0456
12259SOL    HW237372   0.480   5.179   2.975 -4.4071  0.5225  0.8755
12260SOL     OW37373   2.765   5.287   4.115  0.1283 -0.0959 -0.2607
12260SOL    HW137374   2.835   5.327   4.167  1.3309 -1.7200 -0.6089
12260SOL    HW237375   2.708   5.246   4.180  0.4376 -0.2593 -0.0915
12261SOL     OW37376   0.925   0.131   0.973  0.0142  0.4977  0.6698
12261SOL    HW137377   0.868   0.114   0.898  0.0300 -1.4243  1.0695
12261SOL    HW237378   0.880   0.091   1.047  0.9468  0.6653  1.3393
12262SOL     OW37379   0.649   2.673   4.058 -0.1515  0.4367 -0.8640
12262SOL    HW137380   0.625   2.593   4.104 -1.4500  1.2293 -0.1243
12262SOL    HW237381   0.740   2.688   4.081 -0.3475 -0.0184  0.2192
12263SOL     OW37382   7.190   0.083   2.678  0.1338 -0.0139 -0.2529
12263SOL    HW137383   7.211   0.095   2.586 -0.5676  0.2350 -0.3824
12263SOL    HW237384   7.265   0.121   2.725  0.4750 -0.1125 -0.7126
12264SOL     OW37385   3.856   3.711   4.803 -0.1860  0.2154 -0.5285
12264SOL    HW137386   3.808   3.779   4.755 -3.2538 -1.4724  0.0146
12264SOL    HW237387   3.806   3.699   4.884  0.6735 -2.1932 -0.3091
12265SOL     OW37388   0.925   0.621   5.080  0.5503  0.2482  0.3413
12265SOL    HW137389   0.942   0.527   5.088  0.6596  0.2518  0.1375
12265SOL    HW237390   0.830   0.629   5.087  0.6071  0.2134  1.3118
12266SOL     OW37391   6.791   3.892   2.059  0.0261 -0.2658 -0.2950
12266SOL    HW137392   6.796   3.981   2.025 -1.5239 -0.1176 -0.1654
12266SOL    HW237393   6.810   3.901   2.153 -3.6920  0.5029  0.5047
12267SOL     OW37394   1.840   2.296   2.105  0.1788 -0.1383 -0.2188
12267SOL    HW137395   1.771   2.232   2.086 -0.9439  1.0496 -0.2429
12267SOL    HW237396   1.903   2.286   2.035 -1.4430  0.7669 -1.8475
12268SOL     OW37397   6.548   1.497   6.904  0.0804  0.1462 -0.0799
12268SOL    HW137398   6.621   1.478   6.846  0.2882 -1.0910  0.5828
12268SOL    HW237399   6.534   1.416   6.953 -1.3401  0.5622  0.2274
12269SOL     OW37400   3.230   3.300   6.421  0.2547  0.1137  0.1863
12269SOL    HW137401   3.151   3.323   6.470  0.9180  1.8171  0.4944
12269SOL    HW237402   3.302   3.338   6.473  1.3262 -1.8481  0.1852
12270SOL     OW37403   6.269   4.950   2.098  0.1935  0.7133  0.2938
12270SOL    HW137404   6.197   4.895   2.129  0.1663  1.0739  0.8848
12270SOL    HW237405   6.236   5.040   2.107  0.6024  0.8649  0.2869
12271SOL     OW37406   3.504   0.871   7.253 -0.3718  0.3697  0.1455
12271SOL    HW137407   3.461   0.921   7.184 -0.7583  1.5679  1.2306
12271SOL    HW237408   3.466   0.904   7.334  0.1689 -0.9259  0.9515
12272SOL     OW37409   6.473   0.588   5.939 -0.0110  0.1154  0.5802
12272SOL    HW137410   6.495   0.520   6.003 -0.1882 -0.7068 -0.2083
12272SOL    HW237411   6.380   0.574   5.920  0.3568 -0.5533 -0.8644
12273SOL     OW37412   4.017   5.612   4.079  0.1891 -0.0204  0.0078
12273SOL    HW137413   3.996   5.565   4.159 -2.6662  1.4398  0.1726
12273SOL    HW237414   4.081   5.556   4.034  0.8494 -1.4575  2.6674
12274SOL     OW37415   1.946   4.643   4.821  0.0322  0.0927  0.0457
12274SOL    HW137416   1.990   4.726   4.806 -1.3552  0.3048 -3.3324
12274SOL    HW237417   2.017   4.581   4.841  1.1349  1.8753  1.7865
12275SOL     OW37418   0.322   6.260   3.143  0.1604  0.4629  0.4612
12275SOL    HW137419   0.291   6.341   3.102 -1.2862 -0.5422 -0.4977
12275SOL    HW237420   0.327   6.197   3.071  0.3039 -0.5693  1.3615
12276SOL     OW37421   0.660   5.324   6.172 -0.3820  0.4651 -0.2759
12276SOL    HW137422   0.599   5.279   6.230  0.8524 -2.6848 -1.3088
12276SOL    HW237423   0.605   5.383   6.120 -2.0506  0.2299  1.1897
12277SOL     OW37424   1.847   3.697   1.036 -0.3761  0.4965  0.1597
12277SOL    HW137425   1.927   3.674   0.990 -0.4625  0.1342  0.1833
12277SOL    HW237426   1.777   3.670   0.978 -0.4883  2.5785 -0.7047
12278SOL     OW37427   2.245   2.846   2.764 -0.5612 -0.3658 -0.0574
12278SOL    HW137428   2.224   2.766   2.813  2.2505 -0.0332  1.8383
12278SOL    HW237429   2.295   2.816   2.689 -0.8736 -0.5140 -0.2063
12279SOL     OW37430   5.468   1.825   5.868  0.4643 -0.2043 -0.0045
12279SOL    HW137431   5.482   1.734   5.892  2.3752 -0.1331 -0.8045
12279SOL    HW237432   5.378   1.843   5.896  0.7874 -1.6942  2.0980
12280SOL     OW37433   2.630   1.048   3.349  0.0859  0.4914  0.8742
12280SOL    HW137434   2.648   1.134   3.386  0.4556  0.6498  0.3271
12280SOL    HW237435   2.536   1.047   3.334  0.1582  1.0071  0.3656
12281SOL     OW37436   5.988   2.812   5.349  0.5377  0.2628 -0.0128
12281SOL    HW137437   6.011   2.731   5.395 -3.0158 -1.6867 -1.5151
12281SOL    HW237438   6.053   2.819   5.280  1.1182 -1.1092  0.3714
12282SOL     OW37439   2.837   2.236   2.370  0.0482  0.1194 -0.0016
12282SOL    HW137440   2.905   2.238   2.438  1.2608 -2.3537 -1.0569
12282SOL    HW237441   2.764   2.191   2.412  0.2060  0.0395  0.1912
12283SOL     OW37442   0.573   5.084   4.473  0.1120 -0.7192 -0.0124
12283SOL    HW137443   0.485   5.054   4.449  0.0274 -1.0396  0.6783
12283SOL    HW237444   0.588   5.161   4.418 -0.1948 -1.2612 -0.8607
12284SOL     OW37445   2.528   0.521   6.460 -0.3756 -0.6094  0.4428
12284SOL    HW137446   2.617   0.525   6.423 -0.8335  0.3874 -0.5945
12284SOL    HW237447   2.508   0.613   6.481 -1.8142 -0.5997 -0.9342
12285SOL     OW37448   7.115   5.219   4.689  0.1717  0.2815  0.1487
12285SOL    HW137449   7.113   5.313   4.670  0.8610  0.2292 -0.1602
12285SOL    HW237450   7.158   5.179   4.614  1.6592 -0.0686  1.1639
12286SOL     OW37451   6.187   3.437   6.879  0.1930 -0.0664  0.5376
12286SOL    HW137452   6.280   3.453   6.889  0.4038 -0.8865 -0.0315
12286SOL    HW237453   6.182   3.355   6.829 -0.8248 -0.0958  0.6710
12287SOL     OW37454   3.452   4.535   4.233 -0.0379 -0.4099 -0.2327
12287SOL    HW137455   3.539   4.493   4.235  0.8083  1.3618  1.2470
12287SOL    HW237456   3.468   4.624   4.263 -2.6133 -0.4754  1.4044
12288SOL     OW37457   6.896   3.789   6.207  0.1268 -0.0122  0.1726
12288SOL    HW137458   6.880   3.818   6.117 -0.0313  2.0650  0.8506
12288SOL    HW237459   6.812   3.799   6.251 -0.1408 -2.2862  0.2484
12289SOL     OW37460   0.486   6.315   4.126 -0.2228 -0.0017 -0.1508
12289SOL    HW137461   0.559   6.258   4.100 -1.4506 -1.7113  0.0327
12289SOL    HW237462   0.501   6.396   4.078  0.3812 -1.2645 -2.1921
12290SOL     OW37463   5.132   7.223   2.431  0.0457 -0.4859  0.1058
12290SOL    HW137464   5.055   7.276   2.409 -1.6705 -2.1215  1.9071
12290SOL    HW237465   5.110   7.135   2.400  0.8717 -1.1253  1.2589
12291SOL     OW37466   5.922   2.396   2.551  0.6845  0.3733  0.0712
12291SOL    HW137467   5.876   2.441   2.622 -1.0944 -1.2122 -0.0581
12291SOL    HW237468   6.010   2.435   2.552  1.0618 -0.3493  3.8379
12292SOL     OW37469   1.755   3.464   5.943  0.1868 -0.6036 -0.5233
12292SOL    HW137470   1.721   3.543   5.900  2.8064  0.8369 -0.0661
12292SOL    HW237471   1.816   3.427   5.880  0.5684 -1.0649  0.1133
12293SOL     OW37472   1.200   1.657   4.371  0.0386  0.5171 -0.0051
12293SOL    HW137473   1.150   1.702   4.440  2.3904  2.3869  0.5464
12293SOL    HW237474   1.287   1.696   4.375  1.6761 -2.8450 -0.7622
12294SOL     OW37475   1.345   3.825   6.424 -0.1432 -0.4743 -0.3380
12294SOL    HW137476   1.436   3.817   6.452 -0.8534 -3.7718  1.1793
12294SOL    HW237477   1.311   3.899   6.474  1.8695  1.3327 -1.5279
12295SOL     OW37478   1.797   0.223   5.446 -0.2323 -0.0934 -0.4750
12295SOL    HW137479   1.718   0.171   5.434  1.0456 -2.0967 -0.5571
12295SOL    HW237480   1.800   0.241   5.540  0.6871 -2.5112 -0.0030
12296SOL     OW37481   2.998   2.008   4.457  0.2825 -0.1797 -0.3420
12296SOL    HW137482   3.015   1.919   4.427 -1.6659 -0.4877 -0.5763
12296SOL    HW237483   3.085   2.046   4.469  1.1397 -2.1461 -0.1328
12297SOL     OW37484   6.468   1.488   2.559  0.0018  0.2175 -0.1918
12297SOL    HW137485   6.413   1.425   2.511 -0.6027 -0.4817  1.3974
12297SOL    HW237486   6.524   1.433   2.615 -0.2353  1.0730  0.8940
12298SOL     OW37487   2.197   6.346   1.980 -0.3005 -0.4470  0.6073
12298SOL    HW137488   2.253   6.291   1.925 -0.2515 -1.6126  1.8108
12298SOL    HW237489   2.202   6.433   1.940  2.7918 -0.4069  0.9867
12299SOL     OW37490   3.192   3.152   3.766 -0.2469  0.1100  0.4360
12299SOL    HW137491   3.216   3.245   3.759 -1.0530  0.2249 -1.0678
12299SOL    HW237492   3.274   3.105   3.754 -0.5572  0.5032 -4.1811
12300SOL     OW37493   5.998   2.306   0.887 -0.2498 -0.1584 -0.4072
12300SOL    HW137494   5.966   2.391   0.858  0.5650  0.0147 -0.8113
12300SOL    HW237495   5.928   2.245   0.864 -0.3679  0.2391 -1.1398
12301SOL     OW37496   5.963   1.594   0.311  0.2366  0.4422 -0.6348
12301SOL    HW137497   5.874   1.566   0.293 -0.1336  0.9302  0.3826
12301SOL    HW237498   5.953   1.669   0.370  1.3199  0.4292 -0.4230
12302SOL     OW37499   6.551   5.956   1.808  0.1581  0.7937 -0.2971
12302SOL    HW137500   6.595   6.040   1.821  1.4535 -0.2363  2.2270
12302SOL    HW237501   6.496   5.944   1.886  0.4473 -0.9784 -0.3345
12303SOL     OW37502   6.153   7.044   4.720  0.9067 -0.2600  0.5215
12303SOL    HW137503   6.190   7.010   4.638  2.2600  0.5835  0.7676
12303SOL    HW237504   6.161   7.139   4.711 -0.4062 -0.1044  0.9653
12304SOL     OW37505   3.779   5.907   2.369  0.5967  0.1326 -0.0176
12304SOL    HW137506   3.704   5.966   2.372 -0.7554 -1.5993  1.5120
12304SOL    HW237507   3.775   5.859   2.452  2.2166 -1.4029 -0.7953
12305SOL     OW37508   6.990   1.896   1.788 -0.6673 -0.1182  0.1596
12305SOL    HW137509   6.990   1.894   1.692  1.5402 -1.0755  0.1452
12305SOL    HW237510   7.034   1.816   1.814 -0.1514  0.7091  1.9619
12306SOL     OW37511   1.841   2.566   6.406  0.6615 -0.2869 -0.4240
12306SOL    HW137512   1.871   2.518   6.483  0.0928  1.3195  0.8344
12306SOL    HW237513   1.746   2.552   6.405  0.6290 -0.0492 -0.6592
12307SOL     OW37514   6.882   0.844   2.844 -0.1364 -0.0087 -0.2797
12307SOL    HW137515   6.820   0.775   2.820  2.6861 -2.2544 -1.3544
12307SOL    HW237516   6.893   0.895   2.764 -0.3808  0.2099 -0.1733
12308SOL     OW37517   5.021   5.853   1.012  0.2232  0.0528  0.0397
12308SOL    HW137518   5.085   5.882   1.076 -1.0510  0.3470  1.2133
12308SOL    HW237519   5.015   5.758   1.026  0.9842 -0.1013 -0.6298
12309SOL     OW37520   3.121   5.963   0.545  0.1520  0.0096  0.2336
12309SOL    HW137521   3.138   5.961   0.639  1.7580  0.6395 -0.0303
12309SOL    HW237522   3.030   5.994   0.538  0.6800  2.0033  1.5203
12310SOL     OW37523   2.701   4.864   6.551  0.7091 -0.1727 -0.3829
12310SOL    HW137524   2.609   4.870   6.576  0.3342 -1.8397 -1.3351
12310SOL    HW237525   2.747   4.914   6.619 -0.8652  0.5864  0.1586
12311SOL     OW37526   3.965   1.305   2.533  0.3439 -0.6158  0.2124
12311SOL    HW137527   4.017   1.348   2.602  0.3496 -0.2753 -0.0031
12311SOL    HW237528   3.919   1.235   2.579  2.7090 -2.3851 -0.0047
12312SOL     OW37529   6.201   0.991   0.776 -0.1868 -0.1985 -0.4058
12312SOL    HW137530   6.255   1.020   0.850 -1.1374  0.3507  0.0711
12312SOL    HW237531   6.173   0.902   0.800  0.3363 -0.4092 -0.5656
12313SOL     OW37532   1.265   0.875   5.664  0.6355  0.4071 -0.1258
12313SOL    HW137533   1.350   0.883   5.709  0.0533 -1.4435  1.3753
12313SOL    HW237534   1.201   0.904   5.728 -0.1009 -1.0437 -0.1767
12314SOL     OW37535   5.818   4.355   2.868  0.0547  0.0881  0.7246
12314SOL    HW137536   5.872   4.286   2.906  0.0540  0.3250  1.1690
12314SOL    HW237537   5.865   4.436   2.887  0.3524  0.1656 -0.3189
12315SOL     OW37538   1.013   3.493   2.325 -0.2829 -0.6762 -0.3835
12315SOL    HW137539   1.056   3.463   2.245  4.6109 -0.4318  1.9762
12315SOL    HW237540   1.068   3.564   2.357 -1.5867 -1.3373  3.6888
12316SOL     OW37541   1.601   2.965   4.973  0.7956 -0.1430  0.7322
12316SOL    HW137542   1.583   2.910   5.049  1.6812 -1.0312  0.3147
12316SOL    HW237543   1.697   2.975   4.973  0.8676 -0.7391 -0.6699
12317SOL     OW37544   1.421   1.164   6.750  0.1984 -0.6679  0.2731
12317SOL    HW137545   1.334   1.205   6.753  1.1398  1.4272 -0.1364
12317SOL    HW237546   1.407   1.077   6.786 -1.8030  0.1706  1.6616
12318SOL     OW37547   0.770   0.224   0.121 -0.3371  0.1737  0.0189
12318SOL    HW137548   0.811   0.196   0.202  0.1808  0.8930  0.0095
12318SOL    HW237549   0.802   0.162   0.055  0.4884  0.5382  0.0719
12319SOL     OW37550   5.834   4.339   7.021 -0.0821  0.3521 -0.1540
12319SOL    HW137551   5.865   4.416   7.067 -1.0318  2.2294 -2.5152
12319SOL    HW237552   5.741   4.356   7.006 -0.2641 -1.1544 -0.8786
12320SOL     OW37553   1.210   2.072   6.331  0.3070 -0.2191 -0.4768
12320SOL    HW137554   1.299   2.057   6.299  0.6205 -2.3142  1.2185
12320SOL    HW237555   1.171   1.984   6.334 -0.6833  0.2757  1.9514
12321SOL     OW37556   2.167   2.293   2.848  0.4323  0.1801  0.6169
12321SOL    HW137557   2.073   2.309   2.854  0.4504  1.2331 -1.3684
12321SOL    HW237558   2.177   2.234   2.774  1.4228  1.0466  0.0320
12322SOL     OW37559   1.577   0.170   0.139  0.4015 -0.2892 -0.1239
12322SOL    HW137560   1.620   0.156   0.055 -0.7450 -0.0262 -0.7599
12322SOL    HW237561   1.610   0.254   0.169  1.2122 -0.6254 -0.0576
12323SOL     OW37562   2.519   6.537   2.607 -0.2987 -0.0632  0.1674
12323SOL    HW137563   2.427   6.556   2.591 -0.2447 -0.3520 -0.4947
12323SOL    HW237564   2.534   6.452   2.567  0.4202  0.2943 -0.3349
12324SOL     OW37565   4.715   6.565   4.640  0.1002  0.3882  0.0374
12324SOL    HW137566   4.697   6.475   4.666 -0.5802  0.3205 -0.6710
12324SOL    HW237567   4.803   6.562   4.601 -0.5457 -0.2483 -1.3807
12325SOL     OW37568   0.233   0.119   1.865 -0.2427 -0.1753  0.2064
12325SOL    HW137569   0.290   0.140   1.791 -0.3892  1.5699  0.5852
12325SOL    HW237570   0.284   0.144   1.942 -1.1034  0.3891  0.5932
12326SOL     OW37571   3.897   3.190   6.875  1.0067  0.1753 -0.0540
12326SOL    HW137572   3.871   3.099   6.860 -0.2626  0.4077  0.7220
12326SOL    HW237573   3.848   3.240   6.809 -0.1910  0.5609  1.1079
12327SOL     OW37574   1.945   2.190   6.406  0.2352 -0.2245  0.8508
12327SOL    HW137575   1.997   2.261   6.369 -0.7745  0.2538  0.3271
12327SOL    HW237576   2.009   2.124   6.431  1.0358 -0.0742 -0.7060
12328SOL     OW37577   1.797   0.773   3.160  0.1541  0.1538 -0.6271
12328SOL    HW137578   1.828   0.800   3.247 -0.1208  0.7982 -0.7284
12328SOL    HW237579   1.709   0.810   3.153 -0.4583 -1.2445 -0.5453
12329SOL     OW37580   2.898   2.902   4.176  0.2345  0.2383  0.4072
12329SOL    HW137581   2.976   2.933   4.221  0.7246  0.6589 -0.7221
12329SOL    HW237582   2.827   2.954   4.212  0.8696  1.7752 -0.5387
12330SOL     OW37583   1.137   3.891   1.211 -0.1385  0.1056  0.7630
12330SOL    HW137584   1.186   3.950   1.268 -0.8634  0.5731  0.9120
12330SOL    HW237585   1.158   3.920   1.122  1.0421 -0.6651  0.7833
12331SOL     OW37586   4.768   3.989   1.138  0.0243 -0.5261  0.8453
12331SOL    HW137587   4.859   4.018   1.131 -0.4088  1.0579  1.3998
12331SOL    HW237588   4.772   3.894   1.137  1.6399 -0.4610  0.2971
12332SOL     OW37589   1.473   2.484   2.861  0.0121 -0.0045 -0.3516
12332SOL    HW137590   1.417   2.406   2.869 -2.1955  1.6557  0.9958
12332SOL    HW237591   1.488   2.494   2.767 -0.8083 -1.2663 -0.6284
12333SOL     OW37592   1.840   1.185   6.913  0.3494  0.5124  0.0427
12333SOL    HW137593   1.789   1.123   6.861  2.0310  0.8517 -2.0725
12333SOL    HW237594   1.881   1.131   6.980 -0.7109 -0.1617  0.1687
12334SOL     OW37595   1.657   0.172   3.913 -0.4853 -0.1402  0.1085
12334SOL    HW137596   1.739   0.141   3.874 -0.6495 -1.5335  0.8293
12334SOL    HW237597   1.599   0.187   3.838  0.6344  1.5224 -0.4546
12335SOL     OW37598   7.136   4.542   0.080 -0.3586 -0.1219 -0.1151
12335SOL    HW137599   7.044   4.570   0.077 -0.3236  0.0906  0.6985
12335SOL    HW237600   7.162   4.556   0.171 -0.5105 -3.2995  0.4699
12336SOL     OW37601   7.193   7.014   2.688 -0.1588 -0.1587 -0.4016
12336SOL    HW137602   7.141   7.092   2.708 -1.3351 -1.0316 -0.0283
12336SOL    HW237603   7.256   7.043   2.622  0.5221  1.5342  0.9548
12337SOL     OW37604   1.312   3.184   3.370  0.3836  0.1051  0.6208
12337SOL    HW137605   1.297   3.229   3.453  0.8169 -0.1729  0.8505
12337SOL    HW237606   1.401   3.209   3.345  0.5592 -0.4815  0.6588
12338SOL     OW37607   4.711   1.516   6.244  0.4150 -0.0540 -0.3263
12338SOL    HW137608   4.635   1.575   6.248 -0.5668 -1.3876  2.7150
12338SOL    HW237609   4.785   1.574   6.224 -0.9068  1.8098  0.0041
12339SOL     OW37610   4.358   5.912   1.487  0.2628 -0.3509 -0.2063
12339SOL    HW137611   4.359   5.819   1.511  0.0995 -0.5263 -0.8387
12339SOL    HW237612   4.274   5.944   1.519  0.7009 -0.1973  0.8033
12340SOL     OW37613   0.950   1.819   6.067 -0.4732 -0.3030  0.6699
12340SOL    HW137614   0.963   1.794   6.158 -0.6465 -0.5909  0.6143
12340SOL    HW237615   0.938   1.914   6.070 -1.0561 -0.3842  1.0087
12341SOL     OW37616   2.357   3.448   4.203 -0.0443  0.0577  0.4340
12341SOL    HW137617   2.322   3.373   4.156  0.1585  0.8783 -1.0726
12341SOL    HW237618   2.311   3.448   4.287 -2.1336 -0.1217 -0.6652
12342SOL     OW37619   2.937   3.084   0.548  0.1539  0.5501 -0.1031
12342SOL    HW137620   2.991   3.162   0.558 -0.3278  1.1152 -1.7917
12342SOL    HW237621   2.903   3.089   0.459 -1.3336 -0.6548  0.3638
12343SOL     OW37622   7.157   5.216   4.178 -0.3636  0.7226 -0.1359
12343SOL    HW137623   7.113   5.201   4.094 -0.4482 -2.1144  0.3680
12343SOL    HW237624   7.244   5.178   4.168 -0.2627  0.6325  0.9326
12344SOL     OW37625   3.896   4.107   1.057 -0.3370 -0.1835 -0.4418
12344SOL    HW137626   3.943   4.025   1.053 -2.2137 -1.3009 -0.3842
12344SOL    HW237627   3.960   4.173   1.031  2.1155 -1.2389  2.5673
12345SOL     OW37628   4.189   4.488   6.302  0.1952 -0.0274  0.1159
12345SOL    HW137629   4.241   4.520   6.376  1.0820  0.8988 -0.8780
12345SOL    HW237630   4.145   4.566   6.268  1.2357 -0.0862 -1.4410
12346SOL     OW37631   6.569   2.969   6.444 -0.1157  0.2477  0.2697
12346SOL    HW137632   6.476   2.956   6.463 -0.1352  2.3969  1.8804
12346SOL    HW237633   6.588   2.909   6.372 -3.0822  0.8291 -1.0536
12347SOL     OW37634   2.656   4.227   2.611 -0.3558  0.4739 -0.1738
12347SOL    HW137635   2.581   4.251   2.556 -1.8728 -1.8526  0.8102
12347SOL    HW237636   2.732   4.242   2.555 -1.7530 -0.2702 -2.3681
12348SOL     OW37637   2.103   4.900   6.718  0.4280  0.1890  0.0832
12348SOL    HW137638   2.107   4.809   6.687  1.3078 -0.2353  1.3876
12348SOL    HW237639   2.058   4.947   6.648 -1.9475 -1.6334  0.2995
12349SOL     OW37640   5.710   0.489   5.253 -0.1957 -0.2666 -0.0344
12349SOL    HW137641   5.680   0.575   5.222  1.6837  0.7788  0.9371
12349SOL    HW237642   5.756   0.451   5.177  1.3552  0.7886  0.3453
12350SOL     OW37643   5.134   4.739   1.117  0.6299 -0.1056  0.2614
12350SOL    HW137644   5.203   4.684   1.079 -0.5495 -0.8414 -0.8330
12350SOL    HW237645   5.097   4.786   1.043 -1.0076 -0.7833  0.6394
12351SOL     OW37646   4.302   6.319   6.567  0.5859  0.8509  0.1973
12351SOL    HW137647   4.241   6.271   6.623 -1.2105  2.5089 -0.2948
12351SOL    HW237648   4.350   6.250   6.520 -2.0620 -0.4899 -0.6359
12352SOL     OW37649   1.318   7.001   4.507 -0.1001  0.0627 -0.0326
12352SOL    HW137650   1.248   6.982   4.445 -1.6505 -0.7580  1.9047
12352SOL    HW237651   1.291   7.083   4.549  1.6586  1.3878 -1.4339
12353SOL     OW37652   3.891   6.742   4.293  1.1113 -0.3591 -0.3776
12353SOL    HW137653   3.986   6.746   4.283  1.3602 -1.7064  1.1750
12353SOL    HW237654   3.874   6.771   4.383  0.1444 -0.8573 -0.3822
12354SOL     OW37655   4.764   5.454   5.794  0.1547 -0.4570  0.0119
12354SOL    HW137656   4.707   5.476   5.720  1.9968 -0.7045 -1.5304
12354SOL    HW237657   4.821   5.531   5.804  0.0829 -0.5290  1.0059
12355SOL     OW37658   0.767   2.981   1.737  0.0902  0.3775  0.2765
12355SOL    HW137659   0.845   3.036   1.736 -0.2534  0.8673  0.4464
12355SOL    HW237660   0.765   2.943   1.825  0.4852 -0.1323  0.0656
12356SOL     OW37661   2.034   0.865   4.249 -0.0812  0.0812  0.1557
12356SOL    HW137662   2.063   0.804   4.181 -0.0363  0.8853 -0.5678
12356SOL    HW237663   1.943   0.842   4.265 -0.3614  0.4469 -0.8293
12357SOL     OW37664   4.559   5.716   3.186 -0.5243  0.0855  0.3497
12357SOL    HW137665   4.543   5.702   3.279  2.0695 -0.9904  0.6730
12357SOL    HW237666   4.473   5.737   3.150 -1.5551  0.5836  2.9817
12358SOL     OW37667   6.443   1.442   2.146  0.2313 -0.1538  0.5602
12358SOL    HW137668   6.361   1.442   2.194  1.6526  2.9034  3.1600
12358SOL    HW237669   6.510   1.423   2.212  1.7393 -1.7388 -1.3309
12359SOL     OW37670   5.361   1.157   5.301 -0.2020 -0.3074  0.2136
12359SOL    HW137671   5.358   1.063   5.283 -1.5824 -0.1431 -0.5085
12359SOL    HW237672   5.330   1.198   5.221  1.4837  0.8285  0.1235
12360SOL     OW37673   0.507   6.404   1.673  0.6493 -0.4802  0.4988
12360SOL    HW137674   0.587   6.354   1.659  0.0290 -0.4539 -3.8136
12360SOL    HW237675   0.512   6.476   1.610 -2.2253  0.1624  0.9384
12361SOL     OW37676   6.255   2.187   7.062 -0.4014 -0.3301  0.2812
12361SOL    HW137677   6.260   2.095   7.038 -1.3578 -0.9176  2.2459
12361SOL    HW237678   6.163   2.202   7.081  0.0699  0.5003  1.9562
12362SOL     OW37679   5.358   3.837   5.458  0.4005  0.6015  0.0156
12362SOL    HW137680   5.450   3.847   5.481  0.3067  1.1357  0.1616
12362SOL    HW237681   5.317   3.803   5.537  1.0344 -2.7103 -1.0091
12363SOL     OW37682   5.226   2.230   1.344  0.1810  0.5861 -0.3742
12363SOL    HW137683   5.160   2.225   1.274 -0.4059 -3.1187  0.3304
12363SOL    HW237684   5.304   2.190   1.306  0.1645 -0.5233  0.7479
12364SOL     OW37685   3.139   7.118   5.735 -0.1795 -0.3913  0.2053
12364SOL    HW137686   3.162   7.207   5.707 -0.7626  0.0661  1.1609
12364SOL    HW237687   3.173   7.110   5.824  0.6949 -1.4557 -0.2134
12365SOL     OW37688   1.128   7.157   2.895 -0.4454 -0.7494  0.4961
12365SOL    HW137689   1.119   7.233   2.953  1.3262  0.5559 -0.8876
12365SOL    HW237690   1.126   7.082   2.954 -3.3261  0.2649  1.7936
12366SOL     OW37691   1.540   4.750   6.033  0.1967 -0.7034 -0.1885
12366SOL    HW137692   1.568   4.828   6.080  0.5085 -0.4281 -0.8307
12366SOL    HW237693   1.616   4.691   6.039 -0.2518 -1.1894  0.8022
12367SOL     OW37694   0.187   5.462   0.852 -0.1628 -0.5504 -0.7252
12367SOL    HW137695   0.133   5.536   0.881 -0.0461 -0.8445  0.2746
12367SOL    HW237696   0.131   5.413   0.793 -0.7851 -0.5113 -0.1778
12368SOL     OW37697   5.308   6.618   3.881 -0.0868  0.3266 -0.5355
12368SOL    HW137698   5.347   6.702   3.858 -0.3285  0.1282 -1.6805
12368SOL    HW237699   5.216   6.626   3.857 -0.5268  0.3853  1.0943
12369SOL     OW37700   1.447   6.813   0.945 -0.2869  0.0250 -0.0517
12369SOL    HW137701   1.453   6.728   0.902 -1.0015  0.1622 -0.4325
12369SOL    HW237702   1.429   6.875   0.874  2.6497  0.8605 -0.1119
12370SOL     OW37703   6.823   1.370   4.630  0.2367 -0.3633 -0.1082
12370SOL    HW137704   6.906   1.341   4.593  0.7621  0.3193  0.5327
12370SOL    HW237705   6.847   1.417   4.710 -0.6917  0.6987 -0.4409
12371SOL     OW37706   1.873   5.425   3.896 -0.3296 -0.5926  0.1136
12371SOL    HW137707   1.818   5.422   3.818  0.4898  0.9180 -0.5336
12371SOL    HW237708   1.937   5.356   3.883  1.1057  0.9879 -1.5692
12372SOL     OW37709   0.780   0.893   1.675  0.4985 -0.1604  0.2380
12372SOL    HW137710   0.743   0.981   1.677  2.9956  0.9345  1.9793
12372SOL    HW237711   0.759   0.857   1.761  0.0385 -1.0100 -0.2345
12373SOL     OW37712   4.554   6.296   6.919 -0.5818 -0.3762  0.4105
12373SOL    HW137713   4.541   6.385   6.887  0.0570  0.0295  1.2660
12373SOL    HW237714   4.549   6.303   7.014 -1.3485 -1.3875  0.4525
12374SOL     OW37715   2.337   3.224   6.031  0.0072 -0.1383 -0.6324
12374SOL    HW137716   2.407   3.251   6.090 -0.4109 -0.6350  0.0967
12374SOL    HW237717   2.267   3.288   6.046  0.1587  0.1353 -1.0855
12375SOL     OW37718   2.828   2.839   1.449 -0.4117 -0.2231 -0.5628
12375SOL    HW137719   2.838   2.891   1.369  1.1017 -0.5616 -0.6209
12375SOL    HW237720   2.793   2.900   1.514 -0.6888  0.3149 -1.2209
12376SOL     OW37721   0.778   5.849   6.061 -0.1576  0.0592  0.0570
12376SOL    HW137722   0.746   5.939   6.061  0.7288  0.3930 -0.9003
12376SOL    HW237723   0.700   5.795   6.049 -0.5486  0.7756 -0.6661
12377SOL     OW37724   3.448   4.390   0.235  0.1341  0.2560 -0.5690
12377SOL    HW137725   3.477   4.308   0.274 -0.7849 -0.0078 -0.4359
12377SOL    HW237726   3.527   4.427   0.195  0.4644 -0.8965 -1.0055
12378SOL     OW37727   1.633   4.534   1.012  0.1551 -0.4109 -0.2179
12378SOL    HW137728   1.551   4.560   0.969  0.2117  2.8537  1.4660
12378SOL    HW237729   1.702   4.569   0.955  0.2365  3.1034  1.9039
12379SOL     OW37730   3.574   1.432   5.811  0.3053  0.3683  0.2405
12379SOL    HW137731   3.506   1.487   5.849  2.7096  3.0007  0.8854
12379SOL    HW237732   3.557   1.434   5.717 -1.3109 -0.1373  0.5195
12380SOL     OW37733   6.524   3.203   1.521  0.1455  0.4222  0.4055
12380SOL    HW137734   6.509   3.109   1.511 -1.0585  0.6162  0.2539
12380SOL    HW237735   6.576   3.211   1.601  2.1122 -0.5117 -0.7324
12381SOL     OW37736   2.191   1.420   1.903 -0.2148  0.3989  1.2413
12381SOL    HW137737   2.128   1.355   1.933 -1.3677  0.9657  0.1019
12381SOL    HW237738   2.266   1.369   1.872 -1.5539 -0.4840 -0.6703
12382SOL     OW37739   4.826   4.991   4.083  0.1378 -0.0515  0.6349
12382SOL    HW137740   4.796   4.901   4.078 -0.2506  0.1645 -1.2593
12382SOL    HW237741   4.881   5.002   4.006 -0.3310  1.5242  0.5129
12383SOL     OW37742   6.913   3.647   1.519 -0.1867 -0.0349 -0.1098
12383SOL    HW137743   6.900   3.566   1.470 -0.9343  0.7603 -1.2512
12383SOL    HW237744   7.005   3.670   1.504  0.8724 -2.2300  2.6633
12384SOL     OW37745   4.773   4.375   5.819  0.1432 -0.4613  0.8926
12384SOL    HW137746   4.825   4.310   5.867  2.1771  0.2008 -0.3508
12384SOL    HW237747   4.792   4.458   5.862  1.0712 -0.0402 -0.2859
12385SOL     OW37748   2.312   4.637   5.879  0.6734 -0.3568  0.6693
12385SOL    HW137749   2.351   4.565   5.829  1.7024 -0.6865  1.9222
12385SOL    HW237750   2.386   4.682   5.920  0.2110  2.4936 -1.4616
12386SOL     OW37751   4.917   2.062   3.164 -0.0357  0.6361  0.2856
12386SOL    HW137752   4.821   2.055   3.166 -0.0327 -0.9822 -2.4939
12386SOL    HW237753   4.947   1.971   3.168  1.3243  1.0259 -0.9071
12387SOL     OW37754   6.822   4.499   5.830 -0.0226 -0.1385 -0.1748
12387SOL    HW137755   6.904   4.503   5.879  0.2044 -1.4173 -0.4161
12387SOL    HW237756   6.754   4.492   5.897  0.1920 -0.6253 -0.0047
12388SOL     OW37757   0.630   0.846   5.336  0.6809 -0.3969 -0.2675
12388SOL    HW137758   0.573   0.898   5.393  0.2286 -0.9579 -0.2092
12388SOL    HW237759   0.641   0.763   5.382 -0.2358 -1.1012 -1.3083
12389SOL     OW37760   3.971   6.919   4.514 -0.0601  0.0166  0.2634
12389SOL    HW137761   4.014   6.899   4.597  1.0466  1.9608  0.1852
12389SOL    HW237762   4.042   6.921   4.450 -0.8227 -0.8037 -0.6394
12390SOL     OW37763   6.590   3.262   3.860 -0.0519 -0.2594  0.1900
12390SOL    HW137764   6.683   3.261   3.884 -0.2348 -1.3550  0.8887
12390SOL    HW237765   6.578   3.181   3.810 -0.2499  0.7402 -1.4077
12391SOL     OW37766   6.889   2.531   5.853  0.0608 -0.8163  0.2612
12391SOL    HW137767   6.885   2.471   5.928  0.1462  0.6632  1.4610
12391SOL    HW237768   6.968   2.583   5.868 -1.3085  1.2259  0.4721
12392SOL     OW37769   6.859   4.965   3.723  0.2100 -0.0059  0.1630
12392SOL    HW137770   6.861   4.885   3.775 -0.5702 -0.5974 -0.7017
12392SOL    HW237771   6.802   5.025   3.772 -0.6968 -0.6361 -0.1097
12393SOL     OW37772   0.266   1.923   0.569  0.5741  0.1758  0.1512
12393SOL    HW137773   0.197   1.867   0.535  1.9934 -0.8683 -1.0468
12393SOL    HW237774   0.284   1.985   0.498  2.2152 -0.8023 -0.3156
12394SOL     OW37775   3.220   1.741   7.097  0.3652  0.0182  0.2233
12394SOL    HW137776   3.205   1.689   7.018 -0.1909  0.5794 -0.0441
12394SOL    HW237777   3.278   1.687   7.150 -3.0220 -2.4584  1.5648
12395SOL     OW37778   5.717   4.286   2.191  0.4272 -0.1646 -0.0398
12395SOL    HW137779   5.627   4.315   2.209 -0.7681 -2.4500 -2.0211
12395SOL    HW237780   5.741   4.235   2.269 -0.6659 -0.9618 -0.1993
12396SOL     OW37781   4.283   0.414   0.676 -0.1908  0.4405  0.6745
12396SOL    HW137782   4.285   0.326   0.713 -0.0735  0.1587  0.0072
12396SOL    HW237783   4.370   0.426   0.636 -0.4574  0.5833  0.1314
12397SOL     OW37784   4.353   4.102   6.536 -0.4948 -0.1937 -0.0106
12397SOL    HW137785   4.378   4.072   6.624 -0.5006 -0.3791 -0.0732
12397SOL    HW237786   4.275   4.156   6.551 -0.2188  0.1654  0.1553
12398SOL     OW37787   5.584   2.338   2.446  0.0519 -0.0400  0.3615
12398SOL    HW137788   5.595   2.389   2.526  0.2483 -0.6099  0.7006
12398SOL    HW237789   5.667   2.293   2.434  1.0083  2.1766 -1.6994
12399SOL     OW37790   3.975   0.496   3.280 -0.2057  0.3313 -0.1108
12399SOL    HW137791   4.007   0.413   3.247  0.1525  0.4435 -0.0460
12399SOL    HW237792   3.964   0.551   3.202  0.2724  0.4688 -0.0861
12400SOL     OW37793   1.860   6.060   5.267 -0.4137  0.3300  0.0727
12400SOL    HW137794   1.876   6.120   5.340 -1.1388 -0.2011  0.6757
12400SOL    HW237795   1.782   6.095   5.223 -1.0687 -0.3781  0.6570
12401SOL     OW37796   0.588   1.163   5.002  0.2937 -0.0987 -0.3872
12401SOL    HW137797   0.554   1.081   5.039 -0.7731 -0.8699 -2.9723
12401SOL    HW237798   0.554   1.231   5.060 -1.2685 -1.2691  0.1057
12402SOL     OW37799   3.608   2.173   3.342 -0.0337  0.4331  0.1698
12402SOL    HW137800   3.582   2.173   3.250  0.0374 -1.7721  0.1147
12402SOL    HW237801   3.573   2.255   3.377 -1.7838  0.3784 -1.3479
12403SOL     OW37802   6.954   6.768   2.643  0.0893  0.2291  0.2054
12403SOL    HW137803   6.871   6.771   2.595  1.1447  0.9946 -1.5721
12403SOL    HW237804   6.992   6.855   2.632  2.1481 -0.7757 -0.7828
12404SOL     OW37805   3.735   3.996   5.679  0.0180 -0.0786  0.6205
12404SOL    HW137806   3.702   3.995   5.589  0.6469 -1.7552  0.3836
12404SOL    HW237807   3.668   4.041   5.729 -0.7099  0.1739 -0.5598
12405SOL     OW37808   0.180   0.618   6.843  0.2071  0.0278 -0.0708
12405SOL    HW137809   0.108   0.558   6.821  0.1842  0.0614 -0.0858
12405SOL    HW237810   0.154   0.657   6.926  0.6445 -0.6693  0.4006
12406SOL     OW37811   3.043   1.173   2.615 -0.5723 -1.1860 -0.2313
12406SOL    HW137812   2.961   1.165   2.664  0.8213  0.8871  2.5811
12406SOL    HW237813   3.099   1.105   2.652  0.0393 -0.5120  0.0775
12407SOL     OW37814   1.735   5.773   0.595  0.0616 -0.2156 -0.2015
12407SOL    HW137815   1.672   5.838   0.626  0.5787  0.0851  0.2200
12407SOL    HW237816   1.792   5.821   0.534  1.9111  0.3228  1.8786
12408SOL     OW37817   2.924   0.934   4.529  0.2835 -0.0856 -0.5000
12408SOL    HW137818   3.010   0.930   4.488 -0.2902 -0.3979 -1.6878
12408SOL    HW237819   2.896   1.026   4.518  0.8011  0.2047  0.5865
12409SOL     OW37820   0.405   4.694   0.343 -0.0390 -0.0105  0.0198
12409SOL    HW137821   0.410   4.704   0.248 -0.2535  1.2962  0.1320
12409SOL    HW237822   0.339   4.626   0.357 -1.5963  1.3333 -0.7096
12410SOL     OW37823   3.284   1.503   4.060 -0.5408 -0.7416  0.1523
12410SOL    HW137824   3.273   1.489   4.155  0.8738 -1.1975  0.2503
12410SOL    HW237825   3.194   1.509   4.027 -1.0446  2.3657  1.9439
12411SOL     OW37826   0.442   3.733   6.793  0.8342 -0.0424 -0.1868
12411SOL    HW137827   0.424   3.818   6.833  0.8302 -0.5852  1.0026
12411SOL    HW237828   0.397   3.735   6.709  3.2102  2.2325 -1.5033
12412SOL     OW37829   2.034   4.627   0.644 -0.4102  0.0511  0.1549
12412SOL    HW137830   2.110   4.680   0.667  0.0056 -0.8015  0.7365
12412SOL    HW237831   2.047   4.544   0.689 -2.3449  0.3606  1.3499
12413SOL     OW37832   3.103   7.005   1.186 -0.0265 -0.5454 -0.5782
12413SOL    HW137833   3.124   6.952   1.262  0.0644 -3.4469 -2.5674
12413SOL    HW237834   3.183   7.003   1.133 -0.7209 -0.1163 -1.6536
12414SOL     OW37835   4.955   4.098   5.390  0.1235  0.5627 -0.2067
12414SOL    HW137836   4.969   4.080   5.483  1.9247 -2.1235 -0.9324
12414SOL    HW237837   5.042   4.115   5.356 -0.4749  1.0593 -1.5062
12415SOL     OW37838   5.864   2.885   3.730  0.1338 -0.1325  0.1782
12415SOL    HW137839   5.958   2.901   3.745 -0.1150 -0.3369  2.1069
12415SOL    HW237840   5.856   2.790   3.727  0.1056 -0.1069 -0.9508
12416SOL     OW37841   1.410   7.036   2.667  0.3993 -0.5265  0.1510
12416SOL    HW137842   1.470   7.104   2.636  1.4585 -1.6017 -0.2396
12416SOL    HW237843   1.434   7.024   2.759  2.7759 -2.9278 -0.7134
12417SOL     OW37844   0.988   4.371   3.280  0.0836 -0.4105  0.3578
12417SOL    HW137845   1.071   4.393   3.323 -0.3128  1.8476  0.0064
12417SOL    HW237846   0.991   4.416   3.196 -2.2597  1.2278  1.0950
12418SOL     OW37847   4.124   1.806   3.403  0.3668  0.3377  0.6771
12418SOL    HW137848   4.088   1.864   3.337 -2.7300  0.9626  2.8323
12418SOL    HW237849   4.100   1.718   3.374  1.2912  0.4051 -0.3346
12419SOL     OW37850   6.116   0.928   7.240 -0.0029 -0.2202 -0.6931
12419SOL    HW137851   6.125   0.832   7.243 -0.1382 -0.1984  0.8180
12419SOL    HW237852   6.194   0.960   7.286 -0.1295  0.3898 -0.9012
12420SOL     OW37853   1.761   0.726   0.511  0.1373 -0.3083 -0.4280
12420SOL    HW137854   1.778   0.635   0.487 -1.0474 -0.5256 -0.4744
12420SOL    HW237855   1.715   0.721   0.595 -0.2840  0.2283 -0.6261
12421SOL     OW37856   6.394   1.553   1.668 -0.2735  0.4487 -0.3983
12421SOL    HW137857   6.412   1.591   1.754 -0.8885 -0.7089  0.2529
12421SOL    HW237858   6.383   1.629   1.611 -0.9530  1.2539  0.7675
12422SOL     OW37859   1.932   4.606   2.559 -0.2013 -0.2884  0.0578
12422SOL    HW137860   1.933   4.568   2.647  0.1364  0.9009  0.5852
12422SOL    HW237861   1.877   4.684   2.568  0.6047  0.3511 -0.5657
12423SOL     OW37862   2.772   5.977   4.061 -0.9237 -0.6604  0.0682
12423SOL    HW137863   2.862   5.966   4.093 -0.1624 -0.2643 -1.8302
12423SOL    HW237864   2.749   6.067   4.085 -0.7372 -0.7031  0.4078
12424SOL     OW37865   3.618   4.272   6.123 -0.0162 -0.2521  0.1862
12424SOL    HW137866   3.573   4.276   6.038 -0.1590 -0.8998  0.2255
12424SOL    HW237867   3.669   4.191   6.119  1.5075  0.7050 -0.0242
12425SOL     OW37868   5.673   5.794   1.192 -0.2118  0.5558  0.4737
12425SOL    HW137869   5.699   5.716   1.241 -0.2323  1.4955  2.0411
12425SOL    HW237870   5.656   5.763   1.103  1.5315 -0.9001  0.6230
12426SOL     OW37871   4.104   3.008   2.628  0.2116 -0.5315 -0.1883
12426SOL    HW137872   4.177   3.021   2.567  0.0546 -1.1673 -0.5198
12426SOL    HW237873   4.032   3.059   2.591 -0.1073 -1.5115 -0.9473
12427SOL     OW37874   0.293   0.368   2.039 -0.4438 -1.0363  1.2123
12427SOL    HW137875   0.328   0.448   2.077  1.1080 -0.7976 -0.6058
12427SOL    HW237876   0.258   0.395   1.954  1.0208 -2.4156  0.1191
12428SOL     OW37877   7.052   0.717   4.463 -0.1911  0.3768 -0.3415
12428SOL    HW137878   7.125   0.660   4.439 -1.2267 -1.1955  0.1969
12428SOL    HW237879   7.089   0.805   4.461  1.7143 -0.4014 -0.1241
12429SOL     OW37880   6.625   3.257   5.251 -0.0118 -0.3484 -0.2136
12429SOL    HW137881   6.660   3.217   5.330 -0.1480 -0.8780 -0.4199
12429SOL    HW237882   6.684   3.330   5.233 -0.4165  0.2387  0.7973
12430SOL     OW37883   2.500   2.036   4.389 -0.3160 -0.1198 -0.2780
12430SOL    HW137884   2.575   2.094   4.379  0.2655 -0.6683  0.7616
12430SOL    HW237885   2.423   2.093   4.385  0.2476  0.7152  0.7032
12431SOL     OW37886   1.914   1.877   2.915  0.0761 -0.0853 -0.1324
12431SOL    HW137887   2.006   1.879   2.889  0.3867 -0.4353  0.8892
12431SOL    HW237888   1.898   1.962   2.955  0.1536 -0.2790  0.3189
12432SOL     OW37889   0.594   6.019   1.533 -0.5201  0.4310 -0.3853
12432SOL    HW137890   0.607   5.926   1.514 -0.8270  0.1943  0.5080
12432SOL    HW237891   0.568   6.058   1.449 -0.5050 -0.3146 -0.7348
12433SOL     OW37892   4.013   3.479   0.524 -0.5514 -0.0710 -0.4984
12433SOL    HW137893   3.951   3.515   0.587 -2.0181 -0.5380 -1.6640
12433SOL    HW237894   3.967   3.407   0.482  0.3737  0.2501 -2.1272
12434SOL     OW37895   6.877   0.968   1.077 -0.0314 -0.4807 -0.0170
12434SOL    HW137896   6.941   0.987   1.146 -1.0294 -0.4584  0.9194
12434SOL    HW237897   6.862   1.053   1.035  0.6954 -0.5227 -0.3649
12435SOL     OW37898   5.983   2.732   2.502  0.1243 -0.5620  0.6265
12435SOL    HW137899   6.016   2.722   2.592 -2.5581 -3.0901  1.4034
12435SOL    HW237900   5.895   2.768   2.513  0.7971  1.7923 -1.1934
12436SOL     OW37901   0.105   0.422   5.414 -0.4398  0.0209 -0.8301
12436SOL    HW137902   0.015   0.423   5.446 -0.3982 -0.0678 -0.7095
12436SOL    HW237903   0.101   0.467   5.330 -0.6055 -0.0219 -0.8460
12437SOL     OW37904   5.185   4.909   4.143  0.2290  0.3060 -0.7299
12437SOL    HW137905   5.276   4.935   4.155 -0.3356  2.6713 -1.3279
12437SOL    HW237906   5.183   4.871   4.055  0.8481 -0.8828 -0.2502
12438SOL     OW37907   4.926   7.228   2.165 -0.2256 -0.4797  0.2116
12438SOL    HW137908   4.900   7.227   2.072 -0.8314 -1.5174  0.3793
12438SOL    HW237909   4.856   7.180   2.209 -0.3456  0.7055  1.3198
12439SOL     OW37910   2.699   0.991   5.713  0.2521  0.1314  0.7842
12439SOL    HW137911   2.618   1.020   5.672  1.4220  1.2284 -0.8424
12439SOL    HW237912   2.756   1.068   5.710  2.5573 -1.5804 -1.3321
12440SOL     OW37913   1.938   0.694   2.119  0.6191 -0.4962  0.1821
12440SOL    HW137914   1.935   0.606   2.157  0.1651 -0.0986  1.0864
12440SOL    HW237915   2.006   0.738   2.170  1.8914 -0.7706 -1.2547
12441SOL     OW37916   1.034   1.683   3.605  0.2533  0.0806  0.6956
12441SOL    HW137917   1.065   1.683   3.696  0.7506 -2.3041  0.5714
12441SOL    HW237918   1.112   1.705   3.554  0.2579  0.2869  0.7932
12442SOL     OW37919   4.005   3.822   7.175 -0.6656 -0.1725 -1.0679
12442SOL    HW137920   3.914   3.827   7.203 -0.6953  0.2135 -1.2213
12442SOL    HW237921   4.040   3.745   7.219 -1.0101 -0.2054 -0.8482
12443SOL     OW37922   0.069   2.939   6.785 -0.3263  0.1197  0.1868
12443SOL    HW137923   0.030   3.011   6.834  0.5921  0.6836  0.0940
12443SOL    HW237924   0.098   2.977   6.703  0.4508 -0.2801  0.2654
12444SOL     OW37925   1.775   7.106   2.438 -0.1199  0.1919 -0.5616
12444SOL    HW137926   1.824   7.172   2.389 -0.3147  0.3639 -0.5261
12444SOL    HW237927   1.830   7.028   2.435  1.0993  0.9520  1.1849
12445SOL     OW37928   0.542   3.551   5.638 -0.0480  0.3842 -0.5478
12445SOL    HW137929   0.630   3.542   5.675 -1.7129 -0.1711  3.6359
12445SOL    HW237930   0.518   3.463   5.609  0.2364  0.2423 -0.3435
12446SOL     OW37931   6.487   3.537   1.999 -0.4978  0.4860 -0.3501
12446SOL    HW137932   6.459   3.519   2.089 -1.5738  1.3721 -0.4813
12446SOL    HW237933   6.582   3.542   2.003 -0.5274  0.2536  0.6905
12447SOL     OW37934   2.683   0.044   4.829 -0.7870  0.1167 -0.5471
12447SOL    HW137935   2.692  -0.020   4.900  2.3375 -0.5302 -1.4353
12447SOL    HW237936   2.690   0.129   4.872  1.7910 -0.2761 -0.0956
12448SOL     OW37937   5.914   5.908   1.190 -0.6910 -0.0615 -0.0973
12448SOL    HW137938   5.822   5.881   1.183 -0.3194 -1.4886  0.3090
12448SOL    HW237939   5.925   5.934   1.281 -0.6825  0.0916 -0.1413
12449SOL     OW37940   4.011   6.905   2.070  0.3781  0.2469  0.1215
12449SOL    HW137941   3.998   6.979   2.011  1.5278  2.4026  2.4708
12449SOL    HW237942   4.098   6.919   2.108 -1.0092 -0.1347  3.6013
12450SOL     OW37943   4.152   5.364   0.975 -0.2653 -0.6620  0.1553
12450SOL    HW137944   4.100   5.442   0.954  1.7999  0.4805 -0.8267
12450SOL    HW237945   4.124   5.299   0.911 -0.2314  0.0568 -0.5995
12451SOL     OW37946   0.857   4.232   5.572 -0.1687  0.2993  0.3200
12451SOL    HW137947   0.879   4.323   5.554 -0.6566 -0.0221 -1.9830
12451SOL    HW237948   0.805   4.204   5.497 -0.6316 -1.6748  1.3348
12452SOL     OW37949   2.964   0.967   3.085  0.2281 -0.2262 -0.3866
12452SOL    HW137950   3.048   0.956   3.130  0.2968  0.2465 -0.3995
12452SOL    HW237951   2.958   0.892   3.026  0.9588  0.1140 -0.8931
12453SOL     OW37952   3.614   7.139   1.721 -0.2485  0.1757  0.1218
12453SOL    HW137953   3.657   7.090   1.792  1.1874  1.4849  0.2091
12453SOL    HW237954   3.654   7.104   1.641  1.8200  2.0927  0.2540
12454SOL     OW37955   3.502   5.231   4.935  0.6267 -0.6718  0.6712
12454SOL    HW137956   3.558   5.306   4.916  0.4951 -0.6484  0.3629
12454SOL    HW237957   3.513   5.173   4.860 -0.3504 -0.3129  0.2362
12455SOL     OW37958   5.772   4.568   2.153 -0.1139 -0.0021 -0.3464
12455SOL    HW137959   5.736   4.480   2.168 -0.5943  0.0068 -1.4080
12455SOL    HW237960   5.862   4.563   2.185 -1.1872  0.1417  2.9141
12456SOL     OW37961   4.886   1.073   3.025 -0.4366  0.4535 -0.0148
12456SOL    HW137962   4.976   1.095   3.049 -0.8075  2.0645 -0.0411
12456SOL    HW237963   4.838   1.155   3.033 -1.8228 -0.2932 -0.4260
12457SOL     OW37964   5.579   0.188   5.157 -0.3242 -0.0332 -0.0748
12457SOL    HW137965   5.614   0.122   5.217 -1.7104 -1.8876 -1.2457
12457SOL    HW237966   5.656   0.236   5.125  0.6758 -0.9627  0.9167
12458SOL     OW37967   6.735   2.291   5.079 -0.3220 -0.1056 -0.4586
12458SOL    HW137968   6.774   2.223   5.025  0.5439  0.2469 -0.2845
12458SOL    HW237969   6.808   2.326   5.130 -0.8952  0.4455 -0.0051
12459SOL     OW37970   5.168   6.763   6.422 -0.0023  0.1795  0.1874
12459SOL    HW137971   5.192   6.716   6.502 -2.6623  0.4285  1.2057
12459SOL    HW237972   5.179   6.699   6.352  1.3901 -0.3541  0.8626
12460SOL     OW37973   0.043   3.382   4.156 -0.3741 -0.0135 -0.2189
12460SOL    HW137974  -0.026   3.446   4.140 -1.0011 -0.4635  0.6078
12460SOL    HW237975   0.099   3.387   4.079 -1.3049  0.3965 -0.8792
12461SOL     OW37976   6.445   1.693   4.731  0.1526 -0.3002  0.0899
12461SOL    HW137977   6.485   1.612   4.765  1.2334  0.1909 -0.0068
12461SOL    HW237978   6.414   1.670   4.644  0.5535 -0.5775  0.0213
12462SOL     OW37979   6.817   0.440   3.968 -0.3395 -0.7483  0.4202
12462SOL    HW137980   6.893   0.496   3.954  1.4531 -2.9780  0.7635
12462SOL    HW237981   6.800   0.445   4.062 -0.7325 -0.0967  0.3122
12463SOL     OW37982   7.174   5.568   6.388  0.1132 -0.1164 -0.0071
12463SOL    HW137983   7.185   5.485   6.434 -0.3594 -0.5613 -0.6906
12463SOL    HW237984   7.156   5.631   6.458 -1.3040 -0.9169  0.3836
12464SOL     OW37985   4.808   7.237   5.780 -0.4227  0.5256  0.9712
12464SOL    HW137986   4.817   7.293   5.857  1.1289 -0.3944  1.4840
12464SOL    HW237987   4.857   7.282   5.711  0.0984  0.2225  1.1451
12465SOL     OW37988   4.105   0.043   5.063 -0.7312 -0.2963  0.0738
12465SOL    HW137989   4.197   0.029   5.085 -0.7470 -0.6814 -0.1057
12465SOL    HW237990   4.101   0.133   5.033 -0.3637 -0.3630 -0.1729
12466SOL     OW37991   0.184   3.771   4.555  0.1066  0.1872 -0.4155
12466SOL    HW137992   0.171   3.678   4.571 -0.9198 -0.0762 -2.6156
12466SOL    HW237993   0.263   3.794   4.606 -0.3786 -1.5508  1.1693
12467SOL     OW37994   4.807   0.336   2.197  0.3308  0.3825 -0.0656
12467SOL    HW137995   4.875   0.271   2.214  0.2122  0.5981  1.2892
12467SOL    HW237996   4.737   0.287   2.154 -0.1439 -0.5892  1.7708
12468SOL     OW37997   6.233   1.191   3.505  0.5952  0.2894 -0.7980
12468SOL    HW137998   6.302   1.207   3.441  2.3926 -2.8093  0.2394
12468SOL    HW237999   6.177   1.125   3.464  0.8811 -0.5901  0.2055
12469SOL     OW38000   5.602   6.398   5.820  0.0654 -0.4699 -0.1042
12469SOL    HW138001   5.548   6.427   5.746 -0.6355 -0.3150  0.4587
12469SOL    HW238002   5.669   6.466   5.829  0.4132 -0.7046 -0.8603
12470SOL     OW38003   6.288   3.170   7.124  0.1141 -0.7253 -0.5104
12470SOL    HW138004   6.312   3.242   7.182 -1.3143  0.4990 -1.3881
12470SOL    HW238005   6.357   3.168   7.058  0.5898 -0.7083 -0.0187
12471SOL     OW38006   2.137   4.124   1.409  0.1034  0.5663  0.3436
12471SOL    HW138007   2.068   4.189   1.423 -1.0951 -0.1256 -2.0511
12471SOL    HW238008   2.095   4.040   1.427  0.7556  0.2412  0.3706
12472SOL     OW38009   7.174   2.347   5.942 -0.2701 -0.2290 -0.3322
12472SOL    HW138010   7.133   2.431   5.920  3.5510  2.0420  0.8614
12472SOL    HW238011   7.211   2.316   5.859  1.2957  1.0169 -0.1224
12473SOL     OW38012   2.954   0.682   5.307 -0.6520 -0.1047  0.1746
12473SOL    HW138013   2.926   0.766   5.270  0.2512  0.4017  0.6191
12473SOL    HW238014   2.961   0.624   5.232  0.0654  0.6081 -0.3292
12474SOL     OW38015   0.171   4.016   5.828 -0.1669  0.8104 -0.0278
12474SOL    HW138016   0.194   4.000   5.737 -0.6271  1.8947 -0.3457
12474SOL    HW238017   0.239   4.076   5.859  0.6583 -0.4681  0.6919
12475SOL     OW38018   4.766   1.151   0.587 -0.0643  0.0580 -0.7896
12475SOL    HW138019   4.765   1.247   0.577 -1.4536  0.3155  1.5545
12475SOL    HW238020   4.795   1.137   0.677  1.4200 -1.8011 -1.5197
12476SOL     OW38021   2.287   3.732   3.075  0.0168 -0.1062  0.0516
12476SOL    HW138022   2.254   3.645   3.096  3.7031 -0.6641  4.0017
12476SOL    HW238023   2.252   3.789   3.144  1.5587  0.6299  0.2394
12477SOL     OW38024   2.719   1.678   0.058 -0.0070  0.2902 -0.1572
12477SOL    HW138025   2.696   1.587   0.078  0.9923  0.6442  2.9384
12477SOL    HW238026   2.644   1.729   0.090  0.6505  0.7419  0.6682
12478SOL     OW38027   1.405   5.699   0.839  0.5581  0.3153 -0.4077
12478SOL    HW138028   1.327   5.645   0.849  1.1968 -0.1933  2.0487
12478SOL    HW238029   1.463   5.647   0.784  0.0872 -0.3142 -0.3193
12479SOL     OW38030   1.077   6.673   4.161  0.1355 -0.1700 -0.0323
12479SOL    HW138031   1.159   6.653   4.117  0.1317 -1.0179  0.3422
12479SOL    HW238032   1.100   6.742   4.223  0.0515  1.3519 -1.6392
12480SOL     OW38033   0.418   2.104   5.103 -0.1492 -0.2961  0.0226
12480SOL    HW138034   0.509   2.117   5.129 -0.0999  0.6940 -0.6565
12480SOL    HW238035   0.405   2.162   5.028 -1.6626  0.4190  0.8159
12481SOL     OW38036   3.599   4.972   0.245  0.2810 -0.2593 -0.1468
12481SOL    HW138037   3.612   4.949   0.337 -1.8945 -1.5725 -0.1402
12481SOL    HW238038   3.505   4.980   0.236  0.5681  1.4477 -1.9205
12482SOL     OW38039   3.849   0.174   4.624 -0.5209  0.1568  0.3068
12482SOL    HW138040   3.914   0.103   4.622 -1.5012 -0.7410 -0.0939
12482SOL    HW238041   3.896   0.249   4.588 -0.0318 -0.7659 -1.0613
12483NA      NA38042   4.822   7.186   7.226  0.2358 -0.1479  0.2442
12484NA      NA38043   4.256   4.322   6.197  0.3309 -0.1263 -0.2346
12485NA      NA38044   2.734   5.856   3.885  0.0545  0.4914 -0.3522
12486NA      NA38045   6.469   0.569   1.263 -0.1445 -0.5301 -0.0200
12487NA      NA38046   6.839   4.237   6.526 -0.2875 -0.1295 -0.3486
12488NA      NA38047   4.174   5.425   0.426 -0.2922  0.1324  0.6200
12489NA      NA38048   0.680   3.269   1.395 -0.0987  0.0829 -0.0901
12490NA      NA38049   5.588   1.645   3.174 -0.2034  0.7268 -0.3349
12491NA      NA38050   2.667   1.509   5.179  0.5341 -0.2198 -0.0961
12492NA      NA38051   5.413   5.134   5.319 -0.0492  0.2327 -0.4286
12493NA      NA38052   2.693   0.874   1.750  0.1553  0.0785 -0.3149
12494NA      NA38053   0.592   6.427   4.505 -0.5183 -0.0705  0.2031
12495NA      NA38054   4.825   4.130   6.818  0.0276 -0.0544 -0.0049
12496NA      NA38055   5.814   5.737   6.561  0.5945  0.0220 -0.3133
12497NA      NA38056   6.541   5.139   1.102  0.2999  0.0832 -0.4976
12498NA      NA38057   1.049   1.081   5.059 -0.2521  0.3320  0.0576
12499NA      NA38058   5.823   1.722   2.186  0.2985  0.2903  0.0439
12500NA      NA38059   1.741   4.907   2.012  0.2117 -0.0668  0.0955
12501NA      NA38060   1.892   0.286   4.751 -0.3139  0.1159  0.5416
12502NA      NA38061   6.525   4.060   4.487 -0.2536  0.0330 -0.0889
12503NA      NA38062   3.152   7.053   2.417  0.1214  0.0402  0.1307
12504NA      NA38063   4.955   1.207   3.780 -0.4463 -0.1195  0.1120
12505NA      NA38064   1.592   6.528   3.476 -0.1474  0.2194  0.0083
12506NA      NA38065   5.714   0.769   6.170 -0.1397 -0.2435 -0.4941
12507NA      NA38066   2.368   1.783   6.969  0.5497 -0.2985 -0.0426
12508NA      NA38067   5.459   2.345   2.254  0.0546  0.0773 -0.2637
12509NA      NA38068   0.953   1.163   3.429 -0.1641  0.2840  0.5579
12510NA      NA38069   3.769   0.839   4.503 -0.1629  0.2070  0.3458
12511NA      NA38070   0.616   3.558   3.930 -0.2753  0.3924 -0.0322
12512NA      NA38071   3.293   5.337   5.654 -0.0548 -0.1568 -0.2246
12513NA      NA38072   3.622   7.112   4.966 -0.5916  0.3043 -0.1678
12514NA      NA38073   1.221   4.240   2.785 -0.3549 -0.3710  0.3233
12515NA      NA38074   6.851   5.322   2.937  0.3116 -0.2790 -0.2536
12516NA      NA38075   6.157   6.908   1.147 -0.5315 -0.3577  0.0284
12517NA      NA38076   4.677   6.113   6.583  0.0060  0.8070  0.2556
12518NA      NA38077   6.143   6.511   6.445  0.3329 -0.1103  0.6206
12519CL      CL38078   0.247   4.031   5.529  0.0662 -0.2570  0.0195
12520CL      CL38079   5.413   4.078   6.338 -0.1617  0.1444 -0.6772
12521CL      CL38080   5.515   2.936   3.448  0.2668  0.1220 -0.3636
12522CL      CL38081   6.950   6.642   1.822 -0.2083  0.3456  0.2866
12523CL      CL38082   2.946   0.465   2.820  0.2926  0.0011  0.2477
12524CL      CL38083   2.388   7.183   2.480  0.5896  1.1752  0.0178
12525CL      CL38084   1.652   1.233   2.610  0.2679 -0.1659  0.3025
12526CL      CL38085   4.677   1.789   5.728  0.0822  0.3626  0.0131
12527CL      CL38086   5.606   5.699   6.462 -0.2080 -0.2517 -0.2303
12528CL      CL38087   2.135   6.089   4.471 -0.0821 -0.3434  0.2763
12529CL      CL38088   0.712   1.113   3.479 -0.2692  0.3787 -0.2865
12530CL      CL38089   5.663   1.607   1.538 -0.1445  0.2401  0.0999
12531CL      CL38090   6.232   7.227   6.269 -0.3980 -0.4358 -0.3584
12532CL      CL38091   6.709   5.959   0.878 -0.1685  0.5750  0.0413
12533CL      CL38092   5.243   4.095   4.603 -0.2679  0.2334  0.0836
12534CL      CL38093   6.683   5.099   6.717 -0.3455 -0.1831  0.0043
12535CL      CL38094   4.409   5.594   4.367  0.1125  0.0515  0.0191
12536CL      CL38095   1.007   0.549   4.533  0.2097 -0.3500  0.1847
12537CL      CL38096   4.165   7.086   1.250 -0.2418  0.2123 -0.0825
12538CL      CL38097   4.086   5.168   6.254  0.0791  0.0034  0.2459
12539CL      CL38098   0.518   4.776   2.302  0.3625  0.7047  0.1187
12540CL      CL38099   1.424   0.512   1.905  0.0759 -0.1232 -0.4339
12541CL      CL38100   5.666   5.150   5.282  0.0809  0.3296 -0.2937
12542CL      CL38101   0.339   2.900   1.415 -0.1165  0.3097  0.4542
12543CL      CL38102   7.231   4.602   0.371 -0.0196  0.1880  0.0096
12544CL      CL38103   0.942   3.300   2.021 -0.0439  0.1682 -0.5966
12545CL      CL38104   3.312   0.698   4.707 -0.0282  0.2210 -0.3867
12546CL      CL38105   5.255   0.839   1.703 -0.1935 -0.2607  0.2256
12547CL      CL38106   1.438   6.340   3.487  0.1315  0.4161  0.0528
12548CL      CL38107   6.048   2.612   1.968 -0.1199 -0.0983  0.1929
12549CL      CL38108   4.667   6.332   2.615  0.7060  0.2393  0.0998
12550CL      CL38109   2.972   1.527   4.139  0.2423 -0.0376  0.2962
12551CL      CL38110   4.413   1.028   3.503 -0.0308 -0.2199  0.1881
12552CL      CL38111   0.282   2.629   5.328  0.2600 -0.0176 -0.1850
12553CL      CL38112   1.688   2.017   1.810  0.3035 -0.4522  0.4178
12554CL      CL38113   5.496   4.918   4.138 -0.2149  0.0081  0.4255
   7.25804   7.25804   7.25804
