;
;   File g5npncore_petim_betagalactose.itp  was generated
;   By user: sairam (1000)
;   On host: sairam
;   At date: Tue. September  2 18:34:56 2023
;
;   This is a standalone topology file
;
;   Created by:
;   ParmEd:       amb2gro_top_gro.py, VERSION 3.4.1
;   Executable:   amb2gro_top_gro.py
;   Library dir:  /usr/local/gromacs/share/gromacs/top
;   Command line:
;     ./amb2gro_top_gro.py -p g5npncore_petim_betagalactose.prmtop -c g5npncore_petim_betagalactose.inpcrd -t g5npncore_petim_betagalactose.itp -g g5npncore_petim_betagalactose.gro -b g5npncore_petim_betagalactose.pdb
;

;[ defaults ]
;; nbfunc        comb-rule       gen-pairs       fudgeLJ fudgeQQ
;1               2               yes             0.5          0.83333333  
;
;[ atomtypes ]
;; name    at.num    mass    charge ptype  sigma      epsilon
;n3             7  14.010000  0.00000000  A     0.32499985        0.71128
;c3             6  12.010000  0.00000000  A     0.33996695      0.4577296
;h1             1   1.008000  0.00000000  A      0.2471353      0.0656888
;hc             1   1.008000  0.00000000  A     0.26495328      0.0656888
;os             8  16.000000  0.00000000  A     0.30000123        0.71128
;h2             1   1.008000  0.00000000  A     0.22931733      0.0656888
;oh             8  16.000000  0.00000000  A     0.30664734      0.8803136
;ho             1   1.008000  0.00000000  A              0              0


[ moleculetype ]
; Name            nrexcl
g5npncore_petim_betagalactose       3

[ atoms ]
;   nr       type  resnr residue  atom   cgnr    charge       mass  typeB    chargeB      massB
; residue    1 aaa rtp aaa q 0.0
    1         n3      1    aaa     N1      1 -0.65416500  14.010000   ; qtot -0.654165
    2         c3      1    aaa     C1      2 0.05178400  12.010000   ; qtot -0.602381
    3         h1      1    aaa     H1      3 0.06475500   1.008000   ; qtot -0.537626
    4         h1      1    aaa     H2      4 0.06475500   1.008000   ; qtot -0.472871
    5         c3      1    aaa     C2      5 0.05178400  12.010000   ; qtot -0.421087
    6         h1      1    aaa     H3      6 0.06475500   1.008000   ; qtot -0.356332
    7         h1      1    aaa     H4      7 0.06475500   1.008000   ; qtot -0.291577
    8         c3      1    aaa     C3      8 0.05178400  12.010000   ; qtot -0.239793
    9         h1      1    aaa     H5      9 0.06475500   1.008000   ; qtot -0.175038
   10         h1      1    aaa     H6     10 0.06475500   1.008000   ; qtot -0.110283
   11         c3      1    aaa     C4     11 0.07871100  12.010000   ; qtot -0.031572
   12         hc      1    aaa     H7     12 0.08683700   1.008000   ; qtot 0.055265
   13         hc      1    aaa     H8     13 0.08683700   1.008000   ; qtot 0.142102
   14         c3      1    aaa     C5     14 0.07871100  12.010000   ; qtot 0.220813
   15         hc      1    aaa     H9     15 0.08683700   1.008000   ; qtot 0.307650
   16         hc      1    aaa    H10     16 0.08683700   1.008000   ; qtot 0.394487
   17         c3      1    aaa     C6     17 0.07871100  12.010000   ; qtot 0.473198
   18         hc      1    aaa    H11     18 0.08683700   1.008000   ; qtot 0.560035
   19         hc      1    aaa    H12     19 0.08683700   1.008000   ; qtot 0.646872
   20         c3      1    aaa     C7     20 -0.74941200  12.010000   ; qtot -0.102540
   21         h1      1    aaa    H13     21 0.26689400   1.008000   ; qtot 0.164354
   22         h1      1    aaa    H14     22 0.26689400   1.008000   ; qtot 0.431248
   23         c3      1    aaa     C8     23 -0.74941200  12.010000   ; qtot -0.318164
   24         h1      1    aaa    H15     24 0.26689400   1.008000   ; qtot -0.051270
   25         h1      1    aaa    H16     25 0.26689400   1.008000   ; qtot 0.215624
   26         c3      1    aaa     C9     26 -0.74941200  12.010000   ; qtot -0.533788
   27         h1      1    aaa    H17     27 0.26689400   1.008000   ; qtot -0.266894
   28         h1      1    aaa    H18     28 0.26689400   1.008000   ; qtot 0.000000
; residue    2 bbb rtp bbb q -0.0
   29         n3      2    bbb     N1     29 -0.59685800  14.010000   ; qtot -0.596858
   30         c3      2    bbb     C1     30 0.10137000  12.010000   ; qtot -0.495488
   31         h1      2    bbb     H1     31 0.04411300   1.008000   ; qtot -0.451375
   32         h1      2    bbb     H2     32 0.04411300   1.008000   ; qtot -0.407262
   33         c3      2    bbb     C2     33 0.10137000  12.010000   ; qtot -0.305892
   34         h1      2    bbb     H3     34 0.04411300   1.008000   ; qtot -0.261779
   35         h1      2    bbb     H4     35 0.04411300   1.008000   ; qtot -0.217666
   36         c3      2    bbb     C3     36 -0.00195300  12.010000   ; qtot -0.219619
   37         h1      2    bbb     H5     37 0.05064400   1.008000   ; qtot -0.168975
   38         h1      2    bbb     H6     38 0.05064400   1.008000   ; qtot -0.118331
   39         c3      2    bbb     C4     39 -0.01612100  12.010000   ; qtot -0.134452
   40         hc      2    bbb     H7     40 0.04936100   1.008000   ; qtot -0.085091
   41         hc      2    bbb     H8     41 0.04936100   1.008000   ; qtot -0.035730
   42         c3      2    bbb     C5     42 0.11363000  12.010000   ; qtot 0.077900
   43         hc      2    bbb     H9     43 0.06265900   1.008000   ; qtot 0.140559
   44         hc      2    bbb    H10     44 0.06265900   1.008000   ; qtot 0.203218
   45         c3      2    bbb     C6     45 0.11363000  12.010000   ; qtot 0.316848
   46         hc      2    bbb    H11     46 0.06265900   1.008000   ; qtot 0.379507
   47         hc      2    bbb    H12     47 0.06265900   1.008000   ; qtot 0.442166
   48         c3      2    bbb     C7     48 0.05858200  12.010000   ; qtot 0.500748
   49         h1      2    bbb    H13     49 0.06123400   1.008000   ; qtot 0.561982
   50         h1      2    bbb    H14     50 0.06123400   1.008000   ; qtot 0.623216
   51         c3      2    bbb     C8     51 -0.72423400  12.010000   ; qtot -0.101018
   52         h1      2    bbb    H15     52 0.25637600   1.008000   ; qtot 0.155358
   53         h1      2    bbb    H16     53 0.25637600   1.008000   ; qtot 0.411734
   54         c3      2    bbb     C9     54 -0.72423400  12.010000   ; qtot -0.312500
   55         h1      2    bbb    H17     55 0.25637600   1.008000   ; qtot -0.056124
   56         h1      2    bbb    H18     56 0.25637600   1.008000   ; qtot 0.200252
   57         os      2    bbb     O1     57 -0.20025300  16.000000   ; qtot -0.000001
; residue    3 bbb rtp bbb q -0.0
   58         n3      3    bbb     N1     58 -0.59685800  14.010000   ; qtot -0.596859
   59         c3      3    bbb     C1     59 0.10137000  12.010000   ; qtot -0.495489
   60         h1      3    bbb     H1     60 0.04411300   1.008000   ; qtot -0.451376
   61         h1      3    bbb     H2     61 0.04411300   1.008000   ; qtot -0.407263
   62         c3      3    bbb     C2     62 0.10137000  12.010000   ; qtot -0.305893
   63         h1      3    bbb     H3     63 0.04411300   1.008000   ; qtot -0.261780
   64         h1      3    bbb     H4     64 0.04411300   1.008000   ; qtot -0.217667
   65         c3      3    bbb     C3     65 -0.00195300  12.010000   ; qtot -0.219620
   66         h1      3    bbb     H5     66 0.05064400   1.008000   ; qtot -0.168976
   67         h1      3    bbb     H6     67 0.05064400   1.008000   ; qtot -0.118332
   68         c3      3    bbb     C4     68 -0.01612100  12.010000   ; qtot -0.134453
   69         hc      3    bbb     H7     69 0.04936100   1.008000   ; qtot -0.085092
   70         hc      3    bbb     H8     70 0.04936100   1.008000   ; qtot -0.035731
   71         c3      3    bbb     C5     71 0.11363000  12.010000   ; qtot 0.077899
   72         hc      3    bbb     H9     72 0.06265900   1.008000   ; qtot 0.140558
   73         hc      3    bbb    H10     73 0.06265900   1.008000   ; qtot 0.203217
   74         c3      3    bbb     C6     74 0.11363000  12.010000   ; qtot 0.316847
   75         hc      3    bbb    H11     75 0.06265900   1.008000   ; qtot 0.379506
   76         hc      3    bbb    H12     76 0.06265900   1.008000   ; qtot 0.442165
   77         c3      3    bbb     C7     77 0.05858200  12.010000   ; qtot 0.500747
   78         h1      3    bbb    H13     78 0.06123400   1.008000   ; qtot 0.561981
   79         h1      3    bbb    H14     79 0.06123400   1.008000   ; qtot 0.623215
   80         c3      3    bbb     C8     80 -0.72423400  12.010000   ; qtot -0.101019
   81         h1      3    bbb    H15     81 0.25637600   1.008000   ; qtot 0.155357
   82         h1      3    bbb    H16     82 0.25637600   1.008000   ; qtot 0.411733
   83         c3      3    bbb     C9     83 -0.72423400  12.010000   ; qtot -0.312501
   84         h1      3    bbb    H17     84 0.25637600   1.008000   ; qtot -0.056125
   85         h1      3    bbb    H18     85 0.25637600   1.008000   ; qtot 0.200251
   86         os      3    bbb     O1     86 -0.20025300  16.000000   ; qtot -0.000002
; residue    4 bbb rtp bbb q -0.0
   87         n3      4    bbb     N1     87 -0.59685800  14.010000   ; qtot -0.596860
   88         c3      4    bbb     C1     88 0.10137000  12.010000   ; qtot -0.495490
   89         h1      4    bbb     H1     89 0.04411300   1.008000   ; qtot -0.451377
   90         h1      4    bbb     H2     90 0.04411300   1.008000   ; qtot -0.407264
   91         c3      4    bbb     C2     91 0.10137000  12.010000   ; qtot -0.305894
   92         h1      4    bbb     H3     92 0.04411300   1.008000   ; qtot -0.261781
   93         h1      4    bbb     H4     93 0.04411300   1.008000   ; qtot -0.217668
   94         c3      4    bbb     C3     94 -0.00195300  12.010000   ; qtot -0.219621
   95         h1      4    bbb     H5     95 0.05064400   1.008000   ; qtot -0.168977
   96         h1      4    bbb     H6     96 0.05064400   1.008000   ; qtot -0.118333
   97         c3      4    bbb     C4     97 -0.01612100  12.010000   ; qtot -0.134454
   98         hc      4    bbb     H7     98 0.04936100   1.008000   ; qtot -0.085093
   99         hc      4    bbb     H8     99 0.04936100   1.008000   ; qtot -0.035732
  100         c3      4    bbb     C5    100 0.11363000  12.010000   ; qtot 0.077898
  101         hc      4    bbb     H9    101 0.06265900   1.008000   ; qtot 0.140557
  102         hc      4    bbb    H10    102 0.06265900   1.008000   ; qtot 0.203216
  103         c3      4    bbb     C6    103 0.11363000  12.010000   ; qtot 0.316846
  104         hc      4    bbb    H11    104 0.06265900   1.008000   ; qtot 0.379505
  105         hc      4    bbb    H12    105 0.06265900   1.008000   ; qtot 0.442164
  106         c3      4    bbb     C7    106 0.05858200  12.010000   ; qtot 0.500746
  107         h1      4    bbb    H13    107 0.06123400   1.008000   ; qtot 0.561980
  108         h1      4    bbb    H14    108 0.06123400   1.008000   ; qtot 0.623214
  109         c3      4    bbb     C8    109 -0.72423400  12.010000   ; qtot -0.101020
  110         h1      4    bbb    H15    110 0.25637600   1.008000   ; qtot 0.155356
  111         h1      4    bbb    H16    111 0.25637600   1.008000   ; qtot 0.411732
  112         c3      4    bbb     C9    112 -0.72423400  12.010000   ; qtot -0.312502
  113         h1      4    bbb    H17    113 0.25637600   1.008000   ; qtot -0.056126
  114         h1      4    bbb    H18    114 0.25637600   1.008000   ; qtot 0.200250
  115         os      4    bbb     O1    115 -0.20025300  16.000000   ; qtot -0.000003
; residue    5 bbb rtp bbb q -0.0
  116         n3      5    bbb     N1    116 -0.59685800  14.010000   ; qtot -0.596861
  117         c3      5    bbb     C1    117 0.10137000  12.010000   ; qtot -0.495491
  118         h1      5    bbb     H1    118 0.04411300   1.008000   ; qtot -0.451378
  119         h1      5    bbb     H2    119 0.04411300   1.008000   ; qtot -0.407265
  120         c3      5    bbb     C2    120 0.10137000  12.010000   ; qtot -0.305895
  121         h1      5    bbb     H3    121 0.04411300   1.008000   ; qtot -0.261782
  122         h1      5    bbb     H4    122 0.04411300   1.008000   ; qtot -0.217669
  123         c3      5    bbb     C3    123 -0.00195300  12.010000   ; qtot -0.219622
  124         h1      5    bbb     H5    124 0.05064400   1.008000   ; qtot -0.168978
  125         h1      5    bbb     H6    125 0.05064400   1.008000   ; qtot -0.118334
  126         c3      5    bbb     C4    126 -0.01612100  12.010000   ; qtot -0.134455
  127         hc      5    bbb     H7    127 0.04936100   1.008000   ; qtot -0.085094
  128         hc      5    bbb     H8    128 0.04936100   1.008000   ; qtot -0.035733
  129         c3      5    bbb     C5    129 0.11363000  12.010000   ; qtot 0.077897
  130         hc      5    bbb     H9    130 0.06265900   1.008000   ; qtot 0.140556
  131         hc      5    bbb    H10    131 0.06265900   1.008000   ; qtot 0.203215
  132         c3      5    bbb     C6    132 0.11363000  12.010000   ; qtot 0.316845
  133         hc      5    bbb    H11    133 0.06265900   1.008000   ; qtot 0.379504
  134         hc      5    bbb    H12    134 0.06265900   1.008000   ; qtot 0.442163
  135         c3      5    bbb     C7    135 0.05858200  12.010000   ; qtot 0.500745
  136         h1      5    bbb    H13    136 0.06123400   1.008000   ; qtot 0.561979
  137         h1      5    bbb    H14    137 0.06123400   1.008000   ; qtot 0.623213
  138         c3      5    bbb     C8    138 -0.72423400  12.010000   ; qtot -0.101021
  139         h1      5    bbb    H15    139 0.25637600   1.008000   ; qtot 0.155355
  140         h1      5    bbb    H16    140 0.25637600   1.008000   ; qtot 0.411731
  141         c3      5    bbb     C9    141 -0.72423400  12.010000   ; qtot -0.312503
  142         h1      5    bbb    H17    142 0.25637600   1.008000   ; qtot -0.056127
  143         h1      5    bbb    H18    143 0.25637600   1.008000   ; qtot 0.200249
  144         os      5    bbb     O1    144 -0.20025300  16.000000   ; qtot -0.000004
; residue    6 bbb rtp bbb q -0.0
  145         n3      6    bbb     N1    145 -0.59685800  14.010000   ; qtot -0.596862
  146         c3      6    bbb     C1    146 0.10137000  12.010000   ; qtot -0.495492
  147         h1      6    bbb     H1    147 0.04411300   1.008000   ; qtot -0.451379
  148         h1      6    bbb     H2    148 0.04411300   1.008000   ; qtot -0.407266
  149         c3      6    bbb     C2    149 0.10137000  12.010000   ; qtot -0.305896
  150         h1      6    bbb     H3    150 0.04411300   1.008000   ; qtot -0.261783
  151         h1      6    bbb     H4    151 0.04411300   1.008000   ; qtot -0.217670
  152         c3      6    bbb     C3    152 -0.00195300  12.010000   ; qtot -0.219623
  153         h1      6    bbb     H5    153 0.05064400   1.008000   ; qtot -0.168979
  154         h1      6    bbb     H6    154 0.05064400   1.008000   ; qtot -0.118335
  155         c3      6    bbb     C4    155 -0.01612100  12.010000   ; qtot -0.134456
  156         hc      6    bbb     H7    156 0.04936100   1.008000   ; qtot -0.085095
  157         hc      6    bbb     H8    157 0.04936100   1.008000   ; qtot -0.035734
  158         c3      6    bbb     C5    158 0.11363000  12.010000   ; qtot 0.077896
  159         hc      6    bbb     H9    159 0.06265900   1.008000   ; qtot 0.140555
  160         hc      6    bbb    H10    160 0.06265900   1.008000   ; qtot 0.203214
  161         c3      6    bbb     C6    161 0.11363000  12.010000   ; qtot 0.316844
  162         hc      6    bbb    H11    162 0.06265900   1.008000   ; qtot 0.379503
  163         hc      6    bbb    H12    163 0.06265900   1.008000   ; qtot 0.442162
  164         c3      6    bbb     C7    164 0.05858200  12.010000   ; qtot 0.500744
  165         h1      6    bbb    H13    165 0.06123400   1.008000   ; qtot 0.561978
  166         h1      6    bbb    H14    166 0.06123400   1.008000   ; qtot 0.623212
  167         c3      6    bbb     C8    167 -0.72423400  12.010000   ; qtot -0.101022
  168         h1      6    bbb    H15    168 0.25637600   1.008000   ; qtot 0.155354
  169         h1      6    bbb    H16    169 0.25637600   1.008000   ; qtot 0.411730
  170         c3      6    bbb     C9    170 -0.72423400  12.010000   ; qtot -0.312504
  171         h1      6    bbb    H17    171 0.25637600   1.008000   ; qtot -0.056128
  172         h1      6    bbb    H18    172 0.25637600   1.008000   ; qtot 0.200248
  173         os      6    bbb     O1    173 -0.20025300  16.000000   ; qtot -0.000005
; residue    7 bbb rtp bbb q -0.0
  174         n3      7    bbb     N1    174 -0.59685800  14.010000   ; qtot -0.596863
  175         c3      7    bbb     C1    175 0.10137000  12.010000   ; qtot -0.495493
  176         h1      7    bbb     H1    176 0.04411300   1.008000   ; qtot -0.451380
  177         h1      7    bbb     H2    177 0.04411300   1.008000   ; qtot -0.407267
  178         c3      7    bbb     C2    178 0.10137000  12.010000   ; qtot -0.305897
  179         h1      7    bbb     H3    179 0.04411300   1.008000   ; qtot -0.261784
  180         h1      7    bbb     H4    180 0.04411300   1.008000   ; qtot -0.217671
  181         c3      7    bbb     C3    181 -0.00195300  12.010000   ; qtot -0.219624
  182         h1      7    bbb     H5    182 0.05064400   1.008000   ; qtot -0.168980
  183         h1      7    bbb     H6    183 0.05064400   1.008000   ; qtot -0.118336
  184         c3      7    bbb     C4    184 -0.01612100  12.010000   ; qtot -0.134457
  185         hc      7    bbb     H7    185 0.04936100   1.008000   ; qtot -0.085096
  186         hc      7    bbb     H8    186 0.04936100   1.008000   ; qtot -0.035735
  187         c3      7    bbb     C5    187 0.11363000  12.010000   ; qtot 0.077895
  188         hc      7    bbb     H9    188 0.06265900   1.008000   ; qtot 0.140554
  189         hc      7    bbb    H10    189 0.06265900   1.008000   ; qtot 0.203213
  190         c3      7    bbb     C6    190 0.11363000  12.010000   ; qtot 0.316843
  191         hc      7    bbb    H11    191 0.06265900   1.008000   ; qtot 0.379502
  192         hc      7    bbb    H12    192 0.06265900   1.008000   ; qtot 0.442161
  193         c3      7    bbb     C7    193 0.05858200  12.010000   ; qtot 0.500743
  194         h1      7    bbb    H13    194 0.06123400   1.008000   ; qtot 0.561977
  195         h1      7    bbb    H14    195 0.06123400   1.008000   ; qtot 0.623211
  196         c3      7    bbb     C8    196 -0.72423400  12.010000   ; qtot -0.101023
  197         h1      7    bbb    H15    197 0.25637600   1.008000   ; qtot 0.155353
  198         h1      7    bbb    H16    198 0.25637600   1.008000   ; qtot 0.411729
  199         c3      7    bbb     C9    199 -0.72423400  12.010000   ; qtot -0.312505
  200         h1      7    bbb    H17    200 0.25637600   1.008000   ; qtot -0.056129
  201         h1      7    bbb    H18    201 0.25637600   1.008000   ; qtot 0.200247
  202         os      7    bbb     O1    202 -0.20025300  16.000000   ; qtot -0.000006
; residue    8 bbb rtp bbb q -0.0
  203         n3      8    bbb     N1    203 -0.59685800  14.010000   ; qtot -0.596864
  204         c3      8    bbb     C1    204 0.10137000  12.010000   ; qtot -0.495494
  205         h1      8    bbb     H1    205 0.04411300   1.008000   ; qtot -0.451381
  206         h1      8    bbb     H2    206 0.04411300   1.008000   ; qtot -0.407268
  207         c3      8    bbb     C2    207 0.10137000  12.010000   ; qtot -0.305898
  208         h1      8    bbb     H3    208 0.04411300   1.008000   ; qtot -0.261785
  209         h1      8    bbb     H4    209 0.04411300   1.008000   ; qtot -0.217672
  210         c3      8    bbb     C3    210 -0.00195300  12.010000   ; qtot -0.219625
  211         h1      8    bbb     H5    211 0.05064400   1.008000   ; qtot -0.168981
  212         h1      8    bbb     H6    212 0.05064400   1.008000   ; qtot -0.118337
  213         c3      8    bbb     C4    213 -0.01612100  12.010000   ; qtot -0.134458
  214         hc      8    bbb     H7    214 0.04936100   1.008000   ; qtot -0.085097
  215         hc      8    bbb     H8    215 0.04936100   1.008000   ; qtot -0.035736
  216         c3      8    bbb     C5    216 0.11363000  12.010000   ; qtot 0.077894
  217         hc      8    bbb     H9    217 0.06265900   1.008000   ; qtot 0.140553
  218         hc      8    bbb    H10    218 0.06265900   1.008000   ; qtot 0.203212
  219         c3      8    bbb     C6    219 0.11363000  12.010000   ; qtot 0.316842
  220         hc      8    bbb    H11    220 0.06265900   1.008000   ; qtot 0.379501
  221         hc      8    bbb    H12    221 0.06265900   1.008000   ; qtot 0.442160
  222         c3      8    bbb     C7    222 0.05858200  12.010000   ; qtot 0.500742
  223         h1      8    bbb    H13    223 0.06123400   1.008000   ; qtot 0.561976
  224         h1      8    bbb    H14    224 0.06123400   1.008000   ; qtot 0.623210
  225         c3      8    bbb     C8    225 -0.72423400  12.010000   ; qtot -0.101024
  226         h1      8    bbb    H15    226 0.25637600   1.008000   ; qtot 0.155352
  227         h1      8    bbb    H16    227 0.25637600   1.008000   ; qtot 0.411728
  228         c3      8    bbb     C9    228 -0.72423400  12.010000   ; qtot -0.312506
  229         h1      8    bbb    H17    229 0.25637600   1.008000   ; qtot -0.056130
  230         h1      8    bbb    H18    230 0.25637600   1.008000   ; qtot 0.200246
  231         os      8    bbb     O1    231 -0.20025300  16.000000   ; qtot -0.000007
; residue    9 bbb rtp bbb q -0.0
  232         n3      9    bbb     N1    232 -0.59685800  14.010000   ; qtot -0.596865
  233         c3      9    bbb     C1    233 0.10137000  12.010000   ; qtot -0.495495
  234         h1      9    bbb     H1    234 0.04411300   1.008000   ; qtot -0.451382
  235         h1      9    bbb     H2    235 0.04411300   1.008000   ; qtot -0.407269
  236         c3      9    bbb     C2    236 0.10137000  12.010000   ; qtot -0.305899
  237         h1      9    bbb     H3    237 0.04411300   1.008000   ; qtot -0.261786
  238         h1      9    bbb     H4    238 0.04411300   1.008000   ; qtot -0.217673
  239         c3      9    bbb     C3    239 -0.00195300  12.010000   ; qtot -0.219626
  240         h1      9    bbb     H5    240 0.05064400   1.008000   ; qtot -0.168982
  241         h1      9    bbb     H6    241 0.05064400   1.008000   ; qtot -0.118338
  242         c3      9    bbb     C4    242 -0.01612100  12.010000   ; qtot -0.134459
  243         hc      9    bbb     H7    243 0.04936100   1.008000   ; qtot -0.085098
  244         hc      9    bbb     H8    244 0.04936100   1.008000   ; qtot -0.035737
  245         c3      9    bbb     C5    245 0.11363000  12.010000   ; qtot 0.077893
  246         hc      9    bbb     H9    246 0.06265900   1.008000   ; qtot 0.140552
  247         hc      9    bbb    H10    247 0.06265900   1.008000   ; qtot 0.203211
  248         c3      9    bbb     C6    248 0.11363000  12.010000   ; qtot 0.316841
  249         hc      9    bbb    H11    249 0.06265900   1.008000   ; qtot 0.379500
  250         hc      9    bbb    H12    250 0.06265900   1.008000   ; qtot 0.442159
  251         c3      9    bbb     C7    251 0.05858200  12.010000   ; qtot 0.500741
  252         h1      9    bbb    H13    252 0.06123400   1.008000   ; qtot 0.561975
  253         h1      9    bbb    H14    253 0.06123400   1.008000   ; qtot 0.623209
  254         c3      9    bbb     C8    254 -0.72423400  12.010000   ; qtot -0.101025
  255         h1      9    bbb    H15    255 0.25637600   1.008000   ; qtot 0.155351
  256         h1      9    bbb    H16    256 0.25637600   1.008000   ; qtot 0.411727
  257         c3      9    bbb     C9    257 -0.72423400  12.010000   ; qtot -0.312507
  258         h1      9    bbb    H17    258 0.25637600   1.008000   ; qtot -0.056131
  259         h1      9    bbb    H18    259 0.25637600   1.008000   ; qtot 0.200245
  260         os      9    bbb     O1    260 -0.20025300  16.000000   ; qtot -0.000008
; residue   10 bbb rtp bbb q -0.0
  261         n3     10    bbb     N1    261 -0.59685800  14.010000   ; qtot -0.596866
  262         c3     10    bbb     C1    262 0.10137000  12.010000   ; qtot -0.495496
  263         h1     10    bbb     H1    263 0.04411300   1.008000   ; qtot -0.451383
  264         h1     10    bbb     H2    264 0.04411300   1.008000   ; qtot -0.407270
  265         c3     10    bbb     C2    265 0.10137000  12.010000   ; qtot -0.305900
  266         h1     10    bbb     H3    266 0.04411300   1.008000   ; qtot -0.261787
  267         h1     10    bbb     H4    267 0.04411300   1.008000   ; qtot -0.217674
  268         c3     10    bbb     C3    268 -0.00195300  12.010000   ; qtot -0.219627
  269         h1     10    bbb     H5    269 0.05064400   1.008000   ; qtot -0.168983
  270         h1     10    bbb     H6    270 0.05064400   1.008000   ; qtot -0.118339
  271         c3     10    bbb     C4    271 -0.01612100  12.010000   ; qtot -0.134460
  272         hc     10    bbb     H7    272 0.04936100   1.008000   ; qtot -0.085099
  273         hc     10    bbb     H8    273 0.04936100   1.008000   ; qtot -0.035738
  274         c3     10    bbb     C5    274 0.11363000  12.010000   ; qtot 0.077892
  275         hc     10    bbb     H9    275 0.06265900   1.008000   ; qtot 0.140551
  276         hc     10    bbb    H10    276 0.06265900   1.008000   ; qtot 0.203210
  277         c3     10    bbb     C6    277 0.11363000  12.010000   ; qtot 0.316840
  278         hc     10    bbb    H11    278 0.06265900   1.008000   ; qtot 0.379499
  279         hc     10    bbb    H12    279 0.06265900   1.008000   ; qtot 0.442158
  280         c3     10    bbb     C7    280 0.05858200  12.010000   ; qtot 0.500740
  281         h1     10    bbb    H13    281 0.06123400   1.008000   ; qtot 0.561974
  282         h1     10    bbb    H14    282 0.06123400   1.008000   ; qtot 0.623208
  283         c3     10    bbb     C8    283 -0.72423400  12.010000   ; qtot -0.101026
  284         h1     10    bbb    H15    284 0.25637600   1.008000   ; qtot 0.155350
  285         h1     10    bbb    H16    285 0.25637600   1.008000   ; qtot 0.411726
  286         c3     10    bbb     C9    286 -0.72423400  12.010000   ; qtot -0.312508
  287         h1     10    bbb    H17    287 0.25637600   1.008000   ; qtot -0.056132
  288         h1     10    bbb    H18    288 0.25637600   1.008000   ; qtot 0.200244
  289         os     10    bbb     O1    289 -0.20025300  16.000000   ; qtot -0.000009
; residue   11 bbb rtp bbb q -0.0
  290         n3     11    bbb     N1    290 -0.59685800  14.010000   ; qtot -0.596867
  291         c3     11    bbb     C1    291 0.10137000  12.010000   ; qtot -0.495497
  292         h1     11    bbb     H1    292 0.04411300   1.008000   ; qtot -0.451384
  293         h1     11    bbb     H2    293 0.04411300   1.008000   ; qtot -0.407271
  294         c3     11    bbb     C2    294 0.10137000  12.010000   ; qtot -0.305901
  295         h1     11    bbb     H3    295 0.04411300   1.008000   ; qtot -0.261788
  296         h1     11    bbb     H4    296 0.04411300   1.008000   ; qtot -0.217675
  297         c3     11    bbb     C3    297 -0.00195300  12.010000   ; qtot -0.219628
  298         h1     11    bbb     H5    298 0.05064400   1.008000   ; qtot -0.168984
  299         h1     11    bbb     H6    299 0.05064400   1.008000   ; qtot -0.118340
  300         c3     11    bbb     C4    300 -0.01612100  12.010000   ; qtot -0.134461
  301         hc     11    bbb     H7    301 0.04936100   1.008000   ; qtot -0.085100
  302         hc     11    bbb     H8    302 0.04936100   1.008000   ; qtot -0.035739
  303         c3     11    bbb     C5    303 0.11363000  12.010000   ; qtot 0.077891
  304         hc     11    bbb     H9    304 0.06265900   1.008000   ; qtot 0.140550
  305         hc     11    bbb    H10    305 0.06265900   1.008000   ; qtot 0.203209
  306         c3     11    bbb     C6    306 0.11363000  12.010000   ; qtot 0.316839
  307         hc     11    bbb    H11    307 0.06265900   1.008000   ; qtot 0.379498
  308         hc     11    bbb    H12    308 0.06265900   1.008000   ; qtot 0.442157
  309         c3     11    bbb     C7    309 0.05858200  12.010000   ; qtot 0.500739
  310         h1     11    bbb    H13    310 0.06123400   1.008000   ; qtot 0.561973
  311         h1     11    bbb    H14    311 0.06123400   1.008000   ; qtot 0.623207
  312         c3     11    bbb     C8    312 -0.72423400  12.010000   ; qtot -0.101027
  313         h1     11    bbb    H15    313 0.25637600   1.008000   ; qtot 0.155349
  314         h1     11    bbb    H16    314 0.25637600   1.008000   ; qtot 0.411725
  315         c3     11    bbb     C9    315 -0.72423400  12.010000   ; qtot -0.312509
  316         h1     11    bbb    H17    316 0.25637600   1.008000   ; qtot -0.056133
  317         h1     11    bbb    H18    317 0.25637600   1.008000   ; qtot 0.200243
  318         os     11    bbb     O1    318 -0.20025300  16.000000   ; qtot -0.000010
; residue   12 bbb rtp bbb q -0.0
  319         n3     12    bbb     N1    319 -0.59685800  14.010000   ; qtot -0.596868
  320         c3     12    bbb     C1    320 0.10137000  12.010000   ; qtot -0.495498
  321         h1     12    bbb     H1    321 0.04411300   1.008000   ; qtot -0.451385
  322         h1     12    bbb     H2    322 0.04411300   1.008000   ; qtot -0.407272
  323         c3     12    bbb     C2    323 0.10137000  12.010000   ; qtot -0.305902
  324         h1     12    bbb     H3    324 0.04411300   1.008000   ; qtot -0.261789
  325         h1     12    bbb     H4    325 0.04411300   1.008000   ; qtot -0.217676
  326         c3     12    bbb     C3    326 -0.00195300  12.010000   ; qtot -0.219629
  327         h1     12    bbb     H5    327 0.05064400   1.008000   ; qtot -0.168985
  328         h1     12    bbb     H6    328 0.05064400   1.008000   ; qtot -0.118341
  329         c3     12    bbb     C4    329 -0.01612100  12.010000   ; qtot -0.134462
  330         hc     12    bbb     H7    330 0.04936100   1.008000   ; qtot -0.085101
  331         hc     12    bbb     H8    331 0.04936100   1.008000   ; qtot -0.035740
  332         c3     12    bbb     C5    332 0.11363000  12.010000   ; qtot 0.077890
  333         hc     12    bbb     H9    333 0.06265900   1.008000   ; qtot 0.140549
  334         hc     12    bbb    H10    334 0.06265900   1.008000   ; qtot 0.203208
  335         c3     12    bbb     C6    335 0.11363000  12.010000   ; qtot 0.316838
  336         hc     12    bbb    H11    336 0.06265900   1.008000   ; qtot 0.379497
  337         hc     12    bbb    H12    337 0.06265900   1.008000   ; qtot 0.442156
  338         c3     12    bbb     C7    338 0.05858200  12.010000   ; qtot 0.500738
  339         h1     12    bbb    H13    339 0.06123400   1.008000   ; qtot 0.561972
  340         h1     12    bbb    H14    340 0.06123400   1.008000   ; qtot 0.623206
  341         c3     12    bbb     C8    341 -0.72423400  12.010000   ; qtot -0.101028
  342         h1     12    bbb    H15    342 0.25637600   1.008000   ; qtot 0.155348
  343         h1     12    bbb    H16    343 0.25637600   1.008000   ; qtot 0.411724
  344         c3     12    bbb     C9    344 -0.72423400  12.010000   ; qtot -0.312510
  345         h1     12    bbb    H17    345 0.25637600   1.008000   ; qtot -0.056134
  346         h1     12    bbb    H18    346 0.25637600   1.008000   ; qtot 0.200242
  347         os     12    bbb     O1    347 -0.20025300  16.000000   ; qtot -0.000011
; residue   13 bbb rtp bbb q -0.0
  348         n3     13    bbb     N1    348 -0.59685800  14.010000   ; qtot -0.596869
  349         c3     13    bbb     C1    349 0.10137000  12.010000   ; qtot -0.495499
  350         h1     13    bbb     H1    350 0.04411300   1.008000   ; qtot -0.451386
  351         h1     13    bbb     H2    351 0.04411300   1.008000   ; qtot -0.407273
  352         c3     13    bbb     C2    352 0.10137000  12.010000   ; qtot -0.305903
  353         h1     13    bbb     H3    353 0.04411300   1.008000   ; qtot -0.261790
  354         h1     13    bbb     H4    354 0.04411300   1.008000   ; qtot -0.217677
  355         c3     13    bbb     C3    355 -0.00195300  12.010000   ; qtot -0.219630
  356         h1     13    bbb     H5    356 0.05064400   1.008000   ; qtot -0.168986
  357         h1     13    bbb     H6    357 0.05064400   1.008000   ; qtot -0.118342
  358         c3     13    bbb     C4    358 -0.01612100  12.010000   ; qtot -0.134463
  359         hc     13    bbb     H7    359 0.04936100   1.008000   ; qtot -0.085102
  360         hc     13    bbb     H8    360 0.04936100   1.008000   ; qtot -0.035741
  361         c3     13    bbb     C5    361 0.11363000  12.010000   ; qtot 0.077889
  362         hc     13    bbb     H9    362 0.06265900   1.008000   ; qtot 0.140548
  363         hc     13    bbb    H10    363 0.06265900   1.008000   ; qtot 0.203207
  364         c3     13    bbb     C6    364 0.11363000  12.010000   ; qtot 0.316837
  365         hc     13    bbb    H11    365 0.06265900   1.008000   ; qtot 0.379496
  366         hc     13    bbb    H12    366 0.06265900   1.008000   ; qtot 0.442155
  367         c3     13    bbb     C7    367 0.05858200  12.010000   ; qtot 0.500737
  368         h1     13    bbb    H13    368 0.06123400   1.008000   ; qtot 0.561971
  369         h1     13    bbb    H14    369 0.06123400   1.008000   ; qtot 0.623205
  370         c3     13    bbb     C8    370 -0.72423400  12.010000   ; qtot -0.101029
  371         h1     13    bbb    H15    371 0.25637600   1.008000   ; qtot 0.155347
  372         h1     13    bbb    H16    372 0.25637600   1.008000   ; qtot 0.411723
  373         c3     13    bbb     C9    373 -0.72423400  12.010000   ; qtot -0.312511
  374         h1     13    bbb    H17    374 0.25637600   1.008000   ; qtot -0.056135
  375         h1     13    bbb    H18    375 0.25637600   1.008000   ; qtot 0.200241
  376         os     13    bbb     O1    376 -0.20025300  16.000000   ; qtot -0.000012
; residue   14 bbb rtp bbb q -0.0
  377         n3     14    bbb     N1    377 -0.59685800  14.010000   ; qtot -0.596870
  378         c3     14    bbb     C1    378 0.10137000  12.010000   ; qtot -0.495500
  379         h1     14    bbb     H1    379 0.04411300   1.008000   ; qtot -0.451387
  380         h1     14    bbb     H2    380 0.04411300   1.008000   ; qtot -0.407274
  381         c3     14    bbb     C2    381 0.10137000  12.010000   ; qtot -0.305904
  382         h1     14    bbb     H3    382 0.04411300   1.008000   ; qtot -0.261791
  383         h1     14    bbb     H4    383 0.04411300   1.008000   ; qtot -0.217678
  384         c3     14    bbb     C3    384 -0.00195300  12.010000   ; qtot -0.219631
  385         h1     14    bbb     H5    385 0.05064400   1.008000   ; qtot -0.168987
  386         h1     14    bbb     H6    386 0.05064400   1.008000   ; qtot -0.118343
  387         c3     14    bbb     C4    387 -0.01612100  12.010000   ; qtot -0.134464
  388         hc     14    bbb     H7    388 0.04936100   1.008000   ; qtot -0.085103
  389         hc     14    bbb     H8    389 0.04936100   1.008000   ; qtot -0.035742
  390         c3     14    bbb     C5    390 0.11363000  12.010000   ; qtot 0.077888
  391         hc     14    bbb     H9    391 0.06265900   1.008000   ; qtot 0.140547
  392         hc     14    bbb    H10    392 0.06265900   1.008000   ; qtot 0.203206
  393         c3     14    bbb     C6    393 0.11363000  12.010000   ; qtot 0.316836
  394         hc     14    bbb    H11    394 0.06265900   1.008000   ; qtot 0.379495
  395         hc     14    bbb    H12    395 0.06265900   1.008000   ; qtot 0.442154
  396         c3     14    bbb     C7    396 0.05858200  12.010000   ; qtot 0.500736
  397         h1     14    bbb    H13    397 0.06123400   1.008000   ; qtot 0.561970
  398         h1     14    bbb    H14    398 0.06123400   1.008000   ; qtot 0.623204
  399         c3     14    bbb     C8    399 -0.72423400  12.010000   ; qtot -0.101030
  400         h1     14    bbb    H15    400 0.25637600   1.008000   ; qtot 0.155346
  401         h1     14    bbb    H16    401 0.25637600   1.008000   ; qtot 0.411722
  402         c3     14    bbb     C9    402 -0.72423400  12.010000   ; qtot -0.312512
  403         h1     14    bbb    H17    403 0.25637600   1.008000   ; qtot -0.056136
  404         h1     14    bbb    H18    404 0.25637600   1.008000   ; qtot 0.200240
  405         os     14    bbb     O1    405 -0.20025300  16.000000   ; qtot -0.000013
; residue   15 bbb rtp bbb q -0.0
  406         n3     15    bbb     N1    406 -0.59685800  14.010000   ; qtot -0.596871
  407         c3     15    bbb     C1    407 0.10137000  12.010000   ; qtot -0.495501
  408         h1     15    bbb     H1    408 0.04411300   1.008000   ; qtot -0.451388
  409         h1     15    bbb     H2    409 0.04411300   1.008000   ; qtot -0.407275
  410         c3     15    bbb     C2    410 0.10137000  12.010000   ; qtot -0.305905
  411         h1     15    bbb     H3    411 0.04411300   1.008000   ; qtot -0.261792
  412         h1     15    bbb     H4    412 0.04411300   1.008000   ; qtot -0.217679
  413         c3     15    bbb     C3    413 -0.00195300  12.010000   ; qtot -0.219632
  414         h1     15    bbb     H5    414 0.05064400   1.008000   ; qtot -0.168988
  415         h1     15    bbb     H6    415 0.05064400   1.008000   ; qtot -0.118344
  416         c3     15    bbb     C4    416 -0.01612100  12.010000   ; qtot -0.134465
  417         hc     15    bbb     H7    417 0.04936100   1.008000   ; qtot -0.085104
  418         hc     15    bbb     H8    418 0.04936100   1.008000   ; qtot -0.035743
  419         c3     15    bbb     C5    419 0.11363000  12.010000   ; qtot 0.077887
  420         hc     15    bbb     H9    420 0.06265900   1.008000   ; qtot 0.140546
  421         hc     15    bbb    H10    421 0.06265900   1.008000   ; qtot 0.203205
  422         c3     15    bbb     C6    422 0.11363000  12.010000   ; qtot 0.316835
  423         hc     15    bbb    H11    423 0.06265900   1.008000   ; qtot 0.379494
  424         hc     15    bbb    H12    424 0.06265900   1.008000   ; qtot 0.442153
  425         c3     15    bbb     C7    425 0.05858200  12.010000   ; qtot 0.500735
  426         h1     15    bbb    H13    426 0.06123400   1.008000   ; qtot 0.561969
  427         h1     15    bbb    H14    427 0.06123400   1.008000   ; qtot 0.623203
  428         c3     15    bbb     C8    428 -0.72423400  12.010000   ; qtot -0.101031
  429         h1     15    bbb    H15    429 0.25637600   1.008000   ; qtot 0.155345
  430         h1     15    bbb    H16    430 0.25637600   1.008000   ; qtot 0.411721
  431         c3     15    bbb     C9    431 -0.72423400  12.010000   ; qtot -0.312513
  432         h1     15    bbb    H17    432 0.25637600   1.008000   ; qtot -0.056137
  433         h1     15    bbb    H18    433 0.25637600   1.008000   ; qtot 0.200239
  434         os     15    bbb     O1    434 -0.20025300  16.000000   ; qtot -0.000014
; residue   16 bbb rtp bbb q -0.0
  435         n3     16    bbb     N1    435 -0.59685800  14.010000   ; qtot -0.596872
  436         c3     16    bbb     C1    436 0.10137000  12.010000   ; qtot -0.495502
  437         h1     16    bbb     H1    437 0.04411300   1.008000   ; qtot -0.451389
  438         h1     16    bbb     H2    438 0.04411300   1.008000   ; qtot -0.407276
  439         c3     16    bbb     C2    439 0.10137000  12.010000   ; qtot -0.305906
  440         h1     16    bbb     H3    440 0.04411300   1.008000   ; qtot -0.261793
  441         h1     16    bbb     H4    441 0.04411300   1.008000   ; qtot -0.217680
  442         c3     16    bbb     C3    442 -0.00195300  12.010000   ; qtot -0.219633
  443         h1     16    bbb     H5    443 0.05064400   1.008000   ; qtot -0.168989
  444         h1     16    bbb     H6    444 0.05064400   1.008000   ; qtot -0.118345
  445         c3     16    bbb     C4    445 -0.01612100  12.010000   ; qtot -0.134466
  446         hc     16    bbb     H7    446 0.04936100   1.008000   ; qtot -0.085105
  447         hc     16    bbb     H8    447 0.04936100   1.008000   ; qtot -0.035744
  448         c3     16    bbb     C5    448 0.11363000  12.010000   ; qtot 0.077886
  449         hc     16    bbb     H9    449 0.06265900   1.008000   ; qtot 0.140545
  450         hc     16    bbb    H10    450 0.06265900   1.008000   ; qtot 0.203204
  451         c3     16    bbb     C6    451 0.11363000  12.010000   ; qtot 0.316834
  452         hc     16    bbb    H11    452 0.06265900   1.008000   ; qtot 0.379493
  453         hc     16    bbb    H12    453 0.06265900   1.008000   ; qtot 0.442152
  454         c3     16    bbb     C7    454 0.05858200  12.010000   ; qtot 0.500734
  455         h1     16    bbb    H13    455 0.06123400   1.008000   ; qtot 0.561968
  456         h1     16    bbb    H14    456 0.06123400   1.008000   ; qtot 0.623202
  457         c3     16    bbb     C8    457 -0.72423400  12.010000   ; qtot -0.101032
  458         h1     16    bbb    H15    458 0.25637600   1.008000   ; qtot 0.155344
  459         h1     16    bbb    H16    459 0.25637600   1.008000   ; qtot 0.411720
  460         c3     16    bbb     C9    460 -0.72423400  12.010000   ; qtot -0.312514
  461         h1     16    bbb    H17    461 0.25637600   1.008000   ; qtot -0.056138
  462         h1     16    bbb    H18    462 0.25637600   1.008000   ; qtot 0.200238
  463         os     16    bbb     O1    463 -0.20025300  16.000000   ; qtot -0.000015
; residue   17 bbb rtp bbb q -0.0
  464         n3     17    bbb     N1    464 -0.59685800  14.010000   ; qtot -0.596873
  465         c3     17    bbb     C1    465 0.10137000  12.010000   ; qtot -0.495503
  466         h1     17    bbb     H1    466 0.04411300   1.008000   ; qtot -0.451390
  467         h1     17    bbb     H2    467 0.04411300   1.008000   ; qtot -0.407277
  468         c3     17    bbb     C2    468 0.10137000  12.010000   ; qtot -0.305907
  469         h1     17    bbb     H3    469 0.04411300   1.008000   ; qtot -0.261794
  470         h1     17    bbb     H4    470 0.04411300   1.008000   ; qtot -0.217681
  471         c3     17    bbb     C3    471 -0.00195300  12.010000   ; qtot -0.219634
  472         h1     17    bbb     H5    472 0.05064400   1.008000   ; qtot -0.168990
  473         h1     17    bbb     H6    473 0.05064400   1.008000   ; qtot -0.118346
  474         c3     17    bbb     C4    474 -0.01612100  12.010000   ; qtot -0.134467
  475         hc     17    bbb     H7    475 0.04936100   1.008000   ; qtot -0.085106
  476         hc     17    bbb     H8    476 0.04936100   1.008000   ; qtot -0.035745
  477         c3     17    bbb     C5    477 0.11363000  12.010000   ; qtot 0.077885
  478         hc     17    bbb     H9    478 0.06265900   1.008000   ; qtot 0.140544
  479         hc     17    bbb    H10    479 0.06265900   1.008000   ; qtot 0.203203
  480         c3     17    bbb     C6    480 0.11363000  12.010000   ; qtot 0.316833
  481         hc     17    bbb    H11    481 0.06265900   1.008000   ; qtot 0.379492
  482         hc     17    bbb    H12    482 0.06265900   1.008000   ; qtot 0.442151
  483         c3     17    bbb     C7    483 0.05858200  12.010000   ; qtot 0.500733
  484         h1     17    bbb    H13    484 0.06123400   1.008000   ; qtot 0.561967
  485         h1     17    bbb    H14    485 0.06123400   1.008000   ; qtot 0.623201
  486         c3     17    bbb     C8    486 -0.72423400  12.010000   ; qtot -0.101033
  487         h1     17    bbb    H15    487 0.25637600   1.008000   ; qtot 0.155343
  488         h1     17    bbb    H16    488 0.25637600   1.008000   ; qtot 0.411719
  489         c3     17    bbb     C9    489 -0.72423400  12.010000   ; qtot -0.312515
  490         h1     17    bbb    H17    490 0.25637600   1.008000   ; qtot -0.056139
  491         h1     17    bbb    H18    491 0.25637600   1.008000   ; qtot 0.200237
  492         os     17    bbb     O1    492 -0.20025300  16.000000   ; qtot -0.000016
; residue   18 bbb rtp bbb q -0.0
  493         n3     18    bbb     N1    493 -0.59685800  14.010000   ; qtot -0.596874
  494         c3     18    bbb     C1    494 0.10137000  12.010000   ; qtot -0.495504
  495         h1     18    bbb     H1    495 0.04411300   1.008000   ; qtot -0.451391
  496         h1     18    bbb     H2    496 0.04411300   1.008000   ; qtot -0.407278
  497         c3     18    bbb     C2    497 0.10137000  12.010000   ; qtot -0.305908
  498         h1     18    bbb     H3    498 0.04411300   1.008000   ; qtot -0.261795
  499         h1     18    bbb     H4    499 0.04411300   1.008000   ; qtot -0.217682
  500         c3     18    bbb     C3    500 -0.00195300  12.010000   ; qtot -0.219635
  501         h1     18    bbb     H5    501 0.05064400   1.008000   ; qtot -0.168991
  502         h1     18    bbb     H6    502 0.05064400   1.008000   ; qtot -0.118347
  503         c3     18    bbb     C4    503 -0.01612100  12.010000   ; qtot -0.134468
  504         hc     18    bbb     H7    504 0.04936100   1.008000   ; qtot -0.085107
  505         hc     18    bbb     H8    505 0.04936100   1.008000   ; qtot -0.035746
  506         c3     18    bbb     C5    506 0.11363000  12.010000   ; qtot 0.077884
  507         hc     18    bbb     H9    507 0.06265900   1.008000   ; qtot 0.140543
  508         hc     18    bbb    H10    508 0.06265900   1.008000   ; qtot 0.203202
  509         c3     18    bbb     C6    509 0.11363000  12.010000   ; qtot 0.316832
  510         hc     18    bbb    H11    510 0.06265900   1.008000   ; qtot 0.379491
  511         hc     18    bbb    H12    511 0.06265900   1.008000   ; qtot 0.442150
  512         c3     18    bbb     C7    512 0.05858200  12.010000   ; qtot 0.500732
  513         h1     18    bbb    H13    513 0.06123400   1.008000   ; qtot 0.561966
  514         h1     18    bbb    H14    514 0.06123400   1.008000   ; qtot 0.623200
  515         c3     18    bbb     C8    515 -0.72423400  12.010000   ; qtot -0.101034
  516         h1     18    bbb    H15    516 0.25637600   1.008000   ; qtot 0.155342
  517         h1     18    bbb    H16    517 0.25637600   1.008000   ; qtot 0.411718
  518         c3     18    bbb     C9    518 -0.72423400  12.010000   ; qtot -0.312516
  519         h1     18    bbb    H17    519 0.25637600   1.008000   ; qtot -0.056140
  520         h1     18    bbb    H18    520 0.25637600   1.008000   ; qtot 0.200236
  521         os     18    bbb     O1    521 -0.20025300  16.000000   ; qtot -0.000017
; residue   19 bbb rtp bbb q -0.0
  522         n3     19    bbb     N1    522 -0.59685800  14.010000   ; qtot -0.596875
  523         c3     19    bbb     C1    523 0.10137000  12.010000   ; qtot -0.495505
  524         h1     19    bbb     H1    524 0.04411300   1.008000   ; qtot -0.451392
  525         h1     19    bbb     H2    525 0.04411300   1.008000   ; qtot -0.407279
  526         c3     19    bbb     C2    526 0.10137000  12.010000   ; qtot -0.305909
  527         h1     19    bbb     H3    527 0.04411300   1.008000   ; qtot -0.261796
  528         h1     19    bbb     H4    528 0.04411300   1.008000   ; qtot -0.217683
  529         c3     19    bbb     C3    529 -0.00195300  12.010000   ; qtot -0.219636
  530         h1     19    bbb     H5    530 0.05064400   1.008000   ; qtot -0.168992
  531         h1     19    bbb     H6    531 0.05064400   1.008000   ; qtot -0.118348
  532         c3     19    bbb     C4    532 -0.01612100  12.010000   ; qtot -0.134469
  533         hc     19    bbb     H7    533 0.04936100   1.008000   ; qtot -0.085108
  534         hc     19    bbb     H8    534 0.04936100   1.008000   ; qtot -0.035747
  535         c3     19    bbb     C5    535 0.11363000  12.010000   ; qtot 0.077883
  536         hc     19    bbb     H9    536 0.06265900   1.008000   ; qtot 0.140542
  537         hc     19    bbb    H10    537 0.06265900   1.008000   ; qtot 0.203201
  538         c3     19    bbb     C6    538 0.11363000  12.010000   ; qtot 0.316831
  539         hc     19    bbb    H11    539 0.06265900   1.008000   ; qtot 0.379490
  540         hc     19    bbb    H12    540 0.06265900   1.008000   ; qtot 0.442149
  541         c3     19    bbb     C7    541 0.05858200  12.010000   ; qtot 0.500731
  542         h1     19    bbb    H13    542 0.06123400   1.008000   ; qtot 0.561965
  543         h1     19    bbb    H14    543 0.06123400   1.008000   ; qtot 0.623199
  544         c3     19    bbb     C8    544 -0.72423400  12.010000   ; qtot -0.101035
  545         h1     19    bbb    H15    545 0.25637600   1.008000   ; qtot 0.155341
  546         h1     19    bbb    H16    546 0.25637600   1.008000   ; qtot 0.411717
  547         c3     19    bbb     C9    547 -0.72423400  12.010000   ; qtot -0.312517
  548         h1     19    bbb    H17    548 0.25637600   1.008000   ; qtot -0.056141
  549         h1     19    bbb    H18    549 0.25637600   1.008000   ; qtot 0.200235
  550         os     19    bbb     O1    550 -0.20025300  16.000000   ; qtot -0.000018
; residue   20 bbb rtp bbb q -0.0
  551         n3     20    bbb     N1    551 -0.59685800  14.010000   ; qtot -0.596876
  552         c3     20    bbb     C1    552 0.10137000  12.010000   ; qtot -0.495506
  553         h1     20    bbb     H1    553 0.04411300   1.008000   ; qtot -0.451393
  554         h1     20    bbb     H2    554 0.04411300   1.008000   ; qtot -0.407280
  555         c3     20    bbb     C2    555 0.10137000  12.010000   ; qtot -0.305910
  556         h1     20    bbb     H3    556 0.04411300   1.008000   ; qtot -0.261797
  557         h1     20    bbb     H4    557 0.04411300   1.008000   ; qtot -0.217684
  558         c3     20    bbb     C3    558 -0.00195300  12.010000   ; qtot -0.219637
  559         h1     20    bbb     H5    559 0.05064400   1.008000   ; qtot -0.168993
  560         h1     20    bbb     H6    560 0.05064400   1.008000   ; qtot -0.118349
  561         c3     20    bbb     C4    561 -0.01612100  12.010000   ; qtot -0.134470
  562         hc     20    bbb     H7    562 0.04936100   1.008000   ; qtot -0.085109
  563         hc     20    bbb     H8    563 0.04936100   1.008000   ; qtot -0.035748
  564         c3     20    bbb     C5    564 0.11363000  12.010000   ; qtot 0.077882
  565         hc     20    bbb     H9    565 0.06265900   1.008000   ; qtot 0.140541
  566         hc     20    bbb    H10    566 0.06265900   1.008000   ; qtot 0.203200
  567         c3     20    bbb     C6    567 0.11363000  12.010000   ; qtot 0.316830
  568         hc     20    bbb    H11    568 0.06265900   1.008000   ; qtot 0.379489
  569         hc     20    bbb    H12    569 0.06265900   1.008000   ; qtot 0.442148
  570         c3     20    bbb     C7    570 0.05858200  12.010000   ; qtot 0.500730
  571         h1     20    bbb    H13    571 0.06123400   1.008000   ; qtot 0.561964
  572         h1     20    bbb    H14    572 0.06123400   1.008000   ; qtot 0.623198
  573         c3     20    bbb     C8    573 -0.72423400  12.010000   ; qtot -0.101036
  574         h1     20    bbb    H15    574 0.25637600   1.008000   ; qtot 0.155340
  575         h1     20    bbb    H16    575 0.25637600   1.008000   ; qtot 0.411716
  576         c3     20    bbb     C9    576 -0.72423400  12.010000   ; qtot -0.312518
  577         h1     20    bbb    H17    577 0.25637600   1.008000   ; qtot -0.056142
  578         h1     20    bbb    H18    578 0.25637600   1.008000   ; qtot 0.200234
  579         os     20    bbb     O1    579 -0.20025300  16.000000   ; qtot -0.000019
; residue   21 bbb rtp bbb q -0.0
  580         n3     21    bbb     N1    580 -0.59685800  14.010000   ; qtot -0.596877
  581         c3     21    bbb     C1    581 0.10137000  12.010000   ; qtot -0.495507
  582         h1     21    bbb     H1    582 0.04411300   1.008000   ; qtot -0.451394
  583         h1     21    bbb     H2    583 0.04411300   1.008000   ; qtot -0.407281
  584         c3     21    bbb     C2    584 0.10137000  12.010000   ; qtot -0.305911
  585         h1     21    bbb     H3    585 0.04411300   1.008000   ; qtot -0.261798
  586         h1     21    bbb     H4    586 0.04411300   1.008000   ; qtot -0.217685
  587         c3     21    bbb     C3    587 -0.00195300  12.010000   ; qtot -0.219638
  588         h1     21    bbb     H5    588 0.05064400   1.008000   ; qtot -0.168994
  589         h1     21    bbb     H6    589 0.05064400   1.008000   ; qtot -0.118350
  590         c3     21    bbb     C4    590 -0.01612100  12.010000   ; qtot -0.134471
  591         hc     21    bbb     H7    591 0.04936100   1.008000   ; qtot -0.085110
  592         hc     21    bbb     H8    592 0.04936100   1.008000   ; qtot -0.035749
  593         c3     21    bbb     C5    593 0.11363000  12.010000   ; qtot 0.077881
  594         hc     21    bbb     H9    594 0.06265900   1.008000   ; qtot 0.140540
  595         hc     21    bbb    H10    595 0.06265900   1.008000   ; qtot 0.203199
  596         c3     21    bbb     C6    596 0.11363000  12.010000   ; qtot 0.316829
  597         hc     21    bbb    H11    597 0.06265900   1.008000   ; qtot 0.379488
  598         hc     21    bbb    H12    598 0.06265900   1.008000   ; qtot 0.442147
  599         c3     21    bbb     C7    599 0.05858200  12.010000   ; qtot 0.500729
  600         h1     21    bbb    H13    600 0.06123400   1.008000   ; qtot 0.561963
  601         h1     21    bbb    H14    601 0.06123400   1.008000   ; qtot 0.623197
  602         c3     21    bbb     C8    602 -0.72423400  12.010000   ; qtot -0.101037
  603         h1     21    bbb    H15    603 0.25637600   1.008000   ; qtot 0.155339
  604         h1     21    bbb    H16    604 0.25637600   1.008000   ; qtot 0.411715
  605         c3     21    bbb     C9    605 -0.72423400  12.010000   ; qtot -0.312519
  606         h1     21    bbb    H17    606 0.25637600   1.008000   ; qtot -0.056143
  607         h1     21    bbb    H18    607 0.25637600   1.008000   ; qtot 0.200233
  608         os     21    bbb     O1    608 -0.20025300  16.000000   ; qtot -0.000020
; residue   22 bbb rtp bbb q -0.0
  609         n3     22    bbb     N1    609 -0.59685800  14.010000   ; qtot -0.596878
  610         c3     22    bbb     C1    610 0.10137000  12.010000   ; qtot -0.495508
  611         h1     22    bbb     H1    611 0.04411300   1.008000   ; qtot -0.451395
  612         h1     22    bbb     H2    612 0.04411300   1.008000   ; qtot -0.407282
  613         c3     22    bbb     C2    613 0.10137000  12.010000   ; qtot -0.305912
  614         h1     22    bbb     H3    614 0.04411300   1.008000   ; qtot -0.261799
  615         h1     22    bbb     H4    615 0.04411300   1.008000   ; qtot -0.217686
  616         c3     22    bbb     C3    616 -0.00195300  12.010000   ; qtot -0.219639
  617         h1     22    bbb     H5    617 0.05064400   1.008000   ; qtot -0.168995
  618         h1     22    bbb     H6    618 0.05064400   1.008000   ; qtot -0.118351
  619         c3     22    bbb     C4    619 -0.01612100  12.010000   ; qtot -0.134472
  620         hc     22    bbb     H7    620 0.04936100   1.008000   ; qtot -0.085111
  621         hc     22    bbb     H8    621 0.04936100   1.008000   ; qtot -0.035750
  622         c3     22    bbb     C5    622 0.11363000  12.010000   ; qtot 0.077880
  623         hc     22    bbb     H9    623 0.06265900   1.008000   ; qtot 0.140539
  624         hc     22    bbb    H10    624 0.06265900   1.008000   ; qtot 0.203198
  625         c3     22    bbb     C6    625 0.11363000  12.010000   ; qtot 0.316828
  626         hc     22    bbb    H11    626 0.06265900   1.008000   ; qtot 0.379487
  627         hc     22    bbb    H12    627 0.06265900   1.008000   ; qtot 0.442146
  628         c3     22    bbb     C7    628 0.05858200  12.010000   ; qtot 0.500728
  629         h1     22    bbb    H13    629 0.06123400   1.008000   ; qtot 0.561962
  630         h1     22    bbb    H14    630 0.06123400   1.008000   ; qtot 0.623196
  631         c3     22    bbb     C8    631 -0.72423400  12.010000   ; qtot -0.101038
  632         h1     22    bbb    H15    632 0.25637600   1.008000   ; qtot 0.155338
  633         h1     22    bbb    H16    633 0.25637600   1.008000   ; qtot 0.411714
  634         c3     22    bbb     C9    634 -0.72423400  12.010000   ; qtot -0.312520
  635         h1     22    bbb    H17    635 0.25637600   1.008000   ; qtot -0.056144
  636         h1     22    bbb    H18    636 0.25637600   1.008000   ; qtot 0.200232
  637         os     22    bbb     O1    637 -0.20025300  16.000000   ; qtot -0.000021
; residue   23 bbb rtp bbb q -0.0
  638         n3     23    bbb     N1    638 -0.59685800  14.010000   ; qtot -0.596879
  639         c3     23    bbb     C1    639 0.10137000  12.010000   ; qtot -0.495509
  640         h1     23    bbb     H1    640 0.04411300   1.008000   ; qtot -0.451396
  641         h1     23    bbb     H2    641 0.04411300   1.008000   ; qtot -0.407283
  642         c3     23    bbb     C2    642 0.10137000  12.010000   ; qtot -0.305913
  643         h1     23    bbb     H3    643 0.04411300   1.008000   ; qtot -0.261800
  644         h1     23    bbb     H4    644 0.04411300   1.008000   ; qtot -0.217687
  645         c3     23    bbb     C3    645 -0.00195300  12.010000   ; qtot -0.219640
  646         h1     23    bbb     H5    646 0.05064400   1.008000   ; qtot -0.168996
  647         h1     23    bbb     H6    647 0.05064400   1.008000   ; qtot -0.118352
  648         c3     23    bbb     C4    648 -0.01612100  12.010000   ; qtot -0.134473
  649         hc     23    bbb     H7    649 0.04936100   1.008000   ; qtot -0.085112
  650         hc     23    bbb     H8    650 0.04936100   1.008000   ; qtot -0.035751
  651         c3     23    bbb     C5    651 0.11363000  12.010000   ; qtot 0.077879
  652         hc     23    bbb     H9    652 0.06265900   1.008000   ; qtot 0.140538
  653         hc     23    bbb    H10    653 0.06265900   1.008000   ; qtot 0.203197
  654         c3     23    bbb     C6    654 0.11363000  12.010000   ; qtot 0.316827
  655         hc     23    bbb    H11    655 0.06265900   1.008000   ; qtot 0.379486
  656         hc     23    bbb    H12    656 0.06265900   1.008000   ; qtot 0.442145
  657         c3     23    bbb     C7    657 0.05858200  12.010000   ; qtot 0.500727
  658         h1     23    bbb    H13    658 0.06123400   1.008000   ; qtot 0.561961
  659         h1     23    bbb    H14    659 0.06123400   1.008000   ; qtot 0.623195
  660         c3     23    bbb     C8    660 -0.72423400  12.010000   ; qtot -0.101039
  661         h1     23    bbb    H15    661 0.25637600   1.008000   ; qtot 0.155337
  662         h1     23    bbb    H16    662 0.25637600   1.008000   ; qtot 0.411713
  663         c3     23    bbb     C9    663 -0.72423400  12.010000   ; qtot -0.312521
  664         h1     23    bbb    H17    664 0.25637600   1.008000   ; qtot -0.056145
  665         h1     23    bbb    H18    665 0.25637600   1.008000   ; qtot 0.200231
  666         os     23    bbb     O1    666 -0.20025300  16.000000   ; qtot -0.000022
; residue   24 bbb rtp bbb q -0.0
  667         n3     24    bbb     N1    667 -0.59685800  14.010000   ; qtot -0.596880
  668         c3     24    bbb     C1    668 0.10137000  12.010000   ; qtot -0.495510
  669         h1     24    bbb     H1    669 0.04411300   1.008000   ; qtot -0.451397
  670         h1     24    bbb     H2    670 0.04411300   1.008000   ; qtot -0.407284
  671         c3     24    bbb     C2    671 0.10137000  12.010000   ; qtot -0.305914
  672         h1     24    bbb     H3    672 0.04411300   1.008000   ; qtot -0.261801
  673         h1     24    bbb     H4    673 0.04411300   1.008000   ; qtot -0.217688
  674         c3     24    bbb     C3    674 -0.00195300  12.010000   ; qtot -0.219641
  675         h1     24    bbb     H5    675 0.05064400   1.008000   ; qtot -0.168997
  676         h1     24    bbb     H6    676 0.05064400   1.008000   ; qtot -0.118353
  677         c3     24    bbb     C4    677 -0.01612100  12.010000   ; qtot -0.134474
  678         hc     24    bbb     H7    678 0.04936100   1.008000   ; qtot -0.085113
  679         hc     24    bbb     H8    679 0.04936100   1.008000   ; qtot -0.035752
  680         c3     24    bbb     C5    680 0.11363000  12.010000   ; qtot 0.077878
  681         hc     24    bbb     H9    681 0.06265900   1.008000   ; qtot 0.140537
  682         hc     24    bbb    H10    682 0.06265900   1.008000   ; qtot 0.203196
  683         c3     24    bbb     C6    683 0.11363000  12.010000   ; qtot 0.316826
  684         hc     24    bbb    H11    684 0.06265900   1.008000   ; qtot 0.379485
  685         hc     24    bbb    H12    685 0.06265900   1.008000   ; qtot 0.442144
  686         c3     24    bbb     C7    686 0.05858200  12.010000   ; qtot 0.500726
  687         h1     24    bbb    H13    687 0.06123400   1.008000   ; qtot 0.561960
  688         h1     24    bbb    H14    688 0.06123400   1.008000   ; qtot 0.623194
  689         c3     24    bbb     C8    689 -0.72423400  12.010000   ; qtot -0.101040
  690         h1     24    bbb    H15    690 0.25637600   1.008000   ; qtot 0.155336
  691         h1     24    bbb    H16    691 0.25637600   1.008000   ; qtot 0.411712
  692         c3     24    bbb     C9    692 -0.72423400  12.010000   ; qtot -0.312522
  693         h1     24    bbb    H17    693 0.25637600   1.008000   ; qtot -0.056146
  694         h1     24    bbb    H18    694 0.25637600   1.008000   ; qtot 0.200230
  695         os     24    bbb     O1    695 -0.20025300  16.000000   ; qtot -0.000023
; residue   25 bbb rtp bbb q -0.0
  696         n3     25    bbb     N1    696 -0.59685800  14.010000   ; qtot -0.596881
  697         c3     25    bbb     C1    697 0.10137000  12.010000   ; qtot -0.495511
  698         h1     25    bbb     H1    698 0.04411300   1.008000   ; qtot -0.451398
  699         h1     25    bbb     H2    699 0.04411300   1.008000   ; qtot -0.407285
  700         c3     25    bbb     C2    700 0.10137000  12.010000   ; qtot -0.305915
  701         h1     25    bbb     H3    701 0.04411300   1.008000   ; qtot -0.261802
  702         h1     25    bbb     H4    702 0.04411300   1.008000   ; qtot -0.217689
  703         c3     25    bbb     C3    703 -0.00195300  12.010000   ; qtot -0.219642
  704         h1     25    bbb     H5    704 0.05064400   1.008000   ; qtot -0.168998
  705         h1     25    bbb     H6    705 0.05064400   1.008000   ; qtot -0.118354
  706         c3     25    bbb     C4    706 -0.01612100  12.010000   ; qtot -0.134475
  707         hc     25    bbb     H7    707 0.04936100   1.008000   ; qtot -0.085114
  708         hc     25    bbb     H8    708 0.04936100   1.008000   ; qtot -0.035753
  709         c3     25    bbb     C5    709 0.11363000  12.010000   ; qtot 0.077877
  710         hc     25    bbb     H9    710 0.06265900   1.008000   ; qtot 0.140536
  711         hc     25    bbb    H10    711 0.06265900   1.008000   ; qtot 0.203195
  712         c3     25    bbb     C6    712 0.11363000  12.010000   ; qtot 0.316825
  713         hc     25    bbb    H11    713 0.06265900   1.008000   ; qtot 0.379484
  714         hc     25    bbb    H12    714 0.06265900   1.008000   ; qtot 0.442143
  715         c3     25    bbb     C7    715 0.05858200  12.010000   ; qtot 0.500725
  716         h1     25    bbb    H13    716 0.06123400   1.008000   ; qtot 0.561959
  717         h1     25    bbb    H14    717 0.06123400   1.008000   ; qtot 0.623193
  718         c3     25    bbb     C8    718 -0.72423400  12.010000   ; qtot -0.101041
  719         h1     25    bbb    H15    719 0.25637600   1.008000   ; qtot 0.155335
  720         h1     25    bbb    H16    720 0.25637600   1.008000   ; qtot 0.411711
  721         c3     25    bbb     C9    721 -0.72423400  12.010000   ; qtot -0.312523
  722         h1     25    bbb    H17    722 0.25637600   1.008000   ; qtot -0.056147
  723         h1     25    bbb    H18    723 0.25637600   1.008000   ; qtot 0.200229
  724         os     25    bbb     O1    724 -0.20025300  16.000000   ; qtot -0.000024
; residue   26 bbb rtp bbb q -0.0
  725         n3     26    bbb     N1    725 -0.59685800  14.010000   ; qtot -0.596882
  726         c3     26    bbb     C1    726 0.10137000  12.010000   ; qtot -0.495512
  727         h1     26    bbb     H1    727 0.04411300   1.008000   ; qtot -0.451399
  728         h1     26    bbb     H2    728 0.04411300   1.008000   ; qtot -0.407286
  729         c3     26    bbb     C2    729 0.10137000  12.010000   ; qtot -0.305916
  730         h1     26    bbb     H3    730 0.04411300   1.008000   ; qtot -0.261803
  731         h1     26    bbb     H4    731 0.04411300   1.008000   ; qtot -0.217690
  732         c3     26    bbb     C3    732 -0.00195300  12.010000   ; qtot -0.219643
  733         h1     26    bbb     H5    733 0.05064400   1.008000   ; qtot -0.168999
  734         h1     26    bbb     H6    734 0.05064400   1.008000   ; qtot -0.118355
  735         c3     26    bbb     C4    735 -0.01612100  12.010000   ; qtot -0.134476
  736         hc     26    bbb     H7    736 0.04936100   1.008000   ; qtot -0.085115
  737         hc     26    bbb     H8    737 0.04936100   1.008000   ; qtot -0.035754
  738         c3     26    bbb     C5    738 0.11363000  12.010000   ; qtot 0.077876
  739         hc     26    bbb     H9    739 0.06265900   1.008000   ; qtot 0.140535
  740         hc     26    bbb    H10    740 0.06265900   1.008000   ; qtot 0.203194
  741         c3     26    bbb     C6    741 0.11363000  12.010000   ; qtot 0.316824
  742         hc     26    bbb    H11    742 0.06265900   1.008000   ; qtot 0.379483
  743         hc     26    bbb    H12    743 0.06265900   1.008000   ; qtot 0.442142
  744         c3     26    bbb     C7    744 0.05858200  12.010000   ; qtot 0.500724
  745         h1     26    bbb    H13    745 0.06123400   1.008000   ; qtot 0.561958
  746         h1     26    bbb    H14    746 0.06123400   1.008000   ; qtot 0.623192
  747         c3     26    bbb     C8    747 -0.72423400  12.010000   ; qtot -0.101042
  748         h1     26    bbb    H15    748 0.25637600   1.008000   ; qtot 0.155334
  749         h1     26    bbb    H16    749 0.25637600   1.008000   ; qtot 0.411710
  750         c3     26    bbb     C9    750 -0.72423400  12.010000   ; qtot -0.312524
  751         h1     26    bbb    H17    751 0.25637600   1.008000   ; qtot -0.056148
  752         h1     26    bbb    H18    752 0.25637600   1.008000   ; qtot 0.200228
  753         os     26    bbb     O1    753 -0.20025300  16.000000   ; qtot -0.000025
; residue   27 bbb rtp bbb q -0.0
  754         n3     27    bbb     N1    754 -0.59685800  14.010000   ; qtot -0.596883
  755         c3     27    bbb     C1    755 0.10137000  12.010000   ; qtot -0.495513
  756         h1     27    bbb     H1    756 0.04411300   1.008000   ; qtot -0.451400
  757         h1     27    bbb     H2    757 0.04411300   1.008000   ; qtot -0.407287
  758         c3     27    bbb     C2    758 0.10137000  12.010000   ; qtot -0.305917
  759         h1     27    bbb     H3    759 0.04411300   1.008000   ; qtot -0.261804
  760         h1     27    bbb     H4    760 0.04411300   1.008000   ; qtot -0.217691
  761         c3     27    bbb     C3    761 -0.00195300  12.010000   ; qtot -0.219644
  762         h1     27    bbb     H5    762 0.05064400   1.008000   ; qtot -0.169000
  763         h1     27    bbb     H6    763 0.05064400   1.008000   ; qtot -0.118356
  764         c3     27    bbb     C4    764 -0.01612100  12.010000   ; qtot -0.134477
  765         hc     27    bbb     H7    765 0.04936100   1.008000   ; qtot -0.085116
  766         hc     27    bbb     H8    766 0.04936100   1.008000   ; qtot -0.035755
  767         c3     27    bbb     C5    767 0.11363000  12.010000   ; qtot 0.077875
  768         hc     27    bbb     H9    768 0.06265900   1.008000   ; qtot 0.140534
  769         hc     27    bbb    H10    769 0.06265900   1.008000   ; qtot 0.203193
  770         c3     27    bbb     C6    770 0.11363000  12.010000   ; qtot 0.316823
  771         hc     27    bbb    H11    771 0.06265900   1.008000   ; qtot 0.379482
  772         hc     27    bbb    H12    772 0.06265900   1.008000   ; qtot 0.442141
  773         c3     27    bbb     C7    773 0.05858200  12.010000   ; qtot 0.500723
  774         h1     27    bbb    H13    774 0.06123400   1.008000   ; qtot 0.561957
  775         h1     27    bbb    H14    775 0.06123400   1.008000   ; qtot 0.623191
  776         c3     27    bbb     C8    776 -0.72423400  12.010000   ; qtot -0.101043
  777         h1     27    bbb    H15    777 0.25637600   1.008000   ; qtot 0.155333
  778         h1     27    bbb    H16    778 0.25637600   1.008000   ; qtot 0.411709
  779         c3     27    bbb     C9    779 -0.72423400  12.010000   ; qtot -0.312525
  780         h1     27    bbb    H17    780 0.25637600   1.008000   ; qtot -0.056149
  781         h1     27    bbb    H18    781 0.25637600   1.008000   ; qtot 0.200227
  782         os     27    bbb     O1    782 -0.20025300  16.000000   ; qtot -0.000026
; residue   28 bbb rtp bbb q -0.0
  783         n3     28    bbb     N1    783 -0.59685800  14.010000   ; qtot -0.596884
  784         c3     28    bbb     C1    784 0.10137000  12.010000   ; qtot -0.495514
  785         h1     28    bbb     H1    785 0.04411300   1.008000   ; qtot -0.451401
  786         h1     28    bbb     H2    786 0.04411300   1.008000   ; qtot -0.407288
  787         c3     28    bbb     C2    787 0.10137000  12.010000   ; qtot -0.305918
  788         h1     28    bbb     H3    788 0.04411300   1.008000   ; qtot -0.261805
  789         h1     28    bbb     H4    789 0.04411300   1.008000   ; qtot -0.217692
  790         c3     28    bbb     C3    790 -0.00195300  12.010000   ; qtot -0.219645
  791         h1     28    bbb     H5    791 0.05064400   1.008000   ; qtot -0.169001
  792         h1     28    bbb     H6    792 0.05064400   1.008000   ; qtot -0.118357
  793         c3     28    bbb     C4    793 -0.01612100  12.010000   ; qtot -0.134478
  794         hc     28    bbb     H7    794 0.04936100   1.008000   ; qtot -0.085117
  795         hc     28    bbb     H8    795 0.04936100   1.008000   ; qtot -0.035756
  796         c3     28    bbb     C5    796 0.11363000  12.010000   ; qtot 0.077874
  797         hc     28    bbb     H9    797 0.06265900   1.008000   ; qtot 0.140533
  798         hc     28    bbb    H10    798 0.06265900   1.008000   ; qtot 0.203192
  799         c3     28    bbb     C6    799 0.11363000  12.010000   ; qtot 0.316822
  800         hc     28    bbb    H11    800 0.06265900   1.008000   ; qtot 0.379481
  801         hc     28    bbb    H12    801 0.06265900   1.008000   ; qtot 0.442140
  802         c3     28    bbb     C7    802 0.05858200  12.010000   ; qtot 0.500722
  803         h1     28    bbb    H13    803 0.06123400   1.008000   ; qtot 0.561956
  804         h1     28    bbb    H14    804 0.06123400   1.008000   ; qtot 0.623190
  805         c3     28    bbb     C8    805 -0.72423400  12.010000   ; qtot -0.101044
  806         h1     28    bbb    H15    806 0.25637600   1.008000   ; qtot 0.155332
  807         h1     28    bbb    H16    807 0.25637600   1.008000   ; qtot 0.411708
  808         c3     28    bbb     C9    808 -0.72423400  12.010000   ; qtot -0.312526
  809         h1     28    bbb    H17    809 0.25637600   1.008000   ; qtot -0.056150
  810         h1     28    bbb    H18    810 0.25637600   1.008000   ; qtot 0.200226
  811         os     28    bbb     O1    811 -0.20025300  16.000000   ; qtot -0.000027
; residue   29 bbb rtp bbb q -0.0
  812         n3     29    bbb     N1    812 -0.59685800  14.010000   ; qtot -0.596885
  813         c3     29    bbb     C1    813 0.10137000  12.010000   ; qtot -0.495515
  814         h1     29    bbb     H1    814 0.04411300   1.008000   ; qtot -0.451402
  815         h1     29    bbb     H2    815 0.04411300   1.008000   ; qtot -0.407289
  816         c3     29    bbb     C2    816 0.10137000  12.010000   ; qtot -0.305919
  817         h1     29    bbb     H3    817 0.04411300   1.008000   ; qtot -0.261806
  818         h1     29    bbb     H4    818 0.04411300   1.008000   ; qtot -0.217693
  819         c3     29    bbb     C3    819 -0.00195300  12.010000   ; qtot -0.219646
  820         h1     29    bbb     H5    820 0.05064400   1.008000   ; qtot -0.169002
  821         h1     29    bbb     H6    821 0.05064400   1.008000   ; qtot -0.118358
  822         c3     29    bbb     C4    822 -0.01612100  12.010000   ; qtot -0.134479
  823         hc     29    bbb     H7    823 0.04936100   1.008000   ; qtot -0.085118
  824         hc     29    bbb     H8    824 0.04936100   1.008000   ; qtot -0.035757
  825         c3     29    bbb     C5    825 0.11363000  12.010000   ; qtot 0.077873
  826         hc     29    bbb     H9    826 0.06265900   1.008000   ; qtot 0.140532
  827         hc     29    bbb    H10    827 0.06265900   1.008000   ; qtot 0.203191
  828         c3     29    bbb     C6    828 0.11363000  12.010000   ; qtot 0.316821
  829         hc     29    bbb    H11    829 0.06265900   1.008000   ; qtot 0.379480
  830         hc     29    bbb    H12    830 0.06265900   1.008000   ; qtot 0.442139
  831         c3     29    bbb     C7    831 0.05858200  12.010000   ; qtot 0.500721
  832         h1     29    bbb    H13    832 0.06123400   1.008000   ; qtot 0.561955
  833         h1     29    bbb    H14    833 0.06123400   1.008000   ; qtot 0.623189
  834         c3     29    bbb     C8    834 -0.72423400  12.010000   ; qtot -0.101045
  835         h1     29    bbb    H15    835 0.25637600   1.008000   ; qtot 0.155331
  836         h1     29    bbb    H16    836 0.25637600   1.008000   ; qtot 0.411707
  837         c3     29    bbb     C9    837 -0.72423400  12.010000   ; qtot -0.312527
  838         h1     29    bbb    H17    838 0.25637600   1.008000   ; qtot -0.056151
  839         h1     29    bbb    H18    839 0.25637600   1.008000   ; qtot 0.200225
  840         os     29    bbb     O1    840 -0.20025300  16.000000   ; qtot -0.000028
; residue   30 bbb rtp bbb q -0.0
  841         n3     30    bbb     N1    841 -0.59685800  14.010000   ; qtot -0.596886
  842         c3     30    bbb     C1    842 0.10137000  12.010000   ; qtot -0.495516
  843         h1     30    bbb     H1    843 0.04411300   1.008000   ; qtot -0.451403
  844         h1     30    bbb     H2    844 0.04411300   1.008000   ; qtot -0.407290
  845         c3     30    bbb     C2    845 0.10137000  12.010000   ; qtot -0.305920
  846         h1     30    bbb     H3    846 0.04411300   1.008000   ; qtot -0.261807
  847         h1     30    bbb     H4    847 0.04411300   1.008000   ; qtot -0.217694
  848         c3     30    bbb     C3    848 -0.00195300  12.010000   ; qtot -0.219647
  849         h1     30    bbb     H5    849 0.05064400   1.008000   ; qtot -0.169003
  850         h1     30    bbb     H6    850 0.05064400   1.008000   ; qtot -0.118359
  851         c3     30    bbb     C4    851 -0.01612100  12.010000   ; qtot -0.134480
  852         hc     30    bbb     H7    852 0.04936100   1.008000   ; qtot -0.085119
  853         hc     30    bbb     H8    853 0.04936100   1.008000   ; qtot -0.035758
  854         c3     30    bbb     C5    854 0.11363000  12.010000   ; qtot 0.077872
  855         hc     30    bbb     H9    855 0.06265900   1.008000   ; qtot 0.140531
  856         hc     30    bbb    H10    856 0.06265900   1.008000   ; qtot 0.203190
  857         c3     30    bbb     C6    857 0.11363000  12.010000   ; qtot 0.316820
  858         hc     30    bbb    H11    858 0.06265900   1.008000   ; qtot 0.379479
  859         hc     30    bbb    H12    859 0.06265900   1.008000   ; qtot 0.442138
  860         c3     30    bbb     C7    860 0.05858200  12.010000   ; qtot 0.500720
  861         h1     30    bbb    H13    861 0.06123400   1.008000   ; qtot 0.561954
  862         h1     30    bbb    H14    862 0.06123400   1.008000   ; qtot 0.623188
  863         c3     30    bbb     C8    863 -0.72423400  12.010000   ; qtot -0.101046
  864         h1     30    bbb    H15    864 0.25637600   1.008000   ; qtot 0.155330
  865         h1     30    bbb    H16    865 0.25637600   1.008000   ; qtot 0.411706
  866         c3     30    bbb     C9    866 -0.72423400  12.010000   ; qtot -0.312528
  867         h1     30    bbb    H17    867 0.25637600   1.008000   ; qtot -0.056152
  868         h1     30    bbb    H18    868 0.25637600   1.008000   ; qtot 0.200224
  869         os     30    bbb     O1    869 -0.20025300  16.000000   ; qtot -0.000029
; residue   31 bbb rtp bbb q -0.0
  870         n3     31    bbb     N1    870 -0.59685800  14.010000   ; qtot -0.596887
  871         c3     31    bbb     C1    871 0.10137000  12.010000   ; qtot -0.495517
  872         h1     31    bbb     H1    872 0.04411300   1.008000   ; qtot -0.451404
  873         h1     31    bbb     H2    873 0.04411300   1.008000   ; qtot -0.407291
  874         c3     31    bbb     C2    874 0.10137000  12.010000   ; qtot -0.305921
  875         h1     31    bbb     H3    875 0.04411300   1.008000   ; qtot -0.261808
  876         h1     31    bbb     H4    876 0.04411300   1.008000   ; qtot -0.217695
  877         c3     31    bbb     C3    877 -0.00195300  12.010000   ; qtot -0.219648
  878         h1     31    bbb     H5    878 0.05064400   1.008000   ; qtot -0.169004
  879         h1     31    bbb     H6    879 0.05064400   1.008000   ; qtot -0.118360
  880         c3     31    bbb     C4    880 -0.01612100  12.010000   ; qtot -0.134481
  881         hc     31    bbb     H7    881 0.04936100   1.008000   ; qtot -0.085120
  882         hc     31    bbb     H8    882 0.04936100   1.008000   ; qtot -0.035759
  883         c3     31    bbb     C5    883 0.11363000  12.010000   ; qtot 0.077871
  884         hc     31    bbb     H9    884 0.06265900   1.008000   ; qtot 0.140530
  885         hc     31    bbb    H10    885 0.06265900   1.008000   ; qtot 0.203189
  886         c3     31    bbb     C6    886 0.11363000  12.010000   ; qtot 0.316819
  887         hc     31    bbb    H11    887 0.06265900   1.008000   ; qtot 0.379478
  888         hc     31    bbb    H12    888 0.06265900   1.008000   ; qtot 0.442137
  889         c3     31    bbb     C7    889 0.05858200  12.010000   ; qtot 0.500719
  890         h1     31    bbb    H13    890 0.06123400   1.008000   ; qtot 0.561953
  891         h1     31    bbb    H14    891 0.06123400   1.008000   ; qtot 0.623187
  892         c3     31    bbb     C8    892 -0.72423400  12.010000   ; qtot -0.101047
  893         h1     31    bbb    H15    893 0.25637600   1.008000   ; qtot 0.155329
  894         h1     31    bbb    H16    894 0.25637600   1.008000   ; qtot 0.411705
  895         c3     31    bbb     C9    895 -0.72423400  12.010000   ; qtot -0.312529
  896         h1     31    bbb    H17    896 0.25637600   1.008000   ; qtot -0.056153
  897         h1     31    bbb    H18    897 0.25637600   1.008000   ; qtot 0.200223
  898         os     31    bbb     O1    898 -0.20025300  16.000000   ; qtot -0.000030
; residue   32 bbb rtp bbb q -0.0
  899         n3     32    bbb     N1    899 -0.59685800  14.010000   ; qtot -0.596888
  900         c3     32    bbb     C1    900 0.10137000  12.010000   ; qtot -0.495518
  901         h1     32    bbb     H1    901 0.04411300   1.008000   ; qtot -0.451405
  902         h1     32    bbb     H2    902 0.04411300   1.008000   ; qtot -0.407292
  903         c3     32    bbb     C2    903 0.10137000  12.010000   ; qtot -0.305922
  904         h1     32    bbb     H3    904 0.04411300   1.008000   ; qtot -0.261809
  905         h1     32    bbb     H4    905 0.04411300   1.008000   ; qtot -0.217696
  906         c3     32    bbb     C3    906 -0.00195300  12.010000   ; qtot -0.219649
  907         h1     32    bbb     H5    907 0.05064400   1.008000   ; qtot -0.169005
  908         h1     32    bbb     H6    908 0.05064400   1.008000   ; qtot -0.118361
  909         c3     32    bbb     C4    909 -0.01612100  12.010000   ; qtot -0.134482
  910         hc     32    bbb     H7    910 0.04936100   1.008000   ; qtot -0.085121
  911         hc     32    bbb     H8    911 0.04936100   1.008000   ; qtot -0.035760
  912         c3     32    bbb     C5    912 0.11363000  12.010000   ; qtot 0.077870
  913         hc     32    bbb     H9    913 0.06265900   1.008000   ; qtot 0.140529
  914         hc     32    bbb    H10    914 0.06265900   1.008000   ; qtot 0.203188
  915         c3     32    bbb     C6    915 0.11363000  12.010000   ; qtot 0.316818
  916         hc     32    bbb    H11    916 0.06265900   1.008000   ; qtot 0.379477
  917         hc     32    bbb    H12    917 0.06265900   1.008000   ; qtot 0.442136
  918         c3     32    bbb     C7    918 0.05858200  12.010000   ; qtot 0.500718
  919         h1     32    bbb    H13    919 0.06123400   1.008000   ; qtot 0.561952
  920         h1     32    bbb    H14    920 0.06123400   1.008000   ; qtot 0.623186
  921         c3     32    bbb     C8    921 -0.72423400  12.010000   ; qtot -0.101048
  922         h1     32    bbb    H15    922 0.25637600   1.008000   ; qtot 0.155328
  923         h1     32    bbb    H16    923 0.25637600   1.008000   ; qtot 0.411704
  924         c3     32    bbb     C9    924 -0.72423400  12.010000   ; qtot -0.312530
  925         h1     32    bbb    H17    925 0.25637600   1.008000   ; qtot -0.056154
  926         h1     32    bbb    H18    926 0.25637600   1.008000   ; qtot 0.200222
  927         os     32    bbb     O1    927 -0.20025300  16.000000   ; qtot -0.000031
; residue   33 bbb rtp bbb q -0.0
  928         n3     33    bbb     N1    928 -0.59685800  14.010000   ; qtot -0.596889
  929         c3     33    bbb     C1    929 0.10137000  12.010000   ; qtot -0.495519
  930         h1     33    bbb     H1    930 0.04411300   1.008000   ; qtot -0.451406
  931         h1     33    bbb     H2    931 0.04411300   1.008000   ; qtot -0.407293
  932         c3     33    bbb     C2    932 0.10137000  12.010000   ; qtot -0.305923
  933         h1     33    bbb     H3    933 0.04411300   1.008000   ; qtot -0.261810
  934         h1     33    bbb     H4    934 0.04411300   1.008000   ; qtot -0.217697
  935         c3     33    bbb     C3    935 -0.00195300  12.010000   ; qtot -0.219650
  936         h1     33    bbb     H5    936 0.05064400   1.008000   ; qtot -0.169006
  937         h1     33    bbb     H6    937 0.05064400   1.008000   ; qtot -0.118362
  938         c3     33    bbb     C4    938 -0.01612100  12.010000   ; qtot -0.134483
  939         hc     33    bbb     H7    939 0.04936100   1.008000   ; qtot -0.085122
  940         hc     33    bbb     H8    940 0.04936100   1.008000   ; qtot -0.035761
  941         c3     33    bbb     C5    941 0.11363000  12.010000   ; qtot 0.077869
  942         hc     33    bbb     H9    942 0.06265900   1.008000   ; qtot 0.140528
  943         hc     33    bbb    H10    943 0.06265900   1.008000   ; qtot 0.203187
  944         c3     33    bbb     C6    944 0.11363000  12.010000   ; qtot 0.316817
  945         hc     33    bbb    H11    945 0.06265900   1.008000   ; qtot 0.379476
  946         hc     33    bbb    H12    946 0.06265900   1.008000   ; qtot 0.442135
  947         c3     33    bbb     C7    947 0.05858200  12.010000   ; qtot 0.500717
  948         h1     33    bbb    H13    948 0.06123400   1.008000   ; qtot 0.561951
  949         h1     33    bbb    H14    949 0.06123400   1.008000   ; qtot 0.623185
  950         c3     33    bbb     C8    950 -0.72423400  12.010000   ; qtot -0.101049
  951         h1     33    bbb    H15    951 0.25637600   1.008000   ; qtot 0.155327
  952         h1     33    bbb    H16    952 0.25637600   1.008000   ; qtot 0.411703
  953         c3     33    bbb     C9    953 -0.72423400  12.010000   ; qtot -0.312531
  954         h1     33    bbb    H17    954 0.25637600   1.008000   ; qtot -0.056155
  955         h1     33    bbb    H18    955 0.25637600   1.008000   ; qtot 0.200221
  956         os     33    bbb     O1    956 -0.20025300  16.000000   ; qtot -0.000032
; residue   34 bbb rtp bbb q -0.0
  957         n3     34    bbb     N1    957 -0.59685800  14.010000   ; qtot -0.596890
  958         c3     34    bbb     C1    958 0.10137000  12.010000   ; qtot -0.495520
  959         h1     34    bbb     H1    959 0.04411300   1.008000   ; qtot -0.451407
  960         h1     34    bbb     H2    960 0.04411300   1.008000   ; qtot -0.407294
  961         c3     34    bbb     C2    961 0.10137000  12.010000   ; qtot -0.305924
  962         h1     34    bbb     H3    962 0.04411300   1.008000   ; qtot -0.261811
  963         h1     34    bbb     H4    963 0.04411300   1.008000   ; qtot -0.217698
  964         c3     34    bbb     C3    964 -0.00195300  12.010000   ; qtot -0.219651
  965         h1     34    bbb     H5    965 0.05064400   1.008000   ; qtot -0.169007
  966         h1     34    bbb     H6    966 0.05064400   1.008000   ; qtot -0.118363
  967         c3     34    bbb     C4    967 -0.01612100  12.010000   ; qtot -0.134484
  968         hc     34    bbb     H7    968 0.04936100   1.008000   ; qtot -0.085123
  969         hc     34    bbb     H8    969 0.04936100   1.008000   ; qtot -0.035762
  970         c3     34    bbb     C5    970 0.11363000  12.010000   ; qtot 0.077868
  971         hc     34    bbb     H9    971 0.06265900   1.008000   ; qtot 0.140527
  972         hc     34    bbb    H10    972 0.06265900   1.008000   ; qtot 0.203186
  973         c3     34    bbb     C6    973 0.11363000  12.010000   ; qtot 0.316816
  974         hc     34    bbb    H11    974 0.06265900   1.008000   ; qtot 0.379475
  975         hc     34    bbb    H12    975 0.06265900   1.008000   ; qtot 0.442134
  976         c3     34    bbb     C7    976 0.05858200  12.010000   ; qtot 0.500716
  977         h1     34    bbb    H13    977 0.06123400   1.008000   ; qtot 0.561950
  978         h1     34    bbb    H14    978 0.06123400   1.008000   ; qtot 0.623184
  979         c3     34    bbb     C8    979 -0.72423400  12.010000   ; qtot -0.101050
  980         h1     34    bbb    H15    980 0.25637600   1.008000   ; qtot 0.155326
  981         h1     34    bbb    H16    981 0.25637600   1.008000   ; qtot 0.411702
  982         c3     34    bbb     C9    982 -0.72423400  12.010000   ; qtot -0.312532
  983         h1     34    bbb    H17    983 0.25637600   1.008000   ; qtot -0.056156
  984         h1     34    bbb    H18    984 0.25637600   1.008000   ; qtot 0.200220
  985         os     34    bbb     O1    985 -0.20025300  16.000000   ; qtot -0.000033
; residue   35 bbb rtp bbb q -0.0
  986         n3     35    bbb     N1    986 -0.59685800  14.010000   ; qtot -0.596891
  987         c3     35    bbb     C1    987 0.10137000  12.010000   ; qtot -0.495521
  988         h1     35    bbb     H1    988 0.04411300   1.008000   ; qtot -0.451408
  989         h1     35    bbb     H2    989 0.04411300   1.008000   ; qtot -0.407295
  990         c3     35    bbb     C2    990 0.10137000  12.010000   ; qtot -0.305925
  991         h1     35    bbb     H3    991 0.04411300   1.008000   ; qtot -0.261812
  992         h1     35    bbb     H4    992 0.04411300   1.008000   ; qtot -0.217699
  993         c3     35    bbb     C3    993 -0.00195300  12.010000   ; qtot -0.219652
  994         h1     35    bbb     H5    994 0.05064400   1.008000   ; qtot -0.169008
  995         h1     35    bbb     H6    995 0.05064400   1.008000   ; qtot -0.118364
  996         c3     35    bbb     C4    996 -0.01612100  12.010000   ; qtot -0.134485
  997         hc     35    bbb     H7    997 0.04936100   1.008000   ; qtot -0.085124
  998         hc     35    bbb     H8    998 0.04936100   1.008000   ; qtot -0.035763
  999         c3     35    bbb     C5    999 0.11363000  12.010000   ; qtot 0.077867
 1000         hc     35    bbb     H9   1000 0.06265900   1.008000   ; qtot 0.140526
 1001         hc     35    bbb    H10   1001 0.06265900   1.008000   ; qtot 0.203185
 1002         c3     35    bbb     C6   1002 0.11363000  12.010000   ; qtot 0.316815
 1003         hc     35    bbb    H11   1003 0.06265900   1.008000   ; qtot 0.379474
 1004         hc     35    bbb    H12   1004 0.06265900   1.008000   ; qtot 0.442133
 1005         c3     35    bbb     C7   1005 0.05858200  12.010000   ; qtot 0.500715
 1006         h1     35    bbb    H13   1006 0.06123400   1.008000   ; qtot 0.561949
 1007         h1     35    bbb    H14   1007 0.06123400   1.008000   ; qtot 0.623183
 1008         c3     35    bbb     C8   1008 -0.72423400  12.010000   ; qtot -0.101051
 1009         h1     35    bbb    H15   1009 0.25637600   1.008000   ; qtot 0.155325
 1010         h1     35    bbb    H16   1010 0.25637600   1.008000   ; qtot 0.411701
 1011         c3     35    bbb     C9   1011 -0.72423400  12.010000   ; qtot -0.312533
 1012         h1     35    bbb    H17   1012 0.25637600   1.008000   ; qtot -0.056157
 1013         h1     35    bbb    H18   1013 0.25637600   1.008000   ; qtot 0.200219
 1014         os     35    bbb     O1   1014 -0.20025300  16.000000   ; qtot -0.000034
; residue   36 bbb rtp bbb q -0.0
 1015         n3     36    bbb     N1   1015 -0.59685800  14.010000   ; qtot -0.596892
 1016         c3     36    bbb     C1   1016 0.10137000  12.010000   ; qtot -0.495522
 1017         h1     36    bbb     H1   1017 0.04411300   1.008000   ; qtot -0.451409
 1018         h1     36    bbb     H2   1018 0.04411300   1.008000   ; qtot -0.407296
 1019         c3     36    bbb     C2   1019 0.10137000  12.010000   ; qtot -0.305926
 1020         h1     36    bbb     H3   1020 0.04411300   1.008000   ; qtot -0.261813
 1021         h1     36    bbb     H4   1021 0.04411300   1.008000   ; qtot -0.217700
 1022         c3     36    bbb     C3   1022 -0.00195300  12.010000   ; qtot -0.219653
 1023         h1     36    bbb     H5   1023 0.05064400   1.008000   ; qtot -0.169009
 1024         h1     36    bbb     H6   1024 0.05064400   1.008000   ; qtot -0.118365
 1025         c3     36    bbb     C4   1025 -0.01612100  12.010000   ; qtot -0.134486
 1026         hc     36    bbb     H7   1026 0.04936100   1.008000   ; qtot -0.085125
 1027         hc     36    bbb     H8   1027 0.04936100   1.008000   ; qtot -0.035764
 1028         c3     36    bbb     C5   1028 0.11363000  12.010000   ; qtot 0.077866
 1029         hc     36    bbb     H9   1029 0.06265900   1.008000   ; qtot 0.140525
 1030         hc     36    bbb    H10   1030 0.06265900   1.008000   ; qtot 0.203184
 1031         c3     36    bbb     C6   1031 0.11363000  12.010000   ; qtot 0.316814
 1032         hc     36    bbb    H11   1032 0.06265900   1.008000   ; qtot 0.379473
 1033         hc     36    bbb    H12   1033 0.06265900   1.008000   ; qtot 0.442132
 1034         c3     36    bbb     C7   1034 0.05858200  12.010000   ; qtot 0.500714
 1035         h1     36    bbb    H13   1035 0.06123400   1.008000   ; qtot 0.561948
 1036         h1     36    bbb    H14   1036 0.06123400   1.008000   ; qtot 0.623182
 1037         c3     36    bbb     C8   1037 -0.72423400  12.010000   ; qtot -0.101052
 1038         h1     36    bbb    H15   1038 0.25637600   1.008000   ; qtot 0.155324
 1039         h1     36    bbb    H16   1039 0.25637600   1.008000   ; qtot 0.411700
 1040         c3     36    bbb     C9   1040 -0.72423400  12.010000   ; qtot -0.312534
 1041         h1     36    bbb    H17   1041 0.25637600   1.008000   ; qtot -0.056158
 1042         h1     36    bbb    H18   1042 0.25637600   1.008000   ; qtot 0.200218
 1043         os     36    bbb     O1   1043 -0.20025300  16.000000   ; qtot -0.000035
; residue   37 bbb rtp bbb q -0.0
 1044         n3     37    bbb     N1   1044 -0.59685800  14.010000   ; qtot -0.596893
 1045         c3     37    bbb     C1   1045 0.10137000  12.010000   ; qtot -0.495523
 1046         h1     37    bbb     H1   1046 0.04411300   1.008000   ; qtot -0.451410
 1047         h1     37    bbb     H2   1047 0.04411300   1.008000   ; qtot -0.407297
 1048         c3     37    bbb     C2   1048 0.10137000  12.010000   ; qtot -0.305927
 1049         h1     37    bbb     H3   1049 0.04411300   1.008000   ; qtot -0.261814
 1050         h1     37    bbb     H4   1050 0.04411300   1.008000   ; qtot -0.217701
 1051         c3     37    bbb     C3   1051 -0.00195300  12.010000   ; qtot -0.219654
 1052         h1     37    bbb     H5   1052 0.05064400   1.008000   ; qtot -0.169010
 1053         h1     37    bbb     H6   1053 0.05064400   1.008000   ; qtot -0.118366
 1054         c3     37    bbb     C4   1054 -0.01612100  12.010000   ; qtot -0.134487
 1055         hc     37    bbb     H7   1055 0.04936100   1.008000   ; qtot -0.085126
 1056         hc     37    bbb     H8   1056 0.04936100   1.008000   ; qtot -0.035765
 1057         c3     37    bbb     C5   1057 0.11363000  12.010000   ; qtot 0.077865
 1058         hc     37    bbb     H9   1058 0.06265900   1.008000   ; qtot 0.140524
 1059         hc     37    bbb    H10   1059 0.06265900   1.008000   ; qtot 0.203183
 1060         c3     37    bbb     C6   1060 0.11363000  12.010000   ; qtot 0.316813
 1061         hc     37    bbb    H11   1061 0.06265900   1.008000   ; qtot 0.379472
 1062         hc     37    bbb    H12   1062 0.06265900   1.008000   ; qtot 0.442131
 1063         c3     37    bbb     C7   1063 0.05858200  12.010000   ; qtot 0.500713
 1064         h1     37    bbb    H13   1064 0.06123400   1.008000   ; qtot 0.561947
 1065         h1     37    bbb    H14   1065 0.06123400   1.008000   ; qtot 0.623181
 1066         c3     37    bbb     C8   1066 -0.72423400  12.010000   ; qtot -0.101053
 1067         h1     37    bbb    H15   1067 0.25637600   1.008000   ; qtot 0.155323
 1068         h1     37    bbb    H16   1068 0.25637600   1.008000   ; qtot 0.411699
 1069         c3     37    bbb     C9   1069 -0.72423400  12.010000   ; qtot -0.312535
 1070         h1     37    bbb    H17   1070 0.25637600   1.008000   ; qtot -0.056159
 1071         h1     37    bbb    H18   1071 0.25637600   1.008000   ; qtot 0.200217
 1072         os     37    bbb     O1   1072 -0.20025300  16.000000   ; qtot -0.000036
; residue   38 bbb rtp bbb q -0.0
 1073         n3     38    bbb     N1   1073 -0.59685800  14.010000   ; qtot -0.596894
 1074         c3     38    bbb     C1   1074 0.10137000  12.010000   ; qtot -0.495524
 1075         h1     38    bbb     H1   1075 0.04411300   1.008000   ; qtot -0.451411
 1076         h1     38    bbb     H2   1076 0.04411300   1.008000   ; qtot -0.407298
 1077         c3     38    bbb     C2   1077 0.10137000  12.010000   ; qtot -0.305928
 1078         h1     38    bbb     H3   1078 0.04411300   1.008000   ; qtot -0.261815
 1079         h1     38    bbb     H4   1079 0.04411300   1.008000   ; qtot -0.217702
 1080         c3     38    bbb     C3   1080 -0.00195300  12.010000   ; qtot -0.219655
 1081         h1     38    bbb     H5   1081 0.05064400   1.008000   ; qtot -0.169011
 1082         h1     38    bbb     H6   1082 0.05064400   1.008000   ; qtot -0.118367
 1083         c3     38    bbb     C4   1083 -0.01612100  12.010000   ; qtot -0.134488
 1084         hc     38    bbb     H7   1084 0.04936100   1.008000   ; qtot -0.085127
 1085         hc     38    bbb     H8   1085 0.04936100   1.008000   ; qtot -0.035766
 1086         c3     38    bbb     C5   1086 0.11363000  12.010000   ; qtot 0.077864
 1087         hc     38    bbb     H9   1087 0.06265900   1.008000   ; qtot 0.140523
 1088         hc     38    bbb    H10   1088 0.06265900   1.008000   ; qtot 0.203182
 1089         c3     38    bbb     C6   1089 0.11363000  12.010000   ; qtot 0.316812
 1090         hc     38    bbb    H11   1090 0.06265900   1.008000   ; qtot 0.379471
 1091         hc     38    bbb    H12   1091 0.06265900   1.008000   ; qtot 0.442130
 1092         c3     38    bbb     C7   1092 0.05858200  12.010000   ; qtot 0.500712
 1093         h1     38    bbb    H13   1093 0.06123400   1.008000   ; qtot 0.561946
 1094         h1     38    bbb    H14   1094 0.06123400   1.008000   ; qtot 0.623180
 1095         c3     38    bbb     C8   1095 -0.72423400  12.010000   ; qtot -0.101054
 1096         h1     38    bbb    H15   1096 0.25637600   1.008000   ; qtot 0.155322
 1097         h1     38    bbb    H16   1097 0.25637600   1.008000   ; qtot 0.411698
 1098         c3     38    bbb     C9   1098 -0.72423400  12.010000   ; qtot -0.312536
 1099         h1     38    bbb    H17   1099 0.25637600   1.008000   ; qtot -0.056160
 1100         h1     38    bbb    H18   1100 0.25637600   1.008000   ; qtot 0.200216
 1101         os     38    bbb     O1   1101 -0.20025300  16.000000   ; qtot -0.000037
; residue   39 bbb rtp bbb q -0.0
 1102         n3     39    bbb     N1   1102 -0.59685800  14.010000   ; qtot -0.596895
 1103         c3     39    bbb     C1   1103 0.10137000  12.010000   ; qtot -0.495525
 1104         h1     39    bbb     H1   1104 0.04411300   1.008000   ; qtot -0.451412
 1105         h1     39    bbb     H2   1105 0.04411300   1.008000   ; qtot -0.407299
 1106         c3     39    bbb     C2   1106 0.10137000  12.010000   ; qtot -0.305929
 1107         h1     39    bbb     H3   1107 0.04411300   1.008000   ; qtot -0.261816
 1108         h1     39    bbb     H4   1108 0.04411300   1.008000   ; qtot -0.217703
 1109         c3     39    bbb     C3   1109 -0.00195300  12.010000   ; qtot -0.219656
 1110         h1     39    bbb     H5   1110 0.05064400   1.008000   ; qtot -0.169012
 1111         h1     39    bbb     H6   1111 0.05064400   1.008000   ; qtot -0.118368
 1112         c3     39    bbb     C4   1112 -0.01612100  12.010000   ; qtot -0.134489
 1113         hc     39    bbb     H7   1113 0.04936100   1.008000   ; qtot -0.085128
 1114         hc     39    bbb     H8   1114 0.04936100   1.008000   ; qtot -0.035767
 1115         c3     39    bbb     C5   1115 0.11363000  12.010000   ; qtot 0.077863
 1116         hc     39    bbb     H9   1116 0.06265900   1.008000   ; qtot 0.140522
 1117         hc     39    bbb    H10   1117 0.06265900   1.008000   ; qtot 0.203181
 1118         c3     39    bbb     C6   1118 0.11363000  12.010000   ; qtot 0.316811
 1119         hc     39    bbb    H11   1119 0.06265900   1.008000   ; qtot 0.379470
 1120         hc     39    bbb    H12   1120 0.06265900   1.008000   ; qtot 0.442129
 1121         c3     39    bbb     C7   1121 0.05858200  12.010000   ; qtot 0.500711
 1122         h1     39    bbb    H13   1122 0.06123400   1.008000   ; qtot 0.561945
 1123         h1     39    bbb    H14   1123 0.06123400   1.008000   ; qtot 0.623179
 1124         c3     39    bbb     C8   1124 -0.72423400  12.010000   ; qtot -0.101055
 1125         h1     39    bbb    H15   1125 0.25637600   1.008000   ; qtot 0.155321
 1126         h1     39    bbb    H16   1126 0.25637600   1.008000   ; qtot 0.411697
 1127         c3     39    bbb     C9   1127 -0.72423400  12.010000   ; qtot -0.312537
 1128         h1     39    bbb    H17   1128 0.25637600   1.008000   ; qtot -0.056161
 1129         h1     39    bbb    H18   1129 0.25637600   1.008000   ; qtot 0.200215
 1130         os     39    bbb     O1   1130 -0.20025300  16.000000   ; qtot -0.000038
; residue   40 bbb rtp bbb q -0.0
 1131         n3     40    bbb     N1   1131 -0.59685800  14.010000   ; qtot -0.596896
 1132         c3     40    bbb     C1   1132 0.10137000  12.010000   ; qtot -0.495526
 1133         h1     40    bbb     H1   1133 0.04411300   1.008000   ; qtot -0.451413
 1134         h1     40    bbb     H2   1134 0.04411300   1.008000   ; qtot -0.407300
 1135         c3     40    bbb     C2   1135 0.10137000  12.010000   ; qtot -0.305930
 1136         h1     40    bbb     H3   1136 0.04411300   1.008000   ; qtot -0.261817
 1137         h1     40    bbb     H4   1137 0.04411300   1.008000   ; qtot -0.217704
 1138         c3     40    bbb     C3   1138 -0.00195300  12.010000   ; qtot -0.219657
 1139         h1     40    bbb     H5   1139 0.05064400   1.008000   ; qtot -0.169013
 1140         h1     40    bbb     H6   1140 0.05064400   1.008000   ; qtot -0.118369
 1141         c3     40    bbb     C4   1141 -0.01612100  12.010000   ; qtot -0.134490
 1142         hc     40    bbb     H7   1142 0.04936100   1.008000   ; qtot -0.085129
 1143         hc     40    bbb     H8   1143 0.04936100   1.008000   ; qtot -0.035768
 1144         c3     40    bbb     C5   1144 0.11363000  12.010000   ; qtot 0.077862
 1145         hc     40    bbb     H9   1145 0.06265900   1.008000   ; qtot 0.140521
 1146         hc     40    bbb    H10   1146 0.06265900   1.008000   ; qtot 0.203180
 1147         c3     40    bbb     C6   1147 0.11363000  12.010000   ; qtot 0.316810
 1148         hc     40    bbb    H11   1148 0.06265900   1.008000   ; qtot 0.379469
 1149         hc     40    bbb    H12   1149 0.06265900   1.008000   ; qtot 0.442128
 1150         c3     40    bbb     C7   1150 0.05858200  12.010000   ; qtot 0.500710
 1151         h1     40    bbb    H13   1151 0.06123400   1.008000   ; qtot 0.561944
 1152         h1     40    bbb    H14   1152 0.06123400   1.008000   ; qtot 0.623178
 1153         c3     40    bbb     C8   1153 -0.72423400  12.010000   ; qtot -0.101056
 1154         h1     40    bbb    H15   1154 0.25637600   1.008000   ; qtot 0.155320
 1155         h1     40    bbb    H16   1155 0.25637600   1.008000   ; qtot 0.411696
 1156         c3     40    bbb     C9   1156 -0.72423400  12.010000   ; qtot -0.312538
 1157         h1     40    bbb    H17   1157 0.25637600   1.008000   ; qtot -0.056162
 1158         h1     40    bbb    H18   1158 0.25637600   1.008000   ; qtot 0.200214
 1159         os     40    bbb     O1   1159 -0.20025300  16.000000   ; qtot -0.000039
; residue   41 bbb rtp bbb q -0.0
 1160         n3     41    bbb     N1   1160 -0.59685800  14.010000   ; qtot -0.596897
 1161         c3     41    bbb     C1   1161 0.10137000  12.010000   ; qtot -0.495527
 1162         h1     41    bbb     H1   1162 0.04411300   1.008000   ; qtot -0.451414
 1163         h1     41    bbb     H2   1163 0.04411300   1.008000   ; qtot -0.407301
 1164         c3     41    bbb     C2   1164 0.10137000  12.010000   ; qtot -0.305931
 1165         h1     41    bbb     H3   1165 0.04411300   1.008000   ; qtot -0.261818
 1166         h1     41    bbb     H4   1166 0.04411300   1.008000   ; qtot -0.217705
 1167         c3     41    bbb     C3   1167 -0.00195300  12.010000   ; qtot -0.219658
 1168         h1     41    bbb     H5   1168 0.05064400   1.008000   ; qtot -0.169014
 1169         h1     41    bbb     H6   1169 0.05064400   1.008000   ; qtot -0.118370
 1170         c3     41    bbb     C4   1170 -0.01612100  12.010000   ; qtot -0.134491
 1171         hc     41    bbb     H7   1171 0.04936100   1.008000   ; qtot -0.085130
 1172         hc     41    bbb     H8   1172 0.04936100   1.008000   ; qtot -0.035769
 1173         c3     41    bbb     C5   1173 0.11363000  12.010000   ; qtot 0.077861
 1174         hc     41    bbb     H9   1174 0.06265900   1.008000   ; qtot 0.140520
 1175         hc     41    bbb    H10   1175 0.06265900   1.008000   ; qtot 0.203179
 1176         c3     41    bbb     C6   1176 0.11363000  12.010000   ; qtot 0.316809
 1177         hc     41    bbb    H11   1177 0.06265900   1.008000   ; qtot 0.379468
 1178         hc     41    bbb    H12   1178 0.06265900   1.008000   ; qtot 0.442127
 1179         c3     41    bbb     C7   1179 0.05858200  12.010000   ; qtot 0.500709
 1180         h1     41    bbb    H13   1180 0.06123400   1.008000   ; qtot 0.561943
 1181         h1     41    bbb    H14   1181 0.06123400   1.008000   ; qtot 0.623177
 1182         c3     41    bbb     C8   1182 -0.72423400  12.010000   ; qtot -0.101057
 1183         h1     41    bbb    H15   1183 0.25637600   1.008000   ; qtot 0.155319
 1184         h1     41    bbb    H16   1184 0.25637600   1.008000   ; qtot 0.411695
 1185         c3     41    bbb     C9   1185 -0.72423400  12.010000   ; qtot -0.312539
 1186         h1     41    bbb    H17   1186 0.25637600   1.008000   ; qtot -0.056163
 1187         h1     41    bbb    H18   1187 0.25637600   1.008000   ; qtot 0.200213
 1188         os     41    bbb     O1   1188 -0.20025300  16.000000   ; qtot -0.000040
; residue   42 bbb rtp bbb q -0.0
 1189         n3     42    bbb     N1   1189 -0.59685800  14.010000   ; qtot -0.596898
 1190         c3     42    bbb     C1   1190 0.10137000  12.010000   ; qtot -0.495528
 1191         h1     42    bbb     H1   1191 0.04411300   1.008000   ; qtot -0.451415
 1192         h1     42    bbb     H2   1192 0.04411300   1.008000   ; qtot -0.407302
 1193         c3     42    bbb     C2   1193 0.10137000  12.010000   ; qtot -0.305932
 1194         h1     42    bbb     H3   1194 0.04411300   1.008000   ; qtot -0.261819
 1195         h1     42    bbb     H4   1195 0.04411300   1.008000   ; qtot -0.217706
 1196         c3     42    bbb     C3   1196 -0.00195300  12.010000   ; qtot -0.219659
 1197         h1     42    bbb     H5   1197 0.05064400   1.008000   ; qtot -0.169015
 1198         h1     42    bbb     H6   1198 0.05064400   1.008000   ; qtot -0.118371
 1199         c3     42    bbb     C4   1199 -0.01612100  12.010000   ; qtot -0.134492
 1200         hc     42    bbb     H7   1200 0.04936100   1.008000   ; qtot -0.085131
 1201         hc     42    bbb     H8   1201 0.04936100   1.008000   ; qtot -0.035770
 1202         c3     42    bbb     C5   1202 0.11363000  12.010000   ; qtot 0.077860
 1203         hc     42    bbb     H9   1203 0.06265900   1.008000   ; qtot 0.140519
 1204         hc     42    bbb    H10   1204 0.06265900   1.008000   ; qtot 0.203178
 1205         c3     42    bbb     C6   1205 0.11363000  12.010000   ; qtot 0.316808
 1206         hc     42    bbb    H11   1206 0.06265900   1.008000   ; qtot 0.379467
 1207         hc     42    bbb    H12   1207 0.06265900   1.008000   ; qtot 0.442126
 1208         c3     42    bbb     C7   1208 0.05858200  12.010000   ; qtot 0.500708
 1209         h1     42    bbb    H13   1209 0.06123400   1.008000   ; qtot 0.561942
 1210         h1     42    bbb    H14   1210 0.06123400   1.008000   ; qtot 0.623176
 1211         c3     42    bbb     C8   1211 -0.72423400  12.010000   ; qtot -0.101058
 1212         h1     42    bbb    H15   1212 0.25637600   1.008000   ; qtot 0.155318
 1213         h1     42    bbb    H16   1213 0.25637600   1.008000   ; qtot 0.411694
 1214         c3     42    bbb     C9   1214 -0.72423400  12.010000   ; qtot -0.312540
 1215         h1     42    bbb    H17   1215 0.25637600   1.008000   ; qtot -0.056164
 1216         h1     42    bbb    H18   1216 0.25637600   1.008000   ; qtot 0.200212
 1217         os     42    bbb     O1   1217 -0.20025300  16.000000   ; qtot -0.000041
; residue   43 bbb rtp bbb q -0.0
 1218         n3     43    bbb     N1   1218 -0.59685800  14.010000   ; qtot -0.596899
 1219         c3     43    bbb     C1   1219 0.10137000  12.010000   ; qtot -0.495529
 1220         h1     43    bbb     H1   1220 0.04411300   1.008000   ; qtot -0.451416
 1221         h1     43    bbb     H2   1221 0.04411300   1.008000   ; qtot -0.407303
 1222         c3     43    bbb     C2   1222 0.10137000  12.010000   ; qtot -0.305933
 1223         h1     43    bbb     H3   1223 0.04411300   1.008000   ; qtot -0.261820
 1224         h1     43    bbb     H4   1224 0.04411300   1.008000   ; qtot -0.217707
 1225         c3     43    bbb     C3   1225 -0.00195300  12.010000   ; qtot -0.219660
 1226         h1     43    bbb     H5   1226 0.05064400   1.008000   ; qtot -0.169016
 1227         h1     43    bbb     H6   1227 0.05064400   1.008000   ; qtot -0.118372
 1228         c3     43    bbb     C4   1228 -0.01612100  12.010000   ; qtot -0.134493
 1229         hc     43    bbb     H7   1229 0.04936100   1.008000   ; qtot -0.085132
 1230         hc     43    bbb     H8   1230 0.04936100   1.008000   ; qtot -0.035771
 1231         c3     43    bbb     C5   1231 0.11363000  12.010000   ; qtot 0.077859
 1232         hc     43    bbb     H9   1232 0.06265900   1.008000   ; qtot 0.140518
 1233         hc     43    bbb    H10   1233 0.06265900   1.008000   ; qtot 0.203177
 1234         c3     43    bbb     C6   1234 0.11363000  12.010000   ; qtot 0.316807
 1235         hc     43    bbb    H11   1235 0.06265900   1.008000   ; qtot 0.379466
 1236         hc     43    bbb    H12   1236 0.06265900   1.008000   ; qtot 0.442125
 1237         c3     43    bbb     C7   1237 0.05858200  12.010000   ; qtot 0.500707
 1238         h1     43    bbb    H13   1238 0.06123400   1.008000   ; qtot 0.561941
 1239         h1     43    bbb    H14   1239 0.06123400   1.008000   ; qtot 0.623175
 1240         c3     43    bbb     C8   1240 -0.72423400  12.010000   ; qtot -0.101059
 1241         h1     43    bbb    H15   1241 0.25637600   1.008000   ; qtot 0.155317
 1242         h1     43    bbb    H16   1242 0.25637600   1.008000   ; qtot 0.411693
 1243         c3     43    bbb     C9   1243 -0.72423400  12.010000   ; qtot -0.312541
 1244         h1     43    bbb    H17   1244 0.25637600   1.008000   ; qtot -0.056165
 1245         h1     43    bbb    H18   1245 0.25637600   1.008000   ; qtot 0.200211
 1246         os     43    bbb     O1   1246 -0.20025300  16.000000   ; qtot -0.000042
; residue   44 bbb rtp bbb q -0.0
 1247         n3     44    bbb     N1   1247 -0.59685800  14.010000   ; qtot -0.596900
 1248         c3     44    bbb     C1   1248 0.10137000  12.010000   ; qtot -0.495530
 1249         h1     44    bbb     H1   1249 0.04411300   1.008000   ; qtot -0.451417
 1250         h1     44    bbb     H2   1250 0.04411300   1.008000   ; qtot -0.407304
 1251         c3     44    bbb     C2   1251 0.10137000  12.010000   ; qtot -0.305934
 1252         h1     44    bbb     H3   1252 0.04411300   1.008000   ; qtot -0.261821
 1253         h1     44    bbb     H4   1253 0.04411300   1.008000   ; qtot -0.217708
 1254         c3     44    bbb     C3   1254 -0.00195300  12.010000   ; qtot -0.219661
 1255         h1     44    bbb     H5   1255 0.05064400   1.008000   ; qtot -0.169017
 1256         h1     44    bbb     H6   1256 0.05064400   1.008000   ; qtot -0.118373
 1257         c3     44    bbb     C4   1257 -0.01612100  12.010000   ; qtot -0.134494
 1258         hc     44    bbb     H7   1258 0.04936100   1.008000   ; qtot -0.085133
 1259         hc     44    bbb     H8   1259 0.04936100   1.008000   ; qtot -0.035772
 1260         c3     44    bbb     C5   1260 0.11363000  12.010000   ; qtot 0.077858
 1261         hc     44    bbb     H9   1261 0.06265900   1.008000   ; qtot 0.140517
 1262         hc     44    bbb    H10   1262 0.06265900   1.008000   ; qtot 0.203176
 1263         c3     44    bbb     C6   1263 0.11363000  12.010000   ; qtot 0.316806
 1264         hc     44    bbb    H11   1264 0.06265900   1.008000   ; qtot 0.379465
 1265         hc     44    bbb    H12   1265 0.06265900   1.008000   ; qtot 0.442124
 1266         c3     44    bbb     C7   1266 0.05858200  12.010000   ; qtot 0.500706
 1267         h1     44    bbb    H13   1267 0.06123400   1.008000   ; qtot 0.561940
 1268         h1     44    bbb    H14   1268 0.06123400   1.008000   ; qtot 0.623174
 1269         c3     44    bbb     C8   1269 -0.72423400  12.010000   ; qtot -0.101060
 1270         h1     44    bbb    H15   1270 0.25637600   1.008000   ; qtot 0.155316
 1271         h1     44    bbb    H16   1271 0.25637600   1.008000   ; qtot 0.411692
 1272         c3     44    bbb     C9   1272 -0.72423400  12.010000   ; qtot -0.312542
 1273         h1     44    bbb    H17   1273 0.25637600   1.008000   ; qtot -0.056166
 1274         h1     44    bbb    H18   1274 0.25637600   1.008000   ; qtot 0.200210
 1275         os     44    bbb     O1   1275 -0.20025300  16.000000   ; qtot -0.000043
; residue   45 bbb rtp bbb q -0.0
 1276         n3     45    bbb     N1   1276 -0.59685800  14.010000   ; qtot -0.596901
 1277         c3     45    bbb     C1   1277 0.10137000  12.010000   ; qtot -0.495531
 1278         h1     45    bbb     H1   1278 0.04411300   1.008000   ; qtot -0.451418
 1279         h1     45    bbb     H2   1279 0.04411300   1.008000   ; qtot -0.407305
 1280         c3     45    bbb     C2   1280 0.10137000  12.010000   ; qtot -0.305935
 1281         h1     45    bbb     H3   1281 0.04411300   1.008000   ; qtot -0.261822
 1282         h1     45    bbb     H4   1282 0.04411300   1.008000   ; qtot -0.217709
 1283         c3     45    bbb     C3   1283 -0.00195300  12.010000   ; qtot -0.219662
 1284         h1     45    bbb     H5   1284 0.05064400   1.008000   ; qtot -0.169018
 1285         h1     45    bbb     H6   1285 0.05064400   1.008000   ; qtot -0.118374
 1286         c3     45    bbb     C4   1286 -0.01612100  12.010000   ; qtot -0.134495
 1287         hc     45    bbb     H7   1287 0.04936100   1.008000   ; qtot -0.085134
 1288         hc     45    bbb     H8   1288 0.04936100   1.008000   ; qtot -0.035773
 1289         c3     45    bbb     C5   1289 0.11363000  12.010000   ; qtot 0.077857
 1290         hc     45    bbb     H9   1290 0.06265900   1.008000   ; qtot 0.140516
 1291         hc     45    bbb    H10   1291 0.06265900   1.008000   ; qtot 0.203175
 1292         c3     45    bbb     C6   1292 0.11363000  12.010000   ; qtot 0.316805
 1293         hc     45    bbb    H11   1293 0.06265900   1.008000   ; qtot 0.379464
 1294         hc     45    bbb    H12   1294 0.06265900   1.008000   ; qtot 0.442123
 1295         c3     45    bbb     C7   1295 0.05858200  12.010000   ; qtot 0.500705
 1296         h1     45    bbb    H13   1296 0.06123400   1.008000   ; qtot 0.561939
 1297         h1     45    bbb    H14   1297 0.06123400   1.008000   ; qtot 0.623173
 1298         c3     45    bbb     C8   1298 -0.72423400  12.010000   ; qtot -0.101061
 1299         h1     45    bbb    H15   1299 0.25637600   1.008000   ; qtot 0.155315
 1300         h1     45    bbb    H16   1300 0.25637600   1.008000   ; qtot 0.411691
 1301         c3     45    bbb     C9   1301 -0.72423400  12.010000   ; qtot -0.312543
 1302         h1     45    bbb    H17   1302 0.25637600   1.008000   ; qtot -0.056167
 1303         h1     45    bbb    H18   1303 0.25637600   1.008000   ; qtot 0.200209
 1304         os     45    bbb     O1   1304 -0.20025300  16.000000   ; qtot -0.000044
; residue   46 bbb rtp bbb q -0.0
 1305         n3     46    bbb     N1   1305 -0.59685800  14.010000   ; qtot -0.596902
 1306         c3     46    bbb     C1   1306 0.10137000  12.010000   ; qtot -0.495532
 1307         h1     46    bbb     H1   1307 0.04411300   1.008000   ; qtot -0.451419
 1308         h1     46    bbb     H2   1308 0.04411300   1.008000   ; qtot -0.407306
 1309         c3     46    bbb     C2   1309 0.10137000  12.010000   ; qtot -0.305936
 1310         h1     46    bbb     H3   1310 0.04411300   1.008000   ; qtot -0.261823
 1311         h1     46    bbb     H4   1311 0.04411300   1.008000   ; qtot -0.217710
 1312         c3     46    bbb     C3   1312 -0.00195300  12.010000   ; qtot -0.219663
 1313         h1     46    bbb     H5   1313 0.05064400   1.008000   ; qtot -0.169019
 1314         h1     46    bbb     H6   1314 0.05064400   1.008000   ; qtot -0.118375
 1315         c3     46    bbb     C4   1315 -0.01612100  12.010000   ; qtot -0.134496
 1316         hc     46    bbb     H7   1316 0.04936100   1.008000   ; qtot -0.085135
 1317         hc     46    bbb     H8   1317 0.04936100   1.008000   ; qtot -0.035774
 1318         c3     46    bbb     C5   1318 0.11363000  12.010000   ; qtot 0.077856
 1319         hc     46    bbb     H9   1319 0.06265900   1.008000   ; qtot 0.140515
 1320         hc     46    bbb    H10   1320 0.06265900   1.008000   ; qtot 0.203174
 1321         c3     46    bbb     C6   1321 0.11363000  12.010000   ; qtot 0.316804
 1322         hc     46    bbb    H11   1322 0.06265900   1.008000   ; qtot 0.379463
 1323         hc     46    bbb    H12   1323 0.06265900   1.008000   ; qtot 0.442122
 1324         c3     46    bbb     C7   1324 0.05858200  12.010000   ; qtot 0.500704
 1325         h1     46    bbb    H13   1325 0.06123400   1.008000   ; qtot 0.561938
 1326         h1     46    bbb    H14   1326 0.06123400   1.008000   ; qtot 0.623172
 1327         c3     46    bbb     C8   1327 -0.72423400  12.010000   ; qtot -0.101062
 1328         h1     46    bbb    H15   1328 0.25637600   1.008000   ; qtot 0.155314
 1329         h1     46    bbb    H16   1329 0.25637600   1.008000   ; qtot 0.411690
 1330         c3     46    bbb     C9   1330 -0.72423400  12.010000   ; qtot -0.312544
 1331         h1     46    bbb    H17   1331 0.25637600   1.008000   ; qtot -0.056168
 1332         h1     46    bbb    H18   1332 0.25637600   1.008000   ; qtot 0.200208
 1333         os     46    bbb     O1   1333 -0.20025300  16.000000   ; qtot -0.000045
; residue   47 bbb rtp bbb q -0.0
 1334         n3     47    bbb     N1   1334 -0.59685800  14.010000   ; qtot -0.596903
 1335         c3     47    bbb     C1   1335 0.10137000  12.010000   ; qtot -0.495533
 1336         h1     47    bbb     H1   1336 0.04411300   1.008000   ; qtot -0.451420
 1337         h1     47    bbb     H2   1337 0.04411300   1.008000   ; qtot -0.407307
 1338         c3     47    bbb     C2   1338 0.10137000  12.010000   ; qtot -0.305937
 1339         h1     47    bbb     H3   1339 0.04411300   1.008000   ; qtot -0.261824
 1340         h1     47    bbb     H4   1340 0.04411300   1.008000   ; qtot -0.217711
 1341         c3     47    bbb     C3   1341 -0.00195300  12.010000   ; qtot -0.219664
 1342         h1     47    bbb     H5   1342 0.05064400   1.008000   ; qtot -0.169020
 1343         h1     47    bbb     H6   1343 0.05064400   1.008000   ; qtot -0.118376
 1344         c3     47    bbb     C4   1344 -0.01612100  12.010000   ; qtot -0.134497
 1345         hc     47    bbb     H7   1345 0.04936100   1.008000   ; qtot -0.085136
 1346         hc     47    bbb     H8   1346 0.04936100   1.008000   ; qtot -0.035775
 1347         c3     47    bbb     C5   1347 0.11363000  12.010000   ; qtot 0.077855
 1348         hc     47    bbb     H9   1348 0.06265900   1.008000   ; qtot 0.140514
 1349         hc     47    bbb    H10   1349 0.06265900   1.008000   ; qtot 0.203173
 1350         c3     47    bbb     C6   1350 0.11363000  12.010000   ; qtot 0.316803
 1351         hc     47    bbb    H11   1351 0.06265900   1.008000   ; qtot 0.379462
 1352         hc     47    bbb    H12   1352 0.06265900   1.008000   ; qtot 0.442121
 1353         c3     47    bbb     C7   1353 0.05858200  12.010000   ; qtot 0.500703
 1354         h1     47    bbb    H13   1354 0.06123400   1.008000   ; qtot 0.561937
 1355         h1     47    bbb    H14   1355 0.06123400   1.008000   ; qtot 0.623171
 1356         c3     47    bbb     C8   1356 -0.72423400  12.010000   ; qtot -0.101063
 1357         h1     47    bbb    H15   1357 0.25637600   1.008000   ; qtot 0.155313
 1358         h1     47    bbb    H16   1358 0.25637600   1.008000   ; qtot 0.411689
 1359         c3     47    bbb     C9   1359 -0.72423400  12.010000   ; qtot -0.312545
 1360         h1     47    bbb    H17   1360 0.25637600   1.008000   ; qtot -0.056169
 1361         h1     47    bbb    H18   1361 0.25637600   1.008000   ; qtot 0.200207
 1362         os     47    bbb     O1   1362 -0.20025300  16.000000   ; qtot -0.000046
; residue   48 bbb rtp bbb q -0.0
 1363         n3     48    bbb     N1   1363 -0.59685800  14.010000   ; qtot -0.596904
 1364         c3     48    bbb     C1   1364 0.10137000  12.010000   ; qtot -0.495534
 1365         h1     48    bbb     H1   1365 0.04411300   1.008000   ; qtot -0.451421
 1366         h1     48    bbb     H2   1366 0.04411300   1.008000   ; qtot -0.407308
 1367         c3     48    bbb     C2   1367 0.10137000  12.010000   ; qtot -0.305938
 1368         h1     48    bbb     H3   1368 0.04411300   1.008000   ; qtot -0.261825
 1369         h1     48    bbb     H4   1369 0.04411300   1.008000   ; qtot -0.217712
 1370         c3     48    bbb     C3   1370 -0.00195300  12.010000   ; qtot -0.219665
 1371         h1     48    bbb     H5   1371 0.05064400   1.008000   ; qtot -0.169021
 1372         h1     48    bbb     H6   1372 0.05064400   1.008000   ; qtot -0.118377
 1373         c3     48    bbb     C4   1373 -0.01612100  12.010000   ; qtot -0.134498
 1374         hc     48    bbb     H7   1374 0.04936100   1.008000   ; qtot -0.085137
 1375         hc     48    bbb     H8   1375 0.04936100   1.008000   ; qtot -0.035776
 1376         c3     48    bbb     C5   1376 0.11363000  12.010000   ; qtot 0.077854
 1377         hc     48    bbb     H9   1377 0.06265900   1.008000   ; qtot 0.140513
 1378         hc     48    bbb    H10   1378 0.06265900   1.008000   ; qtot 0.203172
 1379         c3     48    bbb     C6   1379 0.11363000  12.010000   ; qtot 0.316802
 1380         hc     48    bbb    H11   1380 0.06265900   1.008000   ; qtot 0.379461
 1381         hc     48    bbb    H12   1381 0.06265900   1.008000   ; qtot 0.442120
 1382         c3     48    bbb     C7   1382 0.05858200  12.010000   ; qtot 0.500702
 1383         h1     48    bbb    H13   1383 0.06123400   1.008000   ; qtot 0.561936
 1384         h1     48    bbb    H14   1384 0.06123400   1.008000   ; qtot 0.623170
 1385         c3     48    bbb     C8   1385 -0.72423400  12.010000   ; qtot -0.101064
 1386         h1     48    bbb    H15   1386 0.25637600   1.008000   ; qtot 0.155312
 1387         h1     48    bbb    H16   1387 0.25637600   1.008000   ; qtot 0.411688
 1388         c3     48    bbb     C9   1388 -0.72423400  12.010000   ; qtot -0.312546
 1389         h1     48    bbb    H17   1389 0.25637600   1.008000   ; qtot -0.056170
 1390         h1     48    bbb    H18   1390 0.25637600   1.008000   ; qtot 0.200206
 1391         os     48    bbb     O1   1391 -0.20025300  16.000000   ; qtot -0.000047
; residue   49 bbb rtp bbb q -0.0
 1392         n3     49    bbb     N1   1392 -0.59685800  14.010000   ; qtot -0.596905
 1393         c3     49    bbb     C1   1393 0.10137000  12.010000   ; qtot -0.495535
 1394         h1     49    bbb     H1   1394 0.04411300   1.008000   ; qtot -0.451422
 1395         h1     49    bbb     H2   1395 0.04411300   1.008000   ; qtot -0.407309
 1396         c3     49    bbb     C2   1396 0.10137000  12.010000   ; qtot -0.305939
 1397         h1     49    bbb     H3   1397 0.04411300   1.008000   ; qtot -0.261826
 1398         h1     49    bbb     H4   1398 0.04411300   1.008000   ; qtot -0.217713
 1399         c3     49    bbb     C3   1399 -0.00195300  12.010000   ; qtot -0.219666
 1400         h1     49    bbb     H5   1400 0.05064400   1.008000   ; qtot -0.169022
 1401         h1     49    bbb     H6   1401 0.05064400   1.008000   ; qtot -0.118378
 1402         c3     49    bbb     C4   1402 -0.01612100  12.010000   ; qtot -0.134499
 1403         hc     49    bbb     H7   1403 0.04936100   1.008000   ; qtot -0.085138
 1404         hc     49    bbb     H8   1404 0.04936100   1.008000   ; qtot -0.035777
 1405         c3     49    bbb     C5   1405 0.11363000  12.010000   ; qtot 0.077853
 1406         hc     49    bbb     H9   1406 0.06265900   1.008000   ; qtot 0.140512
 1407         hc     49    bbb    H10   1407 0.06265900   1.008000   ; qtot 0.203171
 1408         c3     49    bbb     C6   1408 0.11363000  12.010000   ; qtot 0.316801
 1409         hc     49    bbb    H11   1409 0.06265900   1.008000   ; qtot 0.379460
 1410         hc     49    bbb    H12   1410 0.06265900   1.008000   ; qtot 0.442119
 1411         c3     49    bbb     C7   1411 0.05858200  12.010000   ; qtot 0.500701
 1412         h1     49    bbb    H13   1412 0.06123400   1.008000   ; qtot 0.561935
 1413         h1     49    bbb    H14   1413 0.06123400   1.008000   ; qtot 0.623169
 1414         c3     49    bbb     C8   1414 -0.72423400  12.010000   ; qtot -0.101065
 1415         h1     49    bbb    H15   1415 0.25637600   1.008000   ; qtot 0.155311
 1416         h1     49    bbb    H16   1416 0.25637600   1.008000   ; qtot 0.411687
 1417         c3     49    bbb     C9   1417 -0.72423400  12.010000   ; qtot -0.312547
 1418         h1     49    bbb    H17   1418 0.25637600   1.008000   ; qtot -0.056171
 1419         h1     49    bbb    H18   1419 0.25637600   1.008000   ; qtot 0.200205
 1420         os     49    bbb     O1   1420 -0.20025300  16.000000   ; qtot -0.000048
; residue   50 bbb rtp bbb q -0.0
 1421         n3     50    bbb     N1   1421 -0.59685800  14.010000   ; qtot -0.596906
 1422         c3     50    bbb     C1   1422 0.10137000  12.010000   ; qtot -0.495536
 1423         h1     50    bbb     H1   1423 0.04411300   1.008000   ; qtot -0.451423
 1424         h1     50    bbb     H2   1424 0.04411300   1.008000   ; qtot -0.407310
 1425         c3     50    bbb     C2   1425 0.10137000  12.010000   ; qtot -0.305940
 1426         h1     50    bbb     H3   1426 0.04411300   1.008000   ; qtot -0.261827
 1427         h1     50    bbb     H4   1427 0.04411300   1.008000   ; qtot -0.217714
 1428         c3     50    bbb     C3   1428 -0.00195300  12.010000   ; qtot -0.219667
 1429         h1     50    bbb     H5   1429 0.05064400   1.008000   ; qtot -0.169023
 1430         h1     50    bbb     H6   1430 0.05064400   1.008000   ; qtot -0.118379
 1431         c3     50    bbb     C4   1431 -0.01612100  12.010000   ; qtot -0.134500
 1432         hc     50    bbb     H7   1432 0.04936100   1.008000   ; qtot -0.085139
 1433         hc     50    bbb     H8   1433 0.04936100   1.008000   ; qtot -0.035778
 1434         c3     50    bbb     C5   1434 0.11363000  12.010000   ; qtot 0.077852
 1435         hc     50    bbb     H9   1435 0.06265900   1.008000   ; qtot 0.140511
 1436         hc     50    bbb    H10   1436 0.06265900   1.008000   ; qtot 0.203170
 1437         c3     50    bbb     C6   1437 0.11363000  12.010000   ; qtot 0.316800
 1438         hc     50    bbb    H11   1438 0.06265900   1.008000   ; qtot 0.379459
 1439         hc     50    bbb    H12   1439 0.06265900   1.008000   ; qtot 0.442118
 1440         c3     50    bbb     C7   1440 0.05858200  12.010000   ; qtot 0.500700
 1441         h1     50    bbb    H13   1441 0.06123400   1.008000   ; qtot 0.561934
 1442         h1     50    bbb    H14   1442 0.06123400   1.008000   ; qtot 0.623168
 1443         c3     50    bbb     C8   1443 -0.72423400  12.010000   ; qtot -0.101066
 1444         h1     50    bbb    H15   1444 0.25637600   1.008000   ; qtot 0.155310
 1445         h1     50    bbb    H16   1445 0.25637600   1.008000   ; qtot 0.411686
 1446         c3     50    bbb     C9   1446 -0.72423400  12.010000   ; qtot -0.312548
 1447         h1     50    bbb    H17   1447 0.25637600   1.008000   ; qtot -0.056172
 1448         h1     50    bbb    H18   1448 0.25637600   1.008000   ; qtot 0.200204
 1449         os     50    bbb     O1   1449 -0.20025300  16.000000   ; qtot -0.000049
; residue   51 bbb rtp bbb q -0.0
 1450         n3     51    bbb     N1   1450 -0.59685800  14.010000   ; qtot -0.596907
 1451         c3     51    bbb     C1   1451 0.10137000  12.010000   ; qtot -0.495537
 1452         h1     51    bbb     H1   1452 0.04411300   1.008000   ; qtot -0.451424
 1453         h1     51    bbb     H2   1453 0.04411300   1.008000   ; qtot -0.407311
 1454         c3     51    bbb     C2   1454 0.10137000  12.010000   ; qtot -0.305941
 1455         h1     51    bbb     H3   1455 0.04411300   1.008000   ; qtot -0.261828
 1456         h1     51    bbb     H4   1456 0.04411300   1.008000   ; qtot -0.217715
 1457         c3     51    bbb     C3   1457 -0.00195300  12.010000   ; qtot -0.219668
 1458         h1     51    bbb     H5   1458 0.05064400   1.008000   ; qtot -0.169024
 1459         h1     51    bbb     H6   1459 0.05064400   1.008000   ; qtot -0.118380
 1460         c3     51    bbb     C4   1460 -0.01612100  12.010000   ; qtot -0.134501
 1461         hc     51    bbb     H7   1461 0.04936100   1.008000   ; qtot -0.085140
 1462         hc     51    bbb     H8   1462 0.04936100   1.008000   ; qtot -0.035779
 1463         c3     51    bbb     C5   1463 0.11363000  12.010000   ; qtot 0.077851
 1464         hc     51    bbb     H9   1464 0.06265900   1.008000   ; qtot 0.140510
 1465         hc     51    bbb    H10   1465 0.06265900   1.008000   ; qtot 0.203169
 1466         c3     51    bbb     C6   1466 0.11363000  12.010000   ; qtot 0.316799
 1467         hc     51    bbb    H11   1467 0.06265900   1.008000   ; qtot 0.379458
 1468         hc     51    bbb    H12   1468 0.06265900   1.008000   ; qtot 0.442117
 1469         c3     51    bbb     C7   1469 0.05858200  12.010000   ; qtot 0.500699
 1470         h1     51    bbb    H13   1470 0.06123400   1.008000   ; qtot 0.561933
 1471         h1     51    bbb    H14   1471 0.06123400   1.008000   ; qtot 0.623167
 1472         c3     51    bbb     C8   1472 -0.72423400  12.010000   ; qtot -0.101067
 1473         h1     51    bbb    H15   1473 0.25637600   1.008000   ; qtot 0.155309
 1474         h1     51    bbb    H16   1474 0.25637600   1.008000   ; qtot 0.411685
 1475         c3     51    bbb     C9   1475 -0.72423400  12.010000   ; qtot -0.312549
 1476         h1     51    bbb    H17   1476 0.25637600   1.008000   ; qtot -0.056173
 1477         h1     51    bbb    H18   1477 0.25637600   1.008000   ; qtot 0.200203
 1478         os     51    bbb     O1   1478 -0.20025300  16.000000   ; qtot -0.000050
; residue   52 bbb rtp bbb q -0.0
 1479         n3     52    bbb     N1   1479 -0.59685800  14.010000   ; qtot -0.596908
 1480         c3     52    bbb     C1   1480 0.10137000  12.010000   ; qtot -0.495538
 1481         h1     52    bbb     H1   1481 0.04411300   1.008000   ; qtot -0.451425
 1482         h1     52    bbb     H2   1482 0.04411300   1.008000   ; qtot -0.407312
 1483         c3     52    bbb     C2   1483 0.10137000  12.010000   ; qtot -0.305942
 1484         h1     52    bbb     H3   1484 0.04411300   1.008000   ; qtot -0.261829
 1485         h1     52    bbb     H4   1485 0.04411300   1.008000   ; qtot -0.217716
 1486         c3     52    bbb     C3   1486 -0.00195300  12.010000   ; qtot -0.219669
 1487         h1     52    bbb     H5   1487 0.05064400   1.008000   ; qtot -0.169025
 1488         h1     52    bbb     H6   1488 0.05064400   1.008000   ; qtot -0.118381
 1489         c3     52    bbb     C4   1489 -0.01612100  12.010000   ; qtot -0.134502
 1490         hc     52    bbb     H7   1490 0.04936100   1.008000   ; qtot -0.085141
 1491         hc     52    bbb     H8   1491 0.04936100   1.008000   ; qtot -0.035780
 1492         c3     52    bbb     C5   1492 0.11363000  12.010000   ; qtot 0.077850
 1493         hc     52    bbb     H9   1493 0.06265900   1.008000   ; qtot 0.140509
 1494         hc     52    bbb    H10   1494 0.06265900   1.008000   ; qtot 0.203168
 1495         c3     52    bbb     C6   1495 0.11363000  12.010000   ; qtot 0.316798
 1496         hc     52    bbb    H11   1496 0.06265900   1.008000   ; qtot 0.379457
 1497         hc     52    bbb    H12   1497 0.06265900   1.008000   ; qtot 0.442116
 1498         c3     52    bbb     C7   1498 0.05858200  12.010000   ; qtot 0.500698
 1499         h1     52    bbb    H13   1499 0.06123400   1.008000   ; qtot 0.561932
 1500         h1     52    bbb    H14   1500 0.06123400   1.008000   ; qtot 0.623166
 1501         c3     52    bbb     C8   1501 -0.72423400  12.010000   ; qtot -0.101068
 1502         h1     52    bbb    H15   1502 0.25637600   1.008000   ; qtot 0.155308
 1503         h1     52    bbb    H16   1503 0.25637600   1.008000   ; qtot 0.411684
 1504         c3     52    bbb     C9   1504 -0.72423400  12.010000   ; qtot -0.312550
 1505         h1     52    bbb    H17   1505 0.25637600   1.008000   ; qtot -0.056174
 1506         h1     52    bbb    H18   1506 0.25637600   1.008000   ; qtot 0.200202
 1507         os     52    bbb     O1   1507 -0.20025300  16.000000   ; qtot -0.000051
; residue   53 bbb rtp bbb q -0.0
 1508         n3     53    bbb     N1   1508 -0.59685800  14.010000   ; qtot -0.596909
 1509         c3     53    bbb     C1   1509 0.10137000  12.010000   ; qtot -0.495539
 1510         h1     53    bbb     H1   1510 0.04411300   1.008000   ; qtot -0.451426
 1511         h1     53    bbb     H2   1511 0.04411300   1.008000   ; qtot -0.407313
 1512         c3     53    bbb     C2   1512 0.10137000  12.010000   ; qtot -0.305943
 1513         h1     53    bbb     H3   1513 0.04411300   1.008000   ; qtot -0.261830
 1514         h1     53    bbb     H4   1514 0.04411300   1.008000   ; qtot -0.217717
 1515         c3     53    bbb     C3   1515 -0.00195300  12.010000   ; qtot -0.219670
 1516         h1     53    bbb     H5   1516 0.05064400   1.008000   ; qtot -0.169026
 1517         h1     53    bbb     H6   1517 0.05064400   1.008000   ; qtot -0.118382
 1518         c3     53    bbb     C4   1518 -0.01612100  12.010000   ; qtot -0.134503
 1519         hc     53    bbb     H7   1519 0.04936100   1.008000   ; qtot -0.085142
 1520         hc     53    bbb     H8   1520 0.04936100   1.008000   ; qtot -0.035781
 1521         c3     53    bbb     C5   1521 0.11363000  12.010000   ; qtot 0.077849
 1522         hc     53    bbb     H9   1522 0.06265900   1.008000   ; qtot 0.140508
 1523         hc     53    bbb    H10   1523 0.06265900   1.008000   ; qtot 0.203167
 1524         c3     53    bbb     C6   1524 0.11363000  12.010000   ; qtot 0.316797
 1525         hc     53    bbb    H11   1525 0.06265900   1.008000   ; qtot 0.379456
 1526         hc     53    bbb    H12   1526 0.06265900   1.008000   ; qtot 0.442115
 1527         c3     53    bbb     C7   1527 0.05858200  12.010000   ; qtot 0.500697
 1528         h1     53    bbb    H13   1528 0.06123400   1.008000   ; qtot 0.561931
 1529         h1     53    bbb    H14   1529 0.06123400   1.008000   ; qtot 0.623165
 1530         c3     53    bbb     C8   1530 -0.72423400  12.010000   ; qtot -0.101069
 1531         h1     53    bbb    H15   1531 0.25637600   1.008000   ; qtot 0.155307
 1532         h1     53    bbb    H16   1532 0.25637600   1.008000   ; qtot 0.411683
 1533         c3     53    bbb     C9   1533 -0.72423400  12.010000   ; qtot -0.312551
 1534         h1     53    bbb    H17   1534 0.25637600   1.008000   ; qtot -0.056175
 1535         h1     53    bbb    H18   1535 0.25637600   1.008000   ; qtot 0.200201
 1536         os     53    bbb     O1   1536 -0.20025300  16.000000   ; qtot -0.000052
; residue   54 bbb rtp bbb q -0.0
 1537         n3     54    bbb     N1   1537 -0.59685800  14.010000   ; qtot -0.596910
 1538         c3     54    bbb     C1   1538 0.10137000  12.010000   ; qtot -0.495540
 1539         h1     54    bbb     H1   1539 0.04411300   1.008000   ; qtot -0.451427
 1540         h1     54    bbb     H2   1540 0.04411300   1.008000   ; qtot -0.407314
 1541         c3     54    bbb     C2   1541 0.10137000  12.010000   ; qtot -0.305944
 1542         h1     54    bbb     H3   1542 0.04411300   1.008000   ; qtot -0.261831
 1543         h1     54    bbb     H4   1543 0.04411300   1.008000   ; qtot -0.217718
 1544         c3     54    bbb     C3   1544 -0.00195300  12.010000   ; qtot -0.219671
 1545         h1     54    bbb     H5   1545 0.05064400   1.008000   ; qtot -0.169027
 1546         h1     54    bbb     H6   1546 0.05064400   1.008000   ; qtot -0.118383
 1547         c3     54    bbb     C4   1547 -0.01612100  12.010000   ; qtot -0.134504
 1548         hc     54    bbb     H7   1548 0.04936100   1.008000   ; qtot -0.085143
 1549         hc     54    bbb     H8   1549 0.04936100   1.008000   ; qtot -0.035782
 1550         c3     54    bbb     C5   1550 0.11363000  12.010000   ; qtot 0.077848
 1551         hc     54    bbb     H9   1551 0.06265900   1.008000   ; qtot 0.140507
 1552         hc     54    bbb    H10   1552 0.06265900   1.008000   ; qtot 0.203166
 1553         c3     54    bbb     C6   1553 0.11363000  12.010000   ; qtot 0.316796
 1554         hc     54    bbb    H11   1554 0.06265900   1.008000   ; qtot 0.379455
 1555         hc     54    bbb    H12   1555 0.06265900   1.008000   ; qtot 0.442114
 1556         c3     54    bbb     C7   1556 0.05858200  12.010000   ; qtot 0.500696
 1557         h1     54    bbb    H13   1557 0.06123400   1.008000   ; qtot 0.561930
 1558         h1     54    bbb    H14   1558 0.06123400   1.008000   ; qtot 0.623164
 1559         c3     54    bbb     C8   1559 -0.72423400  12.010000   ; qtot -0.101070
 1560         h1     54    bbb    H15   1560 0.25637600   1.008000   ; qtot 0.155306
 1561         h1     54    bbb    H16   1561 0.25637600   1.008000   ; qtot 0.411682
 1562         c3     54    bbb     C9   1562 -0.72423400  12.010000   ; qtot -0.312552
 1563         h1     54    bbb    H17   1563 0.25637600   1.008000   ; qtot -0.056176
 1564         h1     54    bbb    H18   1564 0.25637600   1.008000   ; qtot 0.200200
 1565         os     54    bbb     O1   1565 -0.20025300  16.000000   ; qtot -0.000053
; residue   55 bbb rtp bbb q -0.0
 1566         n3     55    bbb     N1   1566 -0.59685800  14.010000   ; qtot -0.596911
 1567         c3     55    bbb     C1   1567 0.10137000  12.010000   ; qtot -0.495541
 1568         h1     55    bbb     H1   1568 0.04411300   1.008000   ; qtot -0.451428
 1569         h1     55    bbb     H2   1569 0.04411300   1.008000   ; qtot -0.407315
 1570         c3     55    bbb     C2   1570 0.10137000  12.010000   ; qtot -0.305945
 1571         h1     55    bbb     H3   1571 0.04411300   1.008000   ; qtot -0.261832
 1572         h1     55    bbb     H4   1572 0.04411300   1.008000   ; qtot -0.217719
 1573         c3     55    bbb     C3   1573 -0.00195300  12.010000   ; qtot -0.219672
 1574         h1     55    bbb     H5   1574 0.05064400   1.008000   ; qtot -0.169028
 1575         h1     55    bbb     H6   1575 0.05064400   1.008000   ; qtot -0.118384
 1576         c3     55    bbb     C4   1576 -0.01612100  12.010000   ; qtot -0.134505
 1577         hc     55    bbb     H7   1577 0.04936100   1.008000   ; qtot -0.085144
 1578         hc     55    bbb     H8   1578 0.04936100   1.008000   ; qtot -0.035783
 1579         c3     55    bbb     C5   1579 0.11363000  12.010000   ; qtot 0.077847
 1580         hc     55    bbb     H9   1580 0.06265900   1.008000   ; qtot 0.140506
 1581         hc     55    bbb    H10   1581 0.06265900   1.008000   ; qtot 0.203165
 1582         c3     55    bbb     C6   1582 0.11363000  12.010000   ; qtot 0.316795
 1583         hc     55    bbb    H11   1583 0.06265900   1.008000   ; qtot 0.379454
 1584         hc     55    bbb    H12   1584 0.06265900   1.008000   ; qtot 0.442113
 1585         c3     55    bbb     C7   1585 0.05858200  12.010000   ; qtot 0.500695
 1586         h1     55    bbb    H13   1586 0.06123400   1.008000   ; qtot 0.561929
 1587         h1     55    bbb    H14   1587 0.06123400   1.008000   ; qtot 0.623163
 1588         c3     55    bbb     C8   1588 -0.72423400  12.010000   ; qtot -0.101071
 1589         h1     55    bbb    H15   1589 0.25637600   1.008000   ; qtot 0.155305
 1590         h1     55    bbb    H16   1590 0.25637600   1.008000   ; qtot 0.411681
 1591         c3     55    bbb     C9   1591 -0.72423400  12.010000   ; qtot -0.312553
 1592         h1     55    bbb    H17   1592 0.25637600   1.008000   ; qtot -0.056177
 1593         h1     55    bbb    H18   1593 0.25637600   1.008000   ; qtot 0.200199
 1594         os     55    bbb     O1   1594 -0.20025300  16.000000   ; qtot -0.000054
; residue   56 bbb rtp bbb q -0.0
 1595         n3     56    bbb     N1   1595 -0.59685800  14.010000   ; qtot -0.596912
 1596         c3     56    bbb     C1   1596 0.10137000  12.010000   ; qtot -0.495542
 1597         h1     56    bbb     H1   1597 0.04411300   1.008000   ; qtot -0.451429
 1598         h1     56    bbb     H2   1598 0.04411300   1.008000   ; qtot -0.407316
 1599         c3     56    bbb     C2   1599 0.10137000  12.010000   ; qtot -0.305946
 1600         h1     56    bbb     H3   1600 0.04411300   1.008000   ; qtot -0.261833
 1601         h1     56    bbb     H4   1601 0.04411300   1.008000   ; qtot -0.217720
 1602         c3     56    bbb     C3   1602 -0.00195300  12.010000   ; qtot -0.219673
 1603         h1     56    bbb     H5   1603 0.05064400   1.008000   ; qtot -0.169029
 1604         h1     56    bbb     H6   1604 0.05064400   1.008000   ; qtot -0.118385
 1605         c3     56    bbb     C4   1605 -0.01612100  12.010000   ; qtot -0.134506
 1606         hc     56    bbb     H7   1606 0.04936100   1.008000   ; qtot -0.085145
 1607         hc     56    bbb     H8   1607 0.04936100   1.008000   ; qtot -0.035784
 1608         c3     56    bbb     C5   1608 0.11363000  12.010000   ; qtot 0.077846
 1609         hc     56    bbb     H9   1609 0.06265900   1.008000   ; qtot 0.140505
 1610         hc     56    bbb    H10   1610 0.06265900   1.008000   ; qtot 0.203164
 1611         c3     56    bbb     C6   1611 0.11363000  12.010000   ; qtot 0.316794
 1612         hc     56    bbb    H11   1612 0.06265900   1.008000   ; qtot 0.379453
 1613         hc     56    bbb    H12   1613 0.06265900   1.008000   ; qtot 0.442112
 1614         c3     56    bbb     C7   1614 0.05858200  12.010000   ; qtot 0.500694
 1615         h1     56    bbb    H13   1615 0.06123400   1.008000   ; qtot 0.561928
 1616         h1     56    bbb    H14   1616 0.06123400   1.008000   ; qtot 0.623162
 1617         c3     56    bbb     C8   1617 -0.72423400  12.010000   ; qtot -0.101072
 1618         h1     56    bbb    H15   1618 0.25637600   1.008000   ; qtot 0.155304
 1619         h1     56    bbb    H16   1619 0.25637600   1.008000   ; qtot 0.411680
 1620         c3     56    bbb     C9   1620 -0.72423400  12.010000   ; qtot -0.312554
 1621         h1     56    bbb    H17   1621 0.25637600   1.008000   ; qtot -0.056178
 1622         h1     56    bbb    H18   1622 0.25637600   1.008000   ; qtot 0.200198
 1623         os     56    bbb     O1   1623 -0.20025300  16.000000   ; qtot -0.000055
; residue   57 bbb rtp bbb q -0.0
 1624         n3     57    bbb     N1   1624 -0.59685800  14.010000   ; qtot -0.596913
 1625         c3     57    bbb     C1   1625 0.10137000  12.010000   ; qtot -0.495543
 1626         h1     57    bbb     H1   1626 0.04411300   1.008000   ; qtot -0.451430
 1627         h1     57    bbb     H2   1627 0.04411300   1.008000   ; qtot -0.407317
 1628         c3     57    bbb     C2   1628 0.10137000  12.010000   ; qtot -0.305947
 1629         h1     57    bbb     H3   1629 0.04411300   1.008000   ; qtot -0.261834
 1630         h1     57    bbb     H4   1630 0.04411300   1.008000   ; qtot -0.217721
 1631         c3     57    bbb     C3   1631 -0.00195300  12.010000   ; qtot -0.219674
 1632         h1     57    bbb     H5   1632 0.05064400   1.008000   ; qtot -0.169030
 1633         h1     57    bbb     H6   1633 0.05064400   1.008000   ; qtot -0.118386
 1634         c3     57    bbb     C4   1634 -0.01612100  12.010000   ; qtot -0.134507
 1635         hc     57    bbb     H7   1635 0.04936100   1.008000   ; qtot -0.085146
 1636         hc     57    bbb     H8   1636 0.04936100   1.008000   ; qtot -0.035785
 1637         c3     57    bbb     C5   1637 0.11363000  12.010000   ; qtot 0.077845
 1638         hc     57    bbb     H9   1638 0.06265900   1.008000   ; qtot 0.140504
 1639         hc     57    bbb    H10   1639 0.06265900   1.008000   ; qtot 0.203163
 1640         c3     57    bbb     C6   1640 0.11363000  12.010000   ; qtot 0.316793
 1641         hc     57    bbb    H11   1641 0.06265900   1.008000   ; qtot 0.379452
 1642         hc     57    bbb    H12   1642 0.06265900   1.008000   ; qtot 0.442111
 1643         c3     57    bbb     C7   1643 0.05858200  12.010000   ; qtot 0.500693
 1644         h1     57    bbb    H13   1644 0.06123400   1.008000   ; qtot 0.561927
 1645         h1     57    bbb    H14   1645 0.06123400   1.008000   ; qtot 0.623161
 1646         c3     57    bbb     C8   1646 -0.72423400  12.010000   ; qtot -0.101073
 1647         h1     57    bbb    H15   1647 0.25637600   1.008000   ; qtot 0.155303
 1648         h1     57    bbb    H16   1648 0.25637600   1.008000   ; qtot 0.411679
 1649         c3     57    bbb     C9   1649 -0.72423400  12.010000   ; qtot -0.312555
 1650         h1     57    bbb    H17   1650 0.25637600   1.008000   ; qtot -0.056179
 1651         h1     57    bbb    H18   1651 0.25637600   1.008000   ; qtot 0.200197
 1652         os     57    bbb     O1   1652 -0.20025300  16.000000   ; qtot -0.000056
; residue   58 bbb rtp bbb q -0.0
 1653         n3     58    bbb     N1   1653 -0.59685800  14.010000   ; qtot -0.596914
 1654         c3     58    bbb     C1   1654 0.10137000  12.010000   ; qtot -0.495544
 1655         h1     58    bbb     H1   1655 0.04411300   1.008000   ; qtot -0.451431
 1656         h1     58    bbb     H2   1656 0.04411300   1.008000   ; qtot -0.407318
 1657         c3     58    bbb     C2   1657 0.10137000  12.010000   ; qtot -0.305948
 1658         h1     58    bbb     H3   1658 0.04411300   1.008000   ; qtot -0.261835
 1659         h1     58    bbb     H4   1659 0.04411300   1.008000   ; qtot -0.217722
 1660         c3     58    bbb     C3   1660 -0.00195300  12.010000   ; qtot -0.219675
 1661         h1     58    bbb     H5   1661 0.05064400   1.008000   ; qtot -0.169031
 1662         h1     58    bbb     H6   1662 0.05064400   1.008000   ; qtot -0.118387
 1663         c3     58    bbb     C4   1663 -0.01612100  12.010000   ; qtot -0.134508
 1664         hc     58    bbb     H7   1664 0.04936100   1.008000   ; qtot -0.085147
 1665         hc     58    bbb     H8   1665 0.04936100   1.008000   ; qtot -0.035786
 1666         c3     58    bbb     C5   1666 0.11363000  12.010000   ; qtot 0.077844
 1667         hc     58    bbb     H9   1667 0.06265900   1.008000   ; qtot 0.140503
 1668         hc     58    bbb    H10   1668 0.06265900   1.008000   ; qtot 0.203162
 1669         c3     58    bbb     C6   1669 0.11363000  12.010000   ; qtot 0.316792
 1670         hc     58    bbb    H11   1670 0.06265900   1.008000   ; qtot 0.379451
 1671         hc     58    bbb    H12   1671 0.06265900   1.008000   ; qtot 0.442110
 1672         c3     58    bbb     C7   1672 0.05858200  12.010000   ; qtot 0.500692
 1673         h1     58    bbb    H13   1673 0.06123400   1.008000   ; qtot 0.561926
 1674         h1     58    bbb    H14   1674 0.06123400   1.008000   ; qtot 0.623160
 1675         c3     58    bbb     C8   1675 -0.72423400  12.010000   ; qtot -0.101074
 1676         h1     58    bbb    H15   1676 0.25637600   1.008000   ; qtot 0.155302
 1677         h1     58    bbb    H16   1677 0.25637600   1.008000   ; qtot 0.411678
 1678         c3     58    bbb     C9   1678 -0.72423400  12.010000   ; qtot -0.312556
 1679         h1     58    bbb    H17   1679 0.25637600   1.008000   ; qtot -0.056180
 1680         h1     58    bbb    H18   1680 0.25637600   1.008000   ; qtot 0.200196
 1681         os     58    bbb     O1   1681 -0.20025300  16.000000   ; qtot -0.000057
; residue   59 bbb rtp bbb q -0.0
 1682         n3     59    bbb     N1   1682 -0.59685800  14.010000   ; qtot -0.596915
 1683         c3     59    bbb     C1   1683 0.10137000  12.010000   ; qtot -0.495545
 1684         h1     59    bbb     H1   1684 0.04411300   1.008000   ; qtot -0.451432
 1685         h1     59    bbb     H2   1685 0.04411300   1.008000   ; qtot -0.407319
 1686         c3     59    bbb     C2   1686 0.10137000  12.010000   ; qtot -0.305949
 1687         h1     59    bbb     H3   1687 0.04411300   1.008000   ; qtot -0.261836
 1688         h1     59    bbb     H4   1688 0.04411300   1.008000   ; qtot -0.217723
 1689         c3     59    bbb     C3   1689 -0.00195300  12.010000   ; qtot -0.219676
 1690         h1     59    bbb     H5   1690 0.05064400   1.008000   ; qtot -0.169032
 1691         h1     59    bbb     H6   1691 0.05064400   1.008000   ; qtot -0.118388
 1692         c3     59    bbb     C4   1692 -0.01612100  12.010000   ; qtot -0.134509
 1693         hc     59    bbb     H7   1693 0.04936100   1.008000   ; qtot -0.085148
 1694         hc     59    bbb     H8   1694 0.04936100   1.008000   ; qtot -0.035787
 1695         c3     59    bbb     C5   1695 0.11363000  12.010000   ; qtot 0.077843
 1696         hc     59    bbb     H9   1696 0.06265900   1.008000   ; qtot 0.140502
 1697         hc     59    bbb    H10   1697 0.06265900   1.008000   ; qtot 0.203161
 1698         c3     59    bbb     C6   1698 0.11363000  12.010000   ; qtot 0.316791
 1699         hc     59    bbb    H11   1699 0.06265900   1.008000   ; qtot 0.379450
 1700         hc     59    bbb    H12   1700 0.06265900   1.008000   ; qtot 0.442109
 1701         c3     59    bbb     C7   1701 0.05858200  12.010000   ; qtot 0.500691
 1702         h1     59    bbb    H13   1702 0.06123400   1.008000   ; qtot 0.561925
 1703         h1     59    bbb    H14   1703 0.06123400   1.008000   ; qtot 0.623159
 1704         c3     59    bbb     C8   1704 -0.72423400  12.010000   ; qtot -0.101075
 1705         h1     59    bbb    H15   1705 0.25637600   1.008000   ; qtot 0.155301
 1706         h1     59    bbb    H16   1706 0.25637600   1.008000   ; qtot 0.411677
 1707         c3     59    bbb     C9   1707 -0.72423400  12.010000   ; qtot -0.312557
 1708         h1     59    bbb    H17   1708 0.25637600   1.008000   ; qtot -0.056181
 1709         h1     59    bbb    H18   1709 0.25637600   1.008000   ; qtot 0.200195
 1710         os     59    bbb     O1   1710 -0.20025300  16.000000   ; qtot -0.000058
; residue   60 bbb rtp bbb q -0.0
 1711         n3     60    bbb     N1   1711 -0.59685800  14.010000   ; qtot -0.596916
 1712         c3     60    bbb     C1   1712 0.10137000  12.010000   ; qtot -0.495546
 1713         h1     60    bbb     H1   1713 0.04411300   1.008000   ; qtot -0.451433
 1714         h1     60    bbb     H2   1714 0.04411300   1.008000   ; qtot -0.407320
 1715         c3     60    bbb     C2   1715 0.10137000  12.010000   ; qtot -0.305950
 1716         h1     60    bbb     H3   1716 0.04411300   1.008000   ; qtot -0.261837
 1717         h1     60    bbb     H4   1717 0.04411300   1.008000   ; qtot -0.217724
 1718         c3     60    bbb     C3   1718 -0.00195300  12.010000   ; qtot -0.219677
 1719         h1     60    bbb     H5   1719 0.05064400   1.008000   ; qtot -0.169033
 1720         h1     60    bbb     H6   1720 0.05064400   1.008000   ; qtot -0.118389
 1721         c3     60    bbb     C4   1721 -0.01612100  12.010000   ; qtot -0.134510
 1722         hc     60    bbb     H7   1722 0.04936100   1.008000   ; qtot -0.085149
 1723         hc     60    bbb     H8   1723 0.04936100   1.008000   ; qtot -0.035788
 1724         c3     60    bbb     C5   1724 0.11363000  12.010000   ; qtot 0.077842
 1725         hc     60    bbb     H9   1725 0.06265900   1.008000   ; qtot 0.140501
 1726         hc     60    bbb    H10   1726 0.06265900   1.008000   ; qtot 0.203160
 1727         c3     60    bbb     C6   1727 0.11363000  12.010000   ; qtot 0.316790
 1728         hc     60    bbb    H11   1728 0.06265900   1.008000   ; qtot 0.379449
 1729         hc     60    bbb    H12   1729 0.06265900   1.008000   ; qtot 0.442108
 1730         c3     60    bbb     C7   1730 0.05858200  12.010000   ; qtot 0.500690
 1731         h1     60    bbb    H13   1731 0.06123400   1.008000   ; qtot 0.561924
 1732         h1     60    bbb    H14   1732 0.06123400   1.008000   ; qtot 0.623158
 1733         c3     60    bbb     C8   1733 -0.72423400  12.010000   ; qtot -0.101076
 1734         h1     60    bbb    H15   1734 0.25637600   1.008000   ; qtot 0.155300
 1735         h1     60    bbb    H16   1735 0.25637600   1.008000   ; qtot 0.411676
 1736         c3     60    bbb     C9   1736 -0.72423400  12.010000   ; qtot -0.312558
 1737         h1     60    bbb    H17   1737 0.25637600   1.008000   ; qtot -0.056182
 1738         h1     60    bbb    H18   1738 0.25637600   1.008000   ; qtot 0.200194
 1739         os     60    bbb     O1   1739 -0.20025300  16.000000   ; qtot -0.000059
; residue   61 bbb rtp bbb q -0.0
 1740         n3     61    bbb     N1   1740 -0.59685800  14.010000   ; qtot -0.596917
 1741         c3     61    bbb     C1   1741 0.10137000  12.010000   ; qtot -0.495547
 1742         h1     61    bbb     H1   1742 0.04411300   1.008000   ; qtot -0.451434
 1743         h1     61    bbb     H2   1743 0.04411300   1.008000   ; qtot -0.407321
 1744         c3     61    bbb     C2   1744 0.10137000  12.010000   ; qtot -0.305951
 1745         h1     61    bbb     H3   1745 0.04411300   1.008000   ; qtot -0.261838
 1746         h1     61    bbb     H4   1746 0.04411300   1.008000   ; qtot -0.217725
 1747         c3     61    bbb     C3   1747 -0.00195300  12.010000   ; qtot -0.219678
 1748         h1     61    bbb     H5   1748 0.05064400   1.008000   ; qtot -0.169034
 1749         h1     61    bbb     H6   1749 0.05064400   1.008000   ; qtot -0.118390
 1750         c3     61    bbb     C4   1750 -0.01612100  12.010000   ; qtot -0.134511
 1751         hc     61    bbb     H7   1751 0.04936100   1.008000   ; qtot -0.085150
 1752         hc     61    bbb     H8   1752 0.04936100   1.008000   ; qtot -0.035789
 1753         c3     61    bbb     C5   1753 0.11363000  12.010000   ; qtot 0.077841
 1754         hc     61    bbb     H9   1754 0.06265900   1.008000   ; qtot 0.140500
 1755         hc     61    bbb    H10   1755 0.06265900   1.008000   ; qtot 0.203159
 1756         c3     61    bbb     C6   1756 0.11363000  12.010000   ; qtot 0.316789
 1757         hc     61    bbb    H11   1757 0.06265900   1.008000   ; qtot 0.379448
 1758         hc     61    bbb    H12   1758 0.06265900   1.008000   ; qtot 0.442107
 1759         c3     61    bbb     C7   1759 0.05858200  12.010000   ; qtot 0.500689
 1760         h1     61    bbb    H13   1760 0.06123400   1.008000   ; qtot 0.561923
 1761         h1     61    bbb    H14   1761 0.06123400   1.008000   ; qtot 0.623157
 1762         c3     61    bbb     C8   1762 -0.72423400  12.010000   ; qtot -0.101077
 1763         h1     61    bbb    H15   1763 0.25637600   1.008000   ; qtot 0.155299
 1764         h1     61    bbb    H16   1764 0.25637600   1.008000   ; qtot 0.411675
 1765         c3     61    bbb     C9   1765 -0.72423400  12.010000   ; qtot -0.312559
 1766         h1     61    bbb    H17   1766 0.25637600   1.008000   ; qtot -0.056183
 1767         h1     61    bbb    H18   1767 0.25637600   1.008000   ; qtot 0.200193
 1768         os     61    bbb     O1   1768 -0.20025300  16.000000   ; qtot -0.000060
; residue   62 bbb rtp bbb q -0.0
 1769         n3     62    bbb     N1   1769 -0.59685800  14.010000   ; qtot -0.596918
 1770         c3     62    bbb     C1   1770 0.10137000  12.010000   ; qtot -0.495548
 1771         h1     62    bbb     H1   1771 0.04411300   1.008000   ; qtot -0.451435
 1772         h1     62    bbb     H2   1772 0.04411300   1.008000   ; qtot -0.407322
 1773         c3     62    bbb     C2   1773 0.10137000  12.010000   ; qtot -0.305952
 1774         h1     62    bbb     H3   1774 0.04411300   1.008000   ; qtot -0.261839
 1775         h1     62    bbb     H4   1775 0.04411300   1.008000   ; qtot -0.217726
 1776         c3     62    bbb     C3   1776 -0.00195300  12.010000   ; qtot -0.219679
 1777         h1     62    bbb     H5   1777 0.05064400   1.008000   ; qtot -0.169035
 1778         h1     62    bbb     H6   1778 0.05064400   1.008000   ; qtot -0.118391
 1779         c3     62    bbb     C4   1779 -0.01612100  12.010000   ; qtot -0.134512
 1780         hc     62    bbb     H7   1780 0.04936100   1.008000   ; qtot -0.085151
 1781         hc     62    bbb     H8   1781 0.04936100   1.008000   ; qtot -0.035790
 1782         c3     62    bbb     C5   1782 0.11363000  12.010000   ; qtot 0.077840
 1783         hc     62    bbb     H9   1783 0.06265900   1.008000   ; qtot 0.140499
 1784         hc     62    bbb    H10   1784 0.06265900   1.008000   ; qtot 0.203158
 1785         c3     62    bbb     C6   1785 0.11363000  12.010000   ; qtot 0.316788
 1786         hc     62    bbb    H11   1786 0.06265900   1.008000   ; qtot 0.379447
 1787         hc     62    bbb    H12   1787 0.06265900   1.008000   ; qtot 0.442106
 1788         c3     62    bbb     C7   1788 0.05858200  12.010000   ; qtot 0.500688
 1789         h1     62    bbb    H13   1789 0.06123400   1.008000   ; qtot 0.561922
 1790         h1     62    bbb    H14   1790 0.06123400   1.008000   ; qtot 0.623156
 1791         c3     62    bbb     C8   1791 -0.72423400  12.010000   ; qtot -0.101078
 1792         h1     62    bbb    H15   1792 0.25637600   1.008000   ; qtot 0.155298
 1793         h1     62    bbb    H16   1793 0.25637600   1.008000   ; qtot 0.411674
 1794         c3     62    bbb     C9   1794 -0.72423400  12.010000   ; qtot -0.312560
 1795         h1     62    bbb    H17   1795 0.25637600   1.008000   ; qtot -0.056184
 1796         h1     62    bbb    H18   1796 0.25637600   1.008000   ; qtot 0.200192
 1797         os     62    bbb     O1   1797 -0.20025300  16.000000   ; qtot -0.000061
; residue   63 bbb rtp bbb q -0.0
 1798         n3     63    bbb     N1   1798 -0.59685800  14.010000   ; qtot -0.596919
 1799         c3     63    bbb     C1   1799 0.10137000  12.010000   ; qtot -0.495549
 1800         h1     63    bbb     H1   1800 0.04411300   1.008000   ; qtot -0.451436
 1801         h1     63    bbb     H2   1801 0.04411300   1.008000   ; qtot -0.407323
 1802         c3     63    bbb     C2   1802 0.10137000  12.010000   ; qtot -0.305953
 1803         h1     63    bbb     H3   1803 0.04411300   1.008000   ; qtot -0.261840
 1804         h1     63    bbb     H4   1804 0.04411300   1.008000   ; qtot -0.217727
 1805         c3     63    bbb     C3   1805 -0.00195300  12.010000   ; qtot -0.219680
 1806         h1     63    bbb     H5   1806 0.05064400   1.008000   ; qtot -0.169036
 1807         h1     63    bbb     H6   1807 0.05064400   1.008000   ; qtot -0.118392
 1808         c3     63    bbb     C4   1808 -0.01612100  12.010000   ; qtot -0.134513
 1809         hc     63    bbb     H7   1809 0.04936100   1.008000   ; qtot -0.085152
 1810         hc     63    bbb     H8   1810 0.04936100   1.008000   ; qtot -0.035791
 1811         c3     63    bbb     C5   1811 0.11363000  12.010000   ; qtot 0.077839
 1812         hc     63    bbb     H9   1812 0.06265900   1.008000   ; qtot 0.140498
 1813         hc     63    bbb    H10   1813 0.06265900   1.008000   ; qtot 0.203157
 1814         c3     63    bbb     C6   1814 0.11363000  12.010000   ; qtot 0.316787
 1815         hc     63    bbb    H11   1815 0.06265900   1.008000   ; qtot 0.379446
 1816         hc     63    bbb    H12   1816 0.06265900   1.008000   ; qtot 0.442105
 1817         c3     63    bbb     C7   1817 0.05858200  12.010000   ; qtot 0.500687
 1818         h1     63    bbb    H13   1818 0.06123400   1.008000   ; qtot 0.561921
 1819         h1     63    bbb    H14   1819 0.06123400   1.008000   ; qtot 0.623155
 1820         c3     63    bbb     C8   1820 -0.72423400  12.010000   ; qtot -0.101079
 1821         h1     63    bbb    H15   1821 0.25637600   1.008000   ; qtot 0.155297
 1822         h1     63    bbb    H16   1822 0.25637600   1.008000   ; qtot 0.411673
 1823         c3     63    bbb     C9   1823 -0.72423400  12.010000   ; qtot -0.312561
 1824         h1     63    bbb    H17   1824 0.25637600   1.008000   ; qtot -0.056185
 1825         h1     63    bbb    H18   1825 0.25637600   1.008000   ; qtot 0.200191
 1826         os     63    bbb     O1   1826 -0.20025300  16.000000   ; qtot -0.000062
; residue   64 bbb rtp bbb q -0.0
 1827         n3     64    bbb     N1   1827 -0.59685800  14.010000   ; qtot -0.596920
 1828         c3     64    bbb     C1   1828 0.10137000  12.010000   ; qtot -0.495550
 1829         h1     64    bbb     H1   1829 0.04411300   1.008000   ; qtot -0.451437
 1830         h1     64    bbb     H2   1830 0.04411300   1.008000   ; qtot -0.407324
 1831         c3     64    bbb     C2   1831 0.10137000  12.010000   ; qtot -0.305954
 1832         h1     64    bbb     H3   1832 0.04411300   1.008000   ; qtot -0.261841
 1833         h1     64    bbb     H4   1833 0.04411300   1.008000   ; qtot -0.217728
 1834         c3     64    bbb     C3   1834 -0.00195300  12.010000   ; qtot -0.219681
 1835         h1     64    bbb     H5   1835 0.05064400   1.008000   ; qtot -0.169037
 1836         h1     64    bbb     H6   1836 0.05064400   1.008000   ; qtot -0.118393
 1837         c3     64    bbb     C4   1837 -0.01612100  12.010000   ; qtot -0.134514
 1838         hc     64    bbb     H7   1838 0.04936100   1.008000   ; qtot -0.085153
 1839         hc     64    bbb     H8   1839 0.04936100   1.008000   ; qtot -0.035792
 1840         c3     64    bbb     C5   1840 0.11363000  12.010000   ; qtot 0.077838
 1841         hc     64    bbb     H9   1841 0.06265900   1.008000   ; qtot 0.140497
 1842         hc     64    bbb    H10   1842 0.06265900   1.008000   ; qtot 0.203156
 1843         c3     64    bbb     C6   1843 0.11363000  12.010000   ; qtot 0.316786
 1844         hc     64    bbb    H11   1844 0.06265900   1.008000   ; qtot 0.379445
 1845         hc     64    bbb    H12   1845 0.06265900   1.008000   ; qtot 0.442104
 1846         c3     64    bbb     C7   1846 0.05858200  12.010000   ; qtot 0.500686
 1847         h1     64    bbb    H13   1847 0.06123400   1.008000   ; qtot 0.561920
 1848         h1     64    bbb    H14   1848 0.06123400   1.008000   ; qtot 0.623154
 1849         c3     64    bbb     C8   1849 -0.72423400  12.010000   ; qtot -0.101080
 1850         h1     64    bbb    H15   1850 0.25637600   1.008000   ; qtot 0.155296
 1851         h1     64    bbb    H16   1851 0.25637600   1.008000   ; qtot 0.411672
 1852         c3     64    bbb     C9   1852 -0.72423400  12.010000   ; qtot -0.312562
 1853         h1     64    bbb    H17   1853 0.25637600   1.008000   ; qtot -0.056186
 1854         h1     64    bbb    H18   1854 0.25637600   1.008000   ; qtot 0.200190
 1855         os     64    bbb     O1   1855 -0.20025300  16.000000   ; qtot -0.000063
; residue   65 bbb rtp bbb q -0.0
 1856         n3     65    bbb     N1   1856 -0.59685800  14.010000   ; qtot -0.596921
 1857         c3     65    bbb     C1   1857 0.10137000  12.010000   ; qtot -0.495551
 1858         h1     65    bbb     H1   1858 0.04411300   1.008000   ; qtot -0.451438
 1859         h1     65    bbb     H2   1859 0.04411300   1.008000   ; qtot -0.407325
 1860         c3     65    bbb     C2   1860 0.10137000  12.010000   ; qtot -0.305955
 1861         h1     65    bbb     H3   1861 0.04411300   1.008000   ; qtot -0.261842
 1862         h1     65    bbb     H4   1862 0.04411300   1.008000   ; qtot -0.217729
 1863         c3     65    bbb     C3   1863 -0.00195300  12.010000   ; qtot -0.219682
 1864         h1     65    bbb     H5   1864 0.05064400   1.008000   ; qtot -0.169038
 1865         h1     65    bbb     H6   1865 0.05064400   1.008000   ; qtot -0.118394
 1866         c3     65    bbb     C4   1866 -0.01612100  12.010000   ; qtot -0.134515
 1867         hc     65    bbb     H7   1867 0.04936100   1.008000   ; qtot -0.085154
 1868         hc     65    bbb     H8   1868 0.04936100   1.008000   ; qtot -0.035793
 1869         c3     65    bbb     C5   1869 0.11363000  12.010000   ; qtot 0.077837
 1870         hc     65    bbb     H9   1870 0.06265900   1.008000   ; qtot 0.140496
 1871         hc     65    bbb    H10   1871 0.06265900   1.008000   ; qtot 0.203155
 1872         c3     65    bbb     C6   1872 0.11363000  12.010000   ; qtot 0.316785
 1873         hc     65    bbb    H11   1873 0.06265900   1.008000   ; qtot 0.379444
 1874         hc     65    bbb    H12   1874 0.06265900   1.008000   ; qtot 0.442103
 1875         c3     65    bbb     C7   1875 0.05858200  12.010000   ; qtot 0.500685
 1876         h1     65    bbb    H13   1876 0.06123400   1.008000   ; qtot 0.561919
 1877         h1     65    bbb    H14   1877 0.06123400   1.008000   ; qtot 0.623153
 1878         c3     65    bbb     C8   1878 -0.72423400  12.010000   ; qtot -0.101081
 1879         h1     65    bbb    H15   1879 0.25637600   1.008000   ; qtot 0.155295
 1880         h1     65    bbb    H16   1880 0.25637600   1.008000   ; qtot 0.411671
 1881         c3     65    bbb     C9   1881 -0.72423400  12.010000   ; qtot -0.312563
 1882         h1     65    bbb    H17   1882 0.25637600   1.008000   ; qtot -0.056187
 1883         h1     65    bbb    H18   1883 0.25637600   1.008000   ; qtot 0.200189
 1884         os     65    bbb     O1   1884 -0.20025300  16.000000   ; qtot -0.000064
; residue   66 bbb rtp bbb q -0.0
 1885         n3     66    bbb     N1   1885 -0.59685800  14.010000   ; qtot -0.596922
 1886         c3     66    bbb     C1   1886 0.10137000  12.010000   ; qtot -0.495552
 1887         h1     66    bbb     H1   1887 0.04411300   1.008000   ; qtot -0.451439
 1888         h1     66    bbb     H2   1888 0.04411300   1.008000   ; qtot -0.407326
 1889         c3     66    bbb     C2   1889 0.10137000  12.010000   ; qtot -0.305956
 1890         h1     66    bbb     H3   1890 0.04411300   1.008000   ; qtot -0.261843
 1891         h1     66    bbb     H4   1891 0.04411300   1.008000   ; qtot -0.217730
 1892         c3     66    bbb     C3   1892 -0.00195300  12.010000   ; qtot -0.219683
 1893         h1     66    bbb     H5   1893 0.05064400   1.008000   ; qtot -0.169039
 1894         h1     66    bbb     H6   1894 0.05064400   1.008000   ; qtot -0.118395
 1895         c3     66    bbb     C4   1895 -0.01612100  12.010000   ; qtot -0.134516
 1896         hc     66    bbb     H7   1896 0.04936100   1.008000   ; qtot -0.085155
 1897         hc     66    bbb     H8   1897 0.04936100   1.008000   ; qtot -0.035794
 1898         c3     66    bbb     C5   1898 0.11363000  12.010000   ; qtot 0.077836
 1899         hc     66    bbb     H9   1899 0.06265900   1.008000   ; qtot 0.140495
 1900         hc     66    bbb    H10   1900 0.06265900   1.008000   ; qtot 0.203154
 1901         c3     66    bbb     C6   1901 0.11363000  12.010000   ; qtot 0.316784
 1902         hc     66    bbb    H11   1902 0.06265900   1.008000   ; qtot 0.379443
 1903         hc     66    bbb    H12   1903 0.06265900   1.008000   ; qtot 0.442102
 1904         c3     66    bbb     C7   1904 0.05858200  12.010000   ; qtot 0.500684
 1905         h1     66    bbb    H13   1905 0.06123400   1.008000   ; qtot 0.561918
 1906         h1     66    bbb    H14   1906 0.06123400   1.008000   ; qtot 0.623152
 1907         c3     66    bbb     C8   1907 -0.72423400  12.010000   ; qtot -0.101082
 1908         h1     66    bbb    H15   1908 0.25637600   1.008000   ; qtot 0.155294
 1909         h1     66    bbb    H16   1909 0.25637600   1.008000   ; qtot 0.411670
 1910         c3     66    bbb     C9   1910 -0.72423400  12.010000   ; qtot -0.312564
 1911         h1     66    bbb    H17   1911 0.25637600   1.008000   ; qtot -0.056188
 1912         h1     66    bbb    H18   1912 0.25637600   1.008000   ; qtot 0.200188
 1913         os     66    bbb     O1   1913 -0.20025300  16.000000   ; qtot -0.000065
; residue   67 bbb rtp bbb q -0.0
 1914         n3     67    bbb     N1   1914 -0.59685800  14.010000   ; qtot -0.596923
 1915         c3     67    bbb     C1   1915 0.10137000  12.010000   ; qtot -0.495553
 1916         h1     67    bbb     H1   1916 0.04411300   1.008000   ; qtot -0.451440
 1917         h1     67    bbb     H2   1917 0.04411300   1.008000   ; qtot -0.407327
 1918         c3     67    bbb     C2   1918 0.10137000  12.010000   ; qtot -0.305957
 1919         h1     67    bbb     H3   1919 0.04411300   1.008000   ; qtot -0.261844
 1920         h1     67    bbb     H4   1920 0.04411300   1.008000   ; qtot -0.217731
 1921         c3     67    bbb     C3   1921 -0.00195300  12.010000   ; qtot -0.219684
 1922         h1     67    bbb     H5   1922 0.05064400   1.008000   ; qtot -0.169040
 1923         h1     67    bbb     H6   1923 0.05064400   1.008000   ; qtot -0.118396
 1924         c3     67    bbb     C4   1924 -0.01612100  12.010000   ; qtot -0.134517
 1925         hc     67    bbb     H7   1925 0.04936100   1.008000   ; qtot -0.085156
 1926         hc     67    bbb     H8   1926 0.04936100   1.008000   ; qtot -0.035795
 1927         c3     67    bbb     C5   1927 0.11363000  12.010000   ; qtot 0.077835
 1928         hc     67    bbb     H9   1928 0.06265900   1.008000   ; qtot 0.140494
 1929         hc     67    bbb    H10   1929 0.06265900   1.008000   ; qtot 0.203153
 1930         c3     67    bbb     C6   1930 0.11363000  12.010000   ; qtot 0.316783
 1931         hc     67    bbb    H11   1931 0.06265900   1.008000   ; qtot 0.379442
 1932         hc     67    bbb    H12   1932 0.06265900   1.008000   ; qtot 0.442101
 1933         c3     67    bbb     C7   1933 0.05858200  12.010000   ; qtot 0.500683
 1934         h1     67    bbb    H13   1934 0.06123400   1.008000   ; qtot 0.561917
 1935         h1     67    bbb    H14   1935 0.06123400   1.008000   ; qtot 0.623151
 1936         c3     67    bbb     C8   1936 -0.72423400  12.010000   ; qtot -0.101083
 1937         h1     67    bbb    H15   1937 0.25637600   1.008000   ; qtot 0.155293
 1938         h1     67    bbb    H16   1938 0.25637600   1.008000   ; qtot 0.411669
 1939         c3     67    bbb     C9   1939 -0.72423400  12.010000   ; qtot -0.312565
 1940         h1     67    bbb    H17   1940 0.25637600   1.008000   ; qtot -0.056189
 1941         h1     67    bbb    H18   1941 0.25637600   1.008000   ; qtot 0.200187
 1942         os     67    bbb     O1   1942 -0.20025300  16.000000   ; qtot -0.000066
; residue   68 bbb rtp bbb q -0.0
 1943         n3     68    bbb     N1   1943 -0.59685800  14.010000   ; qtot -0.596924
 1944         c3     68    bbb     C1   1944 0.10137000  12.010000   ; qtot -0.495554
 1945         h1     68    bbb     H1   1945 0.04411300   1.008000   ; qtot -0.451441
 1946         h1     68    bbb     H2   1946 0.04411300   1.008000   ; qtot -0.407328
 1947         c3     68    bbb     C2   1947 0.10137000  12.010000   ; qtot -0.305958
 1948         h1     68    bbb     H3   1948 0.04411300   1.008000   ; qtot -0.261845
 1949         h1     68    bbb     H4   1949 0.04411300   1.008000   ; qtot -0.217732
 1950         c3     68    bbb     C3   1950 -0.00195300  12.010000   ; qtot -0.219685
 1951         h1     68    bbb     H5   1951 0.05064400   1.008000   ; qtot -0.169041
 1952         h1     68    bbb     H6   1952 0.05064400   1.008000   ; qtot -0.118397
 1953         c3     68    bbb     C4   1953 -0.01612100  12.010000   ; qtot -0.134518
 1954         hc     68    bbb     H7   1954 0.04936100   1.008000   ; qtot -0.085157
 1955         hc     68    bbb     H8   1955 0.04936100   1.008000   ; qtot -0.035796
 1956         c3     68    bbb     C5   1956 0.11363000  12.010000   ; qtot 0.077834
 1957         hc     68    bbb     H9   1957 0.06265900   1.008000   ; qtot 0.140493
 1958         hc     68    bbb    H10   1958 0.06265900   1.008000   ; qtot 0.203152
 1959         c3     68    bbb     C6   1959 0.11363000  12.010000   ; qtot 0.316782
 1960         hc     68    bbb    H11   1960 0.06265900   1.008000   ; qtot 0.379441
 1961         hc     68    bbb    H12   1961 0.06265900   1.008000   ; qtot 0.442100
 1962         c3     68    bbb     C7   1962 0.05858200  12.010000   ; qtot 0.500682
 1963         h1     68    bbb    H13   1963 0.06123400   1.008000   ; qtot 0.561916
 1964         h1     68    bbb    H14   1964 0.06123400   1.008000   ; qtot 0.623150
 1965         c3     68    bbb     C8   1965 -0.72423400  12.010000   ; qtot -0.101084
 1966         h1     68    bbb    H15   1966 0.25637600   1.008000   ; qtot 0.155292
 1967         h1     68    bbb    H16   1967 0.25637600   1.008000   ; qtot 0.411668
 1968         c3     68    bbb     C9   1968 -0.72423400  12.010000   ; qtot -0.312566
 1969         h1     68    bbb    H17   1969 0.25637600   1.008000   ; qtot -0.056190
 1970         h1     68    bbb    H18   1970 0.25637600   1.008000   ; qtot 0.200186
 1971         os     68    bbb     O1   1971 -0.20025300  16.000000   ; qtot -0.000067
; residue   69 bbb rtp bbb q -0.0
 1972         n3     69    bbb     N1   1972 -0.59685800  14.010000   ; qtot -0.596925
 1973         c3     69    bbb     C1   1973 0.10137000  12.010000   ; qtot -0.495555
 1974         h1     69    bbb     H1   1974 0.04411300   1.008000   ; qtot -0.451442
 1975         h1     69    bbb     H2   1975 0.04411300   1.008000   ; qtot -0.407329
 1976         c3     69    bbb     C2   1976 0.10137000  12.010000   ; qtot -0.305959
 1977         h1     69    bbb     H3   1977 0.04411300   1.008000   ; qtot -0.261846
 1978         h1     69    bbb     H4   1978 0.04411300   1.008000   ; qtot -0.217733
 1979         c3     69    bbb     C3   1979 -0.00195300  12.010000   ; qtot -0.219686
 1980         h1     69    bbb     H5   1980 0.05064400   1.008000   ; qtot -0.169042
 1981         h1     69    bbb     H6   1981 0.05064400   1.008000   ; qtot -0.118398
 1982         c3     69    bbb     C4   1982 -0.01612100  12.010000   ; qtot -0.134519
 1983         hc     69    bbb     H7   1983 0.04936100   1.008000   ; qtot -0.085158
 1984         hc     69    bbb     H8   1984 0.04936100   1.008000   ; qtot -0.035797
 1985         c3     69    bbb     C5   1985 0.11363000  12.010000   ; qtot 0.077833
 1986         hc     69    bbb     H9   1986 0.06265900   1.008000   ; qtot 0.140492
 1987         hc     69    bbb    H10   1987 0.06265900   1.008000   ; qtot 0.203151
 1988         c3     69    bbb     C6   1988 0.11363000  12.010000   ; qtot 0.316781
 1989         hc     69    bbb    H11   1989 0.06265900   1.008000   ; qtot 0.379440
 1990         hc     69    bbb    H12   1990 0.06265900   1.008000   ; qtot 0.442099
 1991         c3     69    bbb     C7   1991 0.05858200  12.010000   ; qtot 0.500681
 1992         h1     69    bbb    H13   1992 0.06123400   1.008000   ; qtot 0.561915
 1993         h1     69    bbb    H14   1993 0.06123400   1.008000   ; qtot 0.623149
 1994         c3     69    bbb     C8   1994 -0.72423400  12.010000   ; qtot -0.101085
 1995         h1     69    bbb    H15   1995 0.25637600   1.008000   ; qtot 0.155291
 1996         h1     69    bbb    H16   1996 0.25637600   1.008000   ; qtot 0.411667
 1997         c3     69    bbb     C9   1997 -0.72423400  12.010000   ; qtot -0.312567
 1998         h1     69    bbb    H17   1998 0.25637600   1.008000   ; qtot -0.056191
 1999         h1     69    bbb    H18   1999 0.25637600   1.008000   ; qtot 0.200185
 2000         os     69    bbb     O1   2000 -0.20025300  16.000000   ; qtot -0.000068
; residue   70 bbb rtp bbb q -0.0
 2001         n3     70    bbb     N1   2001 -0.59685800  14.010000   ; qtot -0.596926
 2002         c3     70    bbb     C1   2002 0.10137000  12.010000   ; qtot -0.495556
 2003         h1     70    bbb     H1   2003 0.04411300   1.008000   ; qtot -0.451443
 2004         h1     70    bbb     H2   2004 0.04411300   1.008000   ; qtot -0.407330
 2005         c3     70    bbb     C2   2005 0.10137000  12.010000   ; qtot -0.305960
 2006         h1     70    bbb     H3   2006 0.04411300   1.008000   ; qtot -0.261847
 2007         h1     70    bbb     H4   2007 0.04411300   1.008000   ; qtot -0.217734
 2008         c3     70    bbb     C3   2008 -0.00195300  12.010000   ; qtot -0.219687
 2009         h1     70    bbb     H5   2009 0.05064400   1.008000   ; qtot -0.169043
 2010         h1     70    bbb     H6   2010 0.05064400   1.008000   ; qtot -0.118399
 2011         c3     70    bbb     C4   2011 -0.01612100  12.010000   ; qtot -0.134520
 2012         hc     70    bbb     H7   2012 0.04936100   1.008000   ; qtot -0.085159
 2013         hc     70    bbb     H8   2013 0.04936100   1.008000   ; qtot -0.035798
 2014         c3     70    bbb     C5   2014 0.11363000  12.010000   ; qtot 0.077832
 2015         hc     70    bbb     H9   2015 0.06265900   1.008000   ; qtot 0.140491
 2016         hc     70    bbb    H10   2016 0.06265900   1.008000   ; qtot 0.203150
 2017         c3     70    bbb     C6   2017 0.11363000  12.010000   ; qtot 0.316780
 2018         hc     70    bbb    H11   2018 0.06265900   1.008000   ; qtot 0.379439
 2019         hc     70    bbb    H12   2019 0.06265900   1.008000   ; qtot 0.442098
 2020         c3     70    bbb     C7   2020 0.05858200  12.010000   ; qtot 0.500680
 2021         h1     70    bbb    H13   2021 0.06123400   1.008000   ; qtot 0.561914
 2022         h1     70    bbb    H14   2022 0.06123400   1.008000   ; qtot 0.623148
 2023         c3     70    bbb     C8   2023 -0.72423400  12.010000   ; qtot -0.101086
 2024         h1     70    bbb    H15   2024 0.25637600   1.008000   ; qtot 0.155290
 2025         h1     70    bbb    H16   2025 0.25637600   1.008000   ; qtot 0.411666
 2026         c3     70    bbb     C9   2026 -0.72423400  12.010000   ; qtot -0.312568
 2027         h1     70    bbb    H17   2027 0.25637600   1.008000   ; qtot -0.056192
 2028         h1     70    bbb    H18   2028 0.25637600   1.008000   ; qtot 0.200184
 2029         os     70    bbb     O1   2029 -0.20025300  16.000000   ; qtot -0.000069
; residue   71 bbb rtp bbb q -0.0
 2030         n3     71    bbb     N1   2030 -0.59685800  14.010000   ; qtot -0.596927
 2031         c3     71    bbb     C1   2031 0.10137000  12.010000   ; qtot -0.495557
 2032         h1     71    bbb     H1   2032 0.04411300   1.008000   ; qtot -0.451444
 2033         h1     71    bbb     H2   2033 0.04411300   1.008000   ; qtot -0.407331
 2034         c3     71    bbb     C2   2034 0.10137000  12.010000   ; qtot -0.305961
 2035         h1     71    bbb     H3   2035 0.04411300   1.008000   ; qtot -0.261848
 2036         h1     71    bbb     H4   2036 0.04411300   1.008000   ; qtot -0.217735
 2037         c3     71    bbb     C3   2037 -0.00195300  12.010000   ; qtot -0.219688
 2038         h1     71    bbb     H5   2038 0.05064400   1.008000   ; qtot -0.169044
 2039         h1     71    bbb     H6   2039 0.05064400   1.008000   ; qtot -0.118400
 2040         c3     71    bbb     C4   2040 -0.01612100  12.010000   ; qtot -0.134521
 2041         hc     71    bbb     H7   2041 0.04936100   1.008000   ; qtot -0.085160
 2042         hc     71    bbb     H8   2042 0.04936100   1.008000   ; qtot -0.035799
 2043         c3     71    bbb     C5   2043 0.11363000  12.010000   ; qtot 0.077831
 2044         hc     71    bbb     H9   2044 0.06265900   1.008000   ; qtot 0.140490
 2045         hc     71    bbb    H10   2045 0.06265900   1.008000   ; qtot 0.203149
 2046         c3     71    bbb     C6   2046 0.11363000  12.010000   ; qtot 0.316779
 2047         hc     71    bbb    H11   2047 0.06265900   1.008000   ; qtot 0.379438
 2048         hc     71    bbb    H12   2048 0.06265900   1.008000   ; qtot 0.442097
 2049         c3     71    bbb     C7   2049 0.05858200  12.010000   ; qtot 0.500679
 2050         h1     71    bbb    H13   2050 0.06123400   1.008000   ; qtot 0.561913
 2051         h1     71    bbb    H14   2051 0.06123400   1.008000   ; qtot 0.623147
 2052         c3     71    bbb     C8   2052 -0.72423400  12.010000   ; qtot -0.101087
 2053         h1     71    bbb    H15   2053 0.25637600   1.008000   ; qtot 0.155289
 2054         h1     71    bbb    H16   2054 0.25637600   1.008000   ; qtot 0.411665
 2055         c3     71    bbb     C9   2055 -0.72423400  12.010000   ; qtot -0.312569
 2056         h1     71    bbb    H17   2056 0.25637600   1.008000   ; qtot -0.056193
 2057         h1     71    bbb    H18   2057 0.25637600   1.008000   ; qtot 0.200183
 2058         os     71    bbb     O1   2058 -0.20025300  16.000000   ; qtot -0.000070
; residue   72 bbb rtp bbb q -0.0
 2059         n3     72    bbb     N1   2059 -0.59685800  14.010000   ; qtot -0.596928
 2060         c3     72    bbb     C1   2060 0.10137000  12.010000   ; qtot -0.495558
 2061         h1     72    bbb     H1   2061 0.04411300   1.008000   ; qtot -0.451445
 2062         h1     72    bbb     H2   2062 0.04411300   1.008000   ; qtot -0.407332
 2063         c3     72    bbb     C2   2063 0.10137000  12.010000   ; qtot -0.305962
 2064         h1     72    bbb     H3   2064 0.04411300   1.008000   ; qtot -0.261849
 2065         h1     72    bbb     H4   2065 0.04411300   1.008000   ; qtot -0.217736
 2066         c3     72    bbb     C3   2066 -0.00195300  12.010000   ; qtot -0.219689
 2067         h1     72    bbb     H5   2067 0.05064400   1.008000   ; qtot -0.169045
 2068         h1     72    bbb     H6   2068 0.05064400   1.008000   ; qtot -0.118401
 2069         c3     72    bbb     C4   2069 -0.01612100  12.010000   ; qtot -0.134522
 2070         hc     72    bbb     H7   2070 0.04936100   1.008000   ; qtot -0.085161
 2071         hc     72    bbb     H8   2071 0.04936100   1.008000   ; qtot -0.035800
 2072         c3     72    bbb     C5   2072 0.11363000  12.010000   ; qtot 0.077830
 2073         hc     72    bbb     H9   2073 0.06265900   1.008000   ; qtot 0.140489
 2074         hc     72    bbb    H10   2074 0.06265900   1.008000   ; qtot 0.203148
 2075         c3     72    bbb     C6   2075 0.11363000  12.010000   ; qtot 0.316778
 2076         hc     72    bbb    H11   2076 0.06265900   1.008000   ; qtot 0.379437
 2077         hc     72    bbb    H12   2077 0.06265900   1.008000   ; qtot 0.442096
 2078         c3     72    bbb     C7   2078 0.05858200  12.010000   ; qtot 0.500678
 2079         h1     72    bbb    H13   2079 0.06123400   1.008000   ; qtot 0.561912
 2080         h1     72    bbb    H14   2080 0.06123400   1.008000   ; qtot 0.623146
 2081         c3     72    bbb     C8   2081 -0.72423400  12.010000   ; qtot -0.101088
 2082         h1     72    bbb    H15   2082 0.25637600   1.008000   ; qtot 0.155288
 2083         h1     72    bbb    H16   2083 0.25637600   1.008000   ; qtot 0.411664
 2084         c3     72    bbb     C9   2084 -0.72423400  12.010000   ; qtot -0.312570
 2085         h1     72    bbb    H17   2085 0.25637600   1.008000   ; qtot -0.056194
 2086         h1     72    bbb    H18   2086 0.25637600   1.008000   ; qtot 0.200182
 2087         os     72    bbb     O1   2087 -0.20025300  16.000000   ; qtot -0.000071
; residue   73 bbb rtp bbb q -0.0
 2088         n3     73    bbb     N1   2088 -0.59685800  14.010000   ; qtot -0.596929
 2089         c3     73    bbb     C1   2089 0.10137000  12.010000   ; qtot -0.495559
 2090         h1     73    bbb     H1   2090 0.04411300   1.008000   ; qtot -0.451446
 2091         h1     73    bbb     H2   2091 0.04411300   1.008000   ; qtot -0.407333
 2092         c3     73    bbb     C2   2092 0.10137000  12.010000   ; qtot -0.305963
 2093         h1     73    bbb     H3   2093 0.04411300   1.008000   ; qtot -0.261850
 2094         h1     73    bbb     H4   2094 0.04411300   1.008000   ; qtot -0.217737
 2095         c3     73    bbb     C3   2095 -0.00195300  12.010000   ; qtot -0.219690
 2096         h1     73    bbb     H5   2096 0.05064400   1.008000   ; qtot -0.169046
 2097         h1     73    bbb     H6   2097 0.05064400   1.008000   ; qtot -0.118402
 2098         c3     73    bbb     C4   2098 -0.01612100  12.010000   ; qtot -0.134523
 2099         hc     73    bbb     H7   2099 0.04936100   1.008000   ; qtot -0.085162
 2100         hc     73    bbb     H8   2100 0.04936100   1.008000   ; qtot -0.035801
 2101         c3     73    bbb     C5   2101 0.11363000  12.010000   ; qtot 0.077829
 2102         hc     73    bbb     H9   2102 0.06265900   1.008000   ; qtot 0.140488
 2103         hc     73    bbb    H10   2103 0.06265900   1.008000   ; qtot 0.203147
 2104         c3     73    bbb     C6   2104 0.11363000  12.010000   ; qtot 0.316777
 2105         hc     73    bbb    H11   2105 0.06265900   1.008000   ; qtot 0.379436
 2106         hc     73    bbb    H12   2106 0.06265900   1.008000   ; qtot 0.442095
 2107         c3     73    bbb     C7   2107 0.05858200  12.010000   ; qtot 0.500677
 2108         h1     73    bbb    H13   2108 0.06123400   1.008000   ; qtot 0.561911
 2109         h1     73    bbb    H14   2109 0.06123400   1.008000   ; qtot 0.623145
 2110         c3     73    bbb     C8   2110 -0.72423400  12.010000   ; qtot -0.101089
 2111         h1     73    bbb    H15   2111 0.25637600   1.008000   ; qtot 0.155287
 2112         h1     73    bbb    H16   2112 0.25637600   1.008000   ; qtot 0.411663
 2113         c3     73    bbb     C9   2113 -0.72423400  12.010000   ; qtot -0.312571
 2114         h1     73    bbb    H17   2114 0.25637600   1.008000   ; qtot -0.056195
 2115         h1     73    bbb    H18   2115 0.25637600   1.008000   ; qtot 0.200181
 2116         os     73    bbb     O1   2116 -0.20025300  16.000000   ; qtot -0.000072
; residue   74 bbb rtp bbb q -0.0
 2117         n3     74    bbb     N1   2117 -0.59685800  14.010000   ; qtot -0.596930
 2118         c3     74    bbb     C1   2118 0.10137000  12.010000   ; qtot -0.495560
 2119         h1     74    bbb     H1   2119 0.04411300   1.008000   ; qtot -0.451447
 2120         h1     74    bbb     H2   2120 0.04411300   1.008000   ; qtot -0.407334
 2121         c3     74    bbb     C2   2121 0.10137000  12.010000   ; qtot -0.305964
 2122         h1     74    bbb     H3   2122 0.04411300   1.008000   ; qtot -0.261851
 2123         h1     74    bbb     H4   2123 0.04411300   1.008000   ; qtot -0.217738
 2124         c3     74    bbb     C3   2124 -0.00195300  12.010000   ; qtot -0.219691
 2125         h1     74    bbb     H5   2125 0.05064400   1.008000   ; qtot -0.169047
 2126         h1     74    bbb     H6   2126 0.05064400   1.008000   ; qtot -0.118403
 2127         c3     74    bbb     C4   2127 -0.01612100  12.010000   ; qtot -0.134524
 2128         hc     74    bbb     H7   2128 0.04936100   1.008000   ; qtot -0.085163
 2129         hc     74    bbb     H8   2129 0.04936100   1.008000   ; qtot -0.035802
 2130         c3     74    bbb     C5   2130 0.11363000  12.010000   ; qtot 0.077828
 2131         hc     74    bbb     H9   2131 0.06265900   1.008000   ; qtot 0.140487
 2132         hc     74    bbb    H10   2132 0.06265900   1.008000   ; qtot 0.203146
 2133         c3     74    bbb     C6   2133 0.11363000  12.010000   ; qtot 0.316776
 2134         hc     74    bbb    H11   2134 0.06265900   1.008000   ; qtot 0.379435
 2135         hc     74    bbb    H12   2135 0.06265900   1.008000   ; qtot 0.442094
 2136         c3     74    bbb     C7   2136 0.05858200  12.010000   ; qtot 0.500676
 2137         h1     74    bbb    H13   2137 0.06123400   1.008000   ; qtot 0.561910
 2138         h1     74    bbb    H14   2138 0.06123400   1.008000   ; qtot 0.623144
 2139         c3     74    bbb     C8   2139 -0.72423400  12.010000   ; qtot -0.101090
 2140         h1     74    bbb    H15   2140 0.25637600   1.008000   ; qtot 0.155286
 2141         h1     74    bbb    H16   2141 0.25637600   1.008000   ; qtot 0.411662
 2142         c3     74    bbb     C9   2142 -0.72423400  12.010000   ; qtot -0.312572
 2143         h1     74    bbb    H17   2143 0.25637600   1.008000   ; qtot -0.056196
 2144         h1     74    bbb    H18   2144 0.25637600   1.008000   ; qtot 0.200180
 2145         os     74    bbb     O1   2145 -0.20025300  16.000000   ; qtot -0.000073
; residue   75 bbb rtp bbb q -0.0
 2146         n3     75    bbb     N1   2146 -0.59685800  14.010000   ; qtot -0.596931
 2147         c3     75    bbb     C1   2147 0.10137000  12.010000   ; qtot -0.495561
 2148         h1     75    bbb     H1   2148 0.04411300   1.008000   ; qtot -0.451448
 2149         h1     75    bbb     H2   2149 0.04411300   1.008000   ; qtot -0.407335
 2150         c3     75    bbb     C2   2150 0.10137000  12.010000   ; qtot -0.305965
 2151         h1     75    bbb     H3   2151 0.04411300   1.008000   ; qtot -0.261852
 2152         h1     75    bbb     H4   2152 0.04411300   1.008000   ; qtot -0.217739
 2153         c3     75    bbb     C3   2153 -0.00195300  12.010000   ; qtot -0.219692
 2154         h1     75    bbb     H5   2154 0.05064400   1.008000   ; qtot -0.169048
 2155         h1     75    bbb     H6   2155 0.05064400   1.008000   ; qtot -0.118404
 2156         c3     75    bbb     C4   2156 -0.01612100  12.010000   ; qtot -0.134525
 2157         hc     75    bbb     H7   2157 0.04936100   1.008000   ; qtot -0.085164
 2158         hc     75    bbb     H8   2158 0.04936100   1.008000   ; qtot -0.035803
 2159         c3     75    bbb     C5   2159 0.11363000  12.010000   ; qtot 0.077827
 2160         hc     75    bbb     H9   2160 0.06265900   1.008000   ; qtot 0.140486
 2161         hc     75    bbb    H10   2161 0.06265900   1.008000   ; qtot 0.203145
 2162         c3     75    bbb     C6   2162 0.11363000  12.010000   ; qtot 0.316775
 2163         hc     75    bbb    H11   2163 0.06265900   1.008000   ; qtot 0.379434
 2164         hc     75    bbb    H12   2164 0.06265900   1.008000   ; qtot 0.442093
 2165         c3     75    bbb     C7   2165 0.05858200  12.010000   ; qtot 0.500675
 2166         h1     75    bbb    H13   2166 0.06123400   1.008000   ; qtot 0.561909
 2167         h1     75    bbb    H14   2167 0.06123400   1.008000   ; qtot 0.623143
 2168         c3     75    bbb     C8   2168 -0.72423400  12.010000   ; qtot -0.101091
 2169         h1     75    bbb    H15   2169 0.25637600   1.008000   ; qtot 0.155285
 2170         h1     75    bbb    H16   2170 0.25637600   1.008000   ; qtot 0.411661
 2171         c3     75    bbb     C9   2171 -0.72423400  12.010000   ; qtot -0.312573
 2172         h1     75    bbb    H17   2172 0.25637600   1.008000   ; qtot -0.056197
 2173         h1     75    bbb    H18   2173 0.25637600   1.008000   ; qtot 0.200179
 2174         os     75    bbb     O1   2174 -0.20025300  16.000000   ; qtot -0.000074
; residue   76 bbb rtp bbb q -0.0
 2175         n3     76    bbb     N1   2175 -0.59685800  14.010000   ; qtot -0.596932
 2176         c3     76    bbb     C1   2176 0.10137000  12.010000   ; qtot -0.495562
 2177         h1     76    bbb     H1   2177 0.04411300   1.008000   ; qtot -0.451449
 2178         h1     76    bbb     H2   2178 0.04411300   1.008000   ; qtot -0.407336
 2179         c3     76    bbb     C2   2179 0.10137000  12.010000   ; qtot -0.305966
 2180         h1     76    bbb     H3   2180 0.04411300   1.008000   ; qtot -0.261853
 2181         h1     76    bbb     H4   2181 0.04411300   1.008000   ; qtot -0.217740
 2182         c3     76    bbb     C3   2182 -0.00195300  12.010000   ; qtot -0.219693
 2183         h1     76    bbb     H5   2183 0.05064400   1.008000   ; qtot -0.169049
 2184         h1     76    bbb     H6   2184 0.05064400   1.008000   ; qtot -0.118405
 2185         c3     76    bbb     C4   2185 -0.01612100  12.010000   ; qtot -0.134526
 2186         hc     76    bbb     H7   2186 0.04936100   1.008000   ; qtot -0.085165
 2187         hc     76    bbb     H8   2187 0.04936100   1.008000   ; qtot -0.035804
 2188         c3     76    bbb     C5   2188 0.11363000  12.010000   ; qtot 0.077826
 2189         hc     76    bbb     H9   2189 0.06265900   1.008000   ; qtot 0.140485
 2190         hc     76    bbb    H10   2190 0.06265900   1.008000   ; qtot 0.203144
 2191         c3     76    bbb     C6   2191 0.11363000  12.010000   ; qtot 0.316774
 2192         hc     76    bbb    H11   2192 0.06265900   1.008000   ; qtot 0.379433
 2193         hc     76    bbb    H12   2193 0.06265900   1.008000   ; qtot 0.442092
 2194         c3     76    bbb     C7   2194 0.05858200  12.010000   ; qtot 0.500674
 2195         h1     76    bbb    H13   2195 0.06123400   1.008000   ; qtot 0.561908
 2196         h1     76    bbb    H14   2196 0.06123400   1.008000   ; qtot 0.623142
 2197         c3     76    bbb     C8   2197 -0.72423400  12.010000   ; qtot -0.101092
 2198         h1     76    bbb    H15   2198 0.25637600   1.008000   ; qtot 0.155284
 2199         h1     76    bbb    H16   2199 0.25637600   1.008000   ; qtot 0.411660
 2200         c3     76    bbb     C9   2200 -0.72423400  12.010000   ; qtot -0.312574
 2201         h1     76    bbb    H17   2201 0.25637600   1.008000   ; qtot -0.056198
 2202         h1     76    bbb    H18   2202 0.25637600   1.008000   ; qtot 0.200178
 2203         os     76    bbb     O1   2203 -0.20025300  16.000000   ; qtot -0.000075
; residue   77 bbb rtp bbb q -0.0
 2204         n3     77    bbb     N1   2204 -0.59685800  14.010000   ; qtot -0.596933
 2205         c3     77    bbb     C1   2205 0.10137000  12.010000   ; qtot -0.495563
 2206         h1     77    bbb     H1   2206 0.04411300   1.008000   ; qtot -0.451450
 2207         h1     77    bbb     H2   2207 0.04411300   1.008000   ; qtot -0.407337
 2208         c3     77    bbb     C2   2208 0.10137000  12.010000   ; qtot -0.305967
 2209         h1     77    bbb     H3   2209 0.04411300   1.008000   ; qtot -0.261854
 2210         h1     77    bbb     H4   2210 0.04411300   1.008000   ; qtot -0.217741
 2211         c3     77    bbb     C3   2211 -0.00195300  12.010000   ; qtot -0.219694
 2212         h1     77    bbb     H5   2212 0.05064400   1.008000   ; qtot -0.169050
 2213         h1     77    bbb     H6   2213 0.05064400   1.008000   ; qtot -0.118406
 2214         c3     77    bbb     C4   2214 -0.01612100  12.010000   ; qtot -0.134527
 2215         hc     77    bbb     H7   2215 0.04936100   1.008000   ; qtot -0.085166
 2216         hc     77    bbb     H8   2216 0.04936100   1.008000   ; qtot -0.035805
 2217         c3     77    bbb     C5   2217 0.11363000  12.010000   ; qtot 0.077825
 2218         hc     77    bbb     H9   2218 0.06265900   1.008000   ; qtot 0.140484
 2219         hc     77    bbb    H10   2219 0.06265900   1.008000   ; qtot 0.203143
 2220         c3     77    bbb     C6   2220 0.11363000  12.010000   ; qtot 0.316773
 2221         hc     77    bbb    H11   2221 0.06265900   1.008000   ; qtot 0.379432
 2222         hc     77    bbb    H12   2222 0.06265900   1.008000   ; qtot 0.442091
 2223         c3     77    bbb     C7   2223 0.05858200  12.010000   ; qtot 0.500673
 2224         h1     77    bbb    H13   2224 0.06123400   1.008000   ; qtot 0.561907
 2225         h1     77    bbb    H14   2225 0.06123400   1.008000   ; qtot 0.623141
 2226         c3     77    bbb     C8   2226 -0.72423400  12.010000   ; qtot -0.101093
 2227         h1     77    bbb    H15   2227 0.25637600   1.008000   ; qtot 0.155283
 2228         h1     77    bbb    H16   2228 0.25637600   1.008000   ; qtot 0.411659
 2229         c3     77    bbb     C9   2229 -0.72423400  12.010000   ; qtot -0.312575
 2230         h1     77    bbb    H17   2230 0.25637600   1.008000   ; qtot -0.056199
 2231         h1     77    bbb    H18   2231 0.25637600   1.008000   ; qtot 0.200177
 2232         os     77    bbb     O1   2232 -0.20025300  16.000000   ; qtot -0.000076
; residue   78 bbb rtp bbb q -0.0
 2233         n3     78    bbb     N1   2233 -0.59685800  14.010000   ; qtot -0.596934
 2234         c3     78    bbb     C1   2234 0.10137000  12.010000   ; qtot -0.495564
 2235         h1     78    bbb     H1   2235 0.04411300   1.008000   ; qtot -0.451451
 2236         h1     78    bbb     H2   2236 0.04411300   1.008000   ; qtot -0.407338
 2237         c3     78    bbb     C2   2237 0.10137000  12.010000   ; qtot -0.305968
 2238         h1     78    bbb     H3   2238 0.04411300   1.008000   ; qtot -0.261855
 2239         h1     78    bbb     H4   2239 0.04411300   1.008000   ; qtot -0.217742
 2240         c3     78    bbb     C3   2240 -0.00195300  12.010000   ; qtot -0.219695
 2241         h1     78    bbb     H5   2241 0.05064400   1.008000   ; qtot -0.169051
 2242         h1     78    bbb     H6   2242 0.05064400   1.008000   ; qtot -0.118407
 2243         c3     78    bbb     C4   2243 -0.01612100  12.010000   ; qtot -0.134528
 2244         hc     78    bbb     H7   2244 0.04936100   1.008000   ; qtot -0.085167
 2245         hc     78    bbb     H8   2245 0.04936100   1.008000   ; qtot -0.035806
 2246         c3     78    bbb     C5   2246 0.11363000  12.010000   ; qtot 0.077824
 2247         hc     78    bbb     H9   2247 0.06265900   1.008000   ; qtot 0.140483
 2248         hc     78    bbb    H10   2248 0.06265900   1.008000   ; qtot 0.203142
 2249         c3     78    bbb     C6   2249 0.11363000  12.010000   ; qtot 0.316772
 2250         hc     78    bbb    H11   2250 0.06265900   1.008000   ; qtot 0.379431
 2251         hc     78    bbb    H12   2251 0.06265900   1.008000   ; qtot 0.442090
 2252         c3     78    bbb     C7   2252 0.05858200  12.010000   ; qtot 0.500672
 2253         h1     78    bbb    H13   2253 0.06123400   1.008000   ; qtot 0.561906
 2254         h1     78    bbb    H14   2254 0.06123400   1.008000   ; qtot 0.623140
 2255         c3     78    bbb     C8   2255 -0.72423400  12.010000   ; qtot -0.101094
 2256         h1     78    bbb    H15   2256 0.25637600   1.008000   ; qtot 0.155282
 2257         h1     78    bbb    H16   2257 0.25637600   1.008000   ; qtot 0.411658
 2258         c3     78    bbb     C9   2258 -0.72423400  12.010000   ; qtot -0.312576
 2259         h1     78    bbb    H17   2259 0.25637600   1.008000   ; qtot -0.056200
 2260         h1     78    bbb    H18   2260 0.25637600   1.008000   ; qtot 0.200176
 2261         os     78    bbb     O1   2261 -0.20025300  16.000000   ; qtot -0.000077
; residue   79 bbb rtp bbb q -0.0
 2262         n3     79    bbb     N1   2262 -0.59685800  14.010000   ; qtot -0.596935
 2263         c3     79    bbb     C1   2263 0.10137000  12.010000   ; qtot -0.495565
 2264         h1     79    bbb     H1   2264 0.04411300   1.008000   ; qtot -0.451452
 2265         h1     79    bbb     H2   2265 0.04411300   1.008000   ; qtot -0.407339
 2266         c3     79    bbb     C2   2266 0.10137000  12.010000   ; qtot -0.305969
 2267         h1     79    bbb     H3   2267 0.04411300   1.008000   ; qtot -0.261856
 2268         h1     79    bbb     H4   2268 0.04411300   1.008000   ; qtot -0.217743
 2269         c3     79    bbb     C3   2269 -0.00195300  12.010000   ; qtot -0.219696
 2270         h1     79    bbb     H5   2270 0.05064400   1.008000   ; qtot -0.169052
 2271         h1     79    bbb     H6   2271 0.05064400   1.008000   ; qtot -0.118408
 2272         c3     79    bbb     C4   2272 -0.01612100  12.010000   ; qtot -0.134529
 2273         hc     79    bbb     H7   2273 0.04936100   1.008000   ; qtot -0.085168
 2274         hc     79    bbb     H8   2274 0.04936100   1.008000   ; qtot -0.035807
 2275         c3     79    bbb     C5   2275 0.11363000  12.010000   ; qtot 0.077823
 2276         hc     79    bbb     H9   2276 0.06265900   1.008000   ; qtot 0.140482
 2277         hc     79    bbb    H10   2277 0.06265900   1.008000   ; qtot 0.203141
 2278         c3     79    bbb     C6   2278 0.11363000  12.010000   ; qtot 0.316771
 2279         hc     79    bbb    H11   2279 0.06265900   1.008000   ; qtot 0.379430
 2280         hc     79    bbb    H12   2280 0.06265900   1.008000   ; qtot 0.442089
 2281         c3     79    bbb     C7   2281 0.05858200  12.010000   ; qtot 0.500671
 2282         h1     79    bbb    H13   2282 0.06123400   1.008000   ; qtot 0.561905
 2283         h1     79    bbb    H14   2283 0.06123400   1.008000   ; qtot 0.623139
 2284         c3     79    bbb     C8   2284 -0.72423400  12.010000   ; qtot -0.101095
 2285         h1     79    bbb    H15   2285 0.25637600   1.008000   ; qtot 0.155281
 2286         h1     79    bbb    H16   2286 0.25637600   1.008000   ; qtot 0.411657
 2287         c3     79    bbb     C9   2287 -0.72423400  12.010000   ; qtot -0.312577
 2288         h1     79    bbb    H17   2288 0.25637600   1.008000   ; qtot -0.056201
 2289         h1     79    bbb    H18   2289 0.25637600   1.008000   ; qtot 0.200175
 2290         os     79    bbb     O1   2290 -0.20025300  16.000000   ; qtot -0.000078
; residue   80 bbb rtp bbb q -0.0
 2291         n3     80    bbb     N1   2291 -0.59685800  14.010000   ; qtot -0.596936
 2292         c3     80    bbb     C1   2292 0.10137000  12.010000   ; qtot -0.495566
 2293         h1     80    bbb     H1   2293 0.04411300   1.008000   ; qtot -0.451453
 2294         h1     80    bbb     H2   2294 0.04411300   1.008000   ; qtot -0.407340
 2295         c3     80    bbb     C2   2295 0.10137000  12.010000   ; qtot -0.305970
 2296         h1     80    bbb     H3   2296 0.04411300   1.008000   ; qtot -0.261857
 2297         h1     80    bbb     H4   2297 0.04411300   1.008000   ; qtot -0.217744
 2298         c3     80    bbb     C3   2298 -0.00195300  12.010000   ; qtot -0.219697
 2299         h1     80    bbb     H5   2299 0.05064400   1.008000   ; qtot -0.169053
 2300         h1     80    bbb     H6   2300 0.05064400   1.008000   ; qtot -0.118409
 2301         c3     80    bbb     C4   2301 -0.01612100  12.010000   ; qtot -0.134530
 2302         hc     80    bbb     H7   2302 0.04936100   1.008000   ; qtot -0.085169
 2303         hc     80    bbb     H8   2303 0.04936100   1.008000   ; qtot -0.035808
 2304         c3     80    bbb     C5   2304 0.11363000  12.010000   ; qtot 0.077822
 2305         hc     80    bbb     H9   2305 0.06265900   1.008000   ; qtot 0.140481
 2306         hc     80    bbb    H10   2306 0.06265900   1.008000   ; qtot 0.203140
 2307         c3     80    bbb     C6   2307 0.11363000  12.010000   ; qtot 0.316770
 2308         hc     80    bbb    H11   2308 0.06265900   1.008000   ; qtot 0.379429
 2309         hc     80    bbb    H12   2309 0.06265900   1.008000   ; qtot 0.442088
 2310         c3     80    bbb     C7   2310 0.05858200  12.010000   ; qtot 0.500670
 2311         h1     80    bbb    H13   2311 0.06123400   1.008000   ; qtot 0.561904
 2312         h1     80    bbb    H14   2312 0.06123400   1.008000   ; qtot 0.623138
 2313         c3     80    bbb     C8   2313 -0.72423400  12.010000   ; qtot -0.101096
 2314         h1     80    bbb    H15   2314 0.25637600   1.008000   ; qtot 0.155280
 2315         h1     80    bbb    H16   2315 0.25637600   1.008000   ; qtot 0.411656
 2316         c3     80    bbb     C9   2316 -0.72423400  12.010000   ; qtot -0.312578
 2317         h1     80    bbb    H17   2317 0.25637600   1.008000   ; qtot -0.056202
 2318         h1     80    bbb    H18   2318 0.25637600   1.008000   ; qtot 0.200174
 2319         os     80    bbb     O1   2319 -0.20025300  16.000000   ; qtot -0.000079
; residue   81 bbb rtp bbb q -0.0
 2320         n3     81    bbb     N1   2320 -0.59685800  14.010000   ; qtot -0.596937
 2321         c3     81    bbb     C1   2321 0.10137000  12.010000   ; qtot -0.495567
 2322         h1     81    bbb     H1   2322 0.04411300   1.008000   ; qtot -0.451454
 2323         h1     81    bbb     H2   2323 0.04411300   1.008000   ; qtot -0.407341
 2324         c3     81    bbb     C2   2324 0.10137000  12.010000   ; qtot -0.305971
 2325         h1     81    bbb     H3   2325 0.04411300   1.008000   ; qtot -0.261858
 2326         h1     81    bbb     H4   2326 0.04411300   1.008000   ; qtot -0.217745
 2327         c3     81    bbb     C3   2327 -0.00195300  12.010000   ; qtot -0.219698
 2328         h1     81    bbb     H5   2328 0.05064400   1.008000   ; qtot -0.169054
 2329         h1     81    bbb     H6   2329 0.05064400   1.008000   ; qtot -0.118410
 2330         c3     81    bbb     C4   2330 -0.01612100  12.010000   ; qtot -0.134531
 2331         hc     81    bbb     H7   2331 0.04936100   1.008000   ; qtot -0.085170
 2332         hc     81    bbb     H8   2332 0.04936100   1.008000   ; qtot -0.035809
 2333         c3     81    bbb     C5   2333 0.11363000  12.010000   ; qtot 0.077821
 2334         hc     81    bbb     H9   2334 0.06265900   1.008000   ; qtot 0.140480
 2335         hc     81    bbb    H10   2335 0.06265900   1.008000   ; qtot 0.203139
 2336         c3     81    bbb     C6   2336 0.11363000  12.010000   ; qtot 0.316769
 2337         hc     81    bbb    H11   2337 0.06265900   1.008000   ; qtot 0.379428
 2338         hc     81    bbb    H12   2338 0.06265900   1.008000   ; qtot 0.442087
 2339         c3     81    bbb     C7   2339 0.05858200  12.010000   ; qtot 0.500669
 2340         h1     81    bbb    H13   2340 0.06123400   1.008000   ; qtot 0.561903
 2341         h1     81    bbb    H14   2341 0.06123400   1.008000   ; qtot 0.623137
 2342         c3     81    bbb     C8   2342 -0.72423400  12.010000   ; qtot -0.101097
 2343         h1     81    bbb    H15   2343 0.25637600   1.008000   ; qtot 0.155279
 2344         h1     81    bbb    H16   2344 0.25637600   1.008000   ; qtot 0.411655
 2345         c3     81    bbb     C9   2345 -0.72423400  12.010000   ; qtot -0.312579
 2346         h1     81    bbb    H17   2346 0.25637600   1.008000   ; qtot -0.056203
 2347         h1     81    bbb    H18   2347 0.25637600   1.008000   ; qtot 0.200173
 2348         os     81    bbb     O1   2348 -0.20025300  16.000000   ; qtot -0.000080
; residue   82 bbb rtp bbb q -0.0
 2349         n3     82    bbb     N1   2349 -0.59685800  14.010000   ; qtot -0.596938
 2350         c3     82    bbb     C1   2350 0.10137000  12.010000   ; qtot -0.495568
 2351         h1     82    bbb     H1   2351 0.04411300   1.008000   ; qtot -0.451455
 2352         h1     82    bbb     H2   2352 0.04411300   1.008000   ; qtot -0.407342
 2353         c3     82    bbb     C2   2353 0.10137000  12.010000   ; qtot -0.305972
 2354         h1     82    bbb     H3   2354 0.04411300   1.008000   ; qtot -0.261859
 2355         h1     82    bbb     H4   2355 0.04411300   1.008000   ; qtot -0.217746
 2356         c3     82    bbb     C3   2356 -0.00195300  12.010000   ; qtot -0.219699
 2357         h1     82    bbb     H5   2357 0.05064400   1.008000   ; qtot -0.169055
 2358         h1     82    bbb     H6   2358 0.05064400   1.008000   ; qtot -0.118411
 2359         c3     82    bbb     C4   2359 -0.01612100  12.010000   ; qtot -0.134532
 2360         hc     82    bbb     H7   2360 0.04936100   1.008000   ; qtot -0.085171
 2361         hc     82    bbb     H8   2361 0.04936100   1.008000   ; qtot -0.035810
 2362         c3     82    bbb     C5   2362 0.11363000  12.010000   ; qtot 0.077820
 2363         hc     82    bbb     H9   2363 0.06265900   1.008000   ; qtot 0.140479
 2364         hc     82    bbb    H10   2364 0.06265900   1.008000   ; qtot 0.203138
 2365         c3     82    bbb     C6   2365 0.11363000  12.010000   ; qtot 0.316768
 2366         hc     82    bbb    H11   2366 0.06265900   1.008000   ; qtot 0.379427
 2367         hc     82    bbb    H12   2367 0.06265900   1.008000   ; qtot 0.442086
 2368         c3     82    bbb     C7   2368 0.05858200  12.010000   ; qtot 0.500668
 2369         h1     82    bbb    H13   2369 0.06123400   1.008000   ; qtot 0.561902
 2370         h1     82    bbb    H14   2370 0.06123400   1.008000   ; qtot 0.623136
 2371         c3     82    bbb     C8   2371 -0.72423400  12.010000   ; qtot -0.101098
 2372         h1     82    bbb    H15   2372 0.25637600   1.008000   ; qtot 0.155278
 2373         h1     82    bbb    H16   2373 0.25637600   1.008000   ; qtot 0.411654
 2374         c3     82    bbb     C9   2374 -0.72423400  12.010000   ; qtot -0.312580
 2375         h1     82    bbb    H17   2375 0.25637600   1.008000   ; qtot -0.056204
 2376         h1     82    bbb    H18   2376 0.25637600   1.008000   ; qtot 0.200172
 2377         os     82    bbb     O1   2377 -0.20025300  16.000000   ; qtot -0.000081
; residue   83 bbb rtp bbb q -0.0
 2378         n3     83    bbb     N1   2378 -0.59685800  14.010000   ; qtot -0.596939
 2379         c3     83    bbb     C1   2379 0.10137000  12.010000   ; qtot -0.495569
 2380         h1     83    bbb     H1   2380 0.04411300   1.008000   ; qtot -0.451456
 2381         h1     83    bbb     H2   2381 0.04411300   1.008000   ; qtot -0.407343
 2382         c3     83    bbb     C2   2382 0.10137000  12.010000   ; qtot -0.305973
 2383         h1     83    bbb     H3   2383 0.04411300   1.008000   ; qtot -0.261860
 2384         h1     83    bbb     H4   2384 0.04411300   1.008000   ; qtot -0.217747
 2385         c3     83    bbb     C3   2385 -0.00195300  12.010000   ; qtot -0.219700
 2386         h1     83    bbb     H5   2386 0.05064400   1.008000   ; qtot -0.169056
 2387         h1     83    bbb     H6   2387 0.05064400   1.008000   ; qtot -0.118412
 2388         c3     83    bbb     C4   2388 -0.01612100  12.010000   ; qtot -0.134533
 2389         hc     83    bbb     H7   2389 0.04936100   1.008000   ; qtot -0.085172
 2390         hc     83    bbb     H8   2390 0.04936100   1.008000   ; qtot -0.035811
 2391         c3     83    bbb     C5   2391 0.11363000  12.010000   ; qtot 0.077819
 2392         hc     83    bbb     H9   2392 0.06265900   1.008000   ; qtot 0.140478
 2393         hc     83    bbb    H10   2393 0.06265900   1.008000   ; qtot 0.203137
 2394         c3     83    bbb     C6   2394 0.11363000  12.010000   ; qtot 0.316767
 2395         hc     83    bbb    H11   2395 0.06265900   1.008000   ; qtot 0.379426
 2396         hc     83    bbb    H12   2396 0.06265900   1.008000   ; qtot 0.442085
 2397         c3     83    bbb     C7   2397 0.05858200  12.010000   ; qtot 0.500667
 2398         h1     83    bbb    H13   2398 0.06123400   1.008000   ; qtot 0.561901
 2399         h1     83    bbb    H14   2399 0.06123400   1.008000   ; qtot 0.623135
 2400         c3     83    bbb     C8   2400 -0.72423400  12.010000   ; qtot -0.101099
 2401         h1     83    bbb    H15   2401 0.25637600   1.008000   ; qtot 0.155277
 2402         h1     83    bbb    H16   2402 0.25637600   1.008000   ; qtot 0.411653
 2403         c3     83    bbb     C9   2403 -0.72423400  12.010000   ; qtot -0.312581
 2404         h1     83    bbb    H17   2404 0.25637600   1.008000   ; qtot -0.056205
 2405         h1     83    bbb    H18   2405 0.25637600   1.008000   ; qtot 0.200171
 2406         os     83    bbb     O1   2406 -0.20025300  16.000000   ; qtot -0.000082
; residue   84 bbb rtp bbb q -0.0
 2407         n3     84    bbb     N1   2407 -0.59685800  14.010000   ; qtot -0.596940
 2408         c3     84    bbb     C1   2408 0.10137000  12.010000   ; qtot -0.495570
 2409         h1     84    bbb     H1   2409 0.04411300   1.008000   ; qtot -0.451457
 2410         h1     84    bbb     H2   2410 0.04411300   1.008000   ; qtot -0.407344
 2411         c3     84    bbb     C2   2411 0.10137000  12.010000   ; qtot -0.305974
 2412         h1     84    bbb     H3   2412 0.04411300   1.008000   ; qtot -0.261861
 2413         h1     84    bbb     H4   2413 0.04411300   1.008000   ; qtot -0.217748
 2414         c3     84    bbb     C3   2414 -0.00195300  12.010000   ; qtot -0.219701
 2415         h1     84    bbb     H5   2415 0.05064400   1.008000   ; qtot -0.169057
 2416         h1     84    bbb     H6   2416 0.05064400   1.008000   ; qtot -0.118413
 2417         c3     84    bbb     C4   2417 -0.01612100  12.010000   ; qtot -0.134534
 2418         hc     84    bbb     H7   2418 0.04936100   1.008000   ; qtot -0.085173
 2419         hc     84    bbb     H8   2419 0.04936100   1.008000   ; qtot -0.035812
 2420         c3     84    bbb     C5   2420 0.11363000  12.010000   ; qtot 0.077818
 2421         hc     84    bbb     H9   2421 0.06265900   1.008000   ; qtot 0.140477
 2422         hc     84    bbb    H10   2422 0.06265900   1.008000   ; qtot 0.203136
 2423         c3     84    bbb     C6   2423 0.11363000  12.010000   ; qtot 0.316766
 2424         hc     84    bbb    H11   2424 0.06265900   1.008000   ; qtot 0.379425
 2425         hc     84    bbb    H12   2425 0.06265900   1.008000   ; qtot 0.442084
 2426         c3     84    bbb     C7   2426 0.05858200  12.010000   ; qtot 0.500666
 2427         h1     84    bbb    H13   2427 0.06123400   1.008000   ; qtot 0.561900
 2428         h1     84    bbb    H14   2428 0.06123400   1.008000   ; qtot 0.623134
 2429         c3     84    bbb     C8   2429 -0.72423400  12.010000   ; qtot -0.101100
 2430         h1     84    bbb    H15   2430 0.25637600   1.008000   ; qtot 0.155276
 2431         h1     84    bbb    H16   2431 0.25637600   1.008000   ; qtot 0.411652
 2432         c3     84    bbb     C9   2432 -0.72423400  12.010000   ; qtot -0.312582
 2433         h1     84    bbb    H17   2433 0.25637600   1.008000   ; qtot -0.056206
 2434         h1     84    bbb    H18   2434 0.25637600   1.008000   ; qtot 0.200170
 2435         os     84    bbb     O1   2435 -0.20025300  16.000000   ; qtot -0.000083
; residue   85 bbb rtp bbb q -0.0
 2436         n3     85    bbb     N1   2436 -0.59685800  14.010000   ; qtot -0.596941
 2437         c3     85    bbb     C1   2437 0.10137000  12.010000   ; qtot -0.495571
 2438         h1     85    bbb     H1   2438 0.04411300   1.008000   ; qtot -0.451458
 2439         h1     85    bbb     H2   2439 0.04411300   1.008000   ; qtot -0.407345
 2440         c3     85    bbb     C2   2440 0.10137000  12.010000   ; qtot -0.305975
 2441         h1     85    bbb     H3   2441 0.04411300   1.008000   ; qtot -0.261862
 2442         h1     85    bbb     H4   2442 0.04411300   1.008000   ; qtot -0.217749
 2443         c3     85    bbb     C3   2443 -0.00195300  12.010000   ; qtot -0.219702
 2444         h1     85    bbb     H5   2444 0.05064400   1.008000   ; qtot -0.169058
 2445         h1     85    bbb     H6   2445 0.05064400   1.008000   ; qtot -0.118414
 2446         c3     85    bbb     C4   2446 -0.01612100  12.010000   ; qtot -0.134535
 2447         hc     85    bbb     H7   2447 0.04936100   1.008000   ; qtot -0.085174
 2448         hc     85    bbb     H8   2448 0.04936100   1.008000   ; qtot -0.035813
 2449         c3     85    bbb     C5   2449 0.11363000  12.010000   ; qtot 0.077817
 2450         hc     85    bbb     H9   2450 0.06265900   1.008000   ; qtot 0.140476
 2451         hc     85    bbb    H10   2451 0.06265900   1.008000   ; qtot 0.203135
 2452         c3     85    bbb     C6   2452 0.11363000  12.010000   ; qtot 0.316765
 2453         hc     85    bbb    H11   2453 0.06265900   1.008000   ; qtot 0.379424
 2454         hc     85    bbb    H12   2454 0.06265900   1.008000   ; qtot 0.442083
 2455         c3     85    bbb     C7   2455 0.05858200  12.010000   ; qtot 0.500665
 2456         h1     85    bbb    H13   2456 0.06123400   1.008000   ; qtot 0.561899
 2457         h1     85    bbb    H14   2457 0.06123400   1.008000   ; qtot 0.623133
 2458         c3     85    bbb     C8   2458 -0.72423400  12.010000   ; qtot -0.101101
 2459         h1     85    bbb    H15   2459 0.25637600   1.008000   ; qtot 0.155275
 2460         h1     85    bbb    H16   2460 0.25637600   1.008000   ; qtot 0.411651
 2461         c3     85    bbb     C9   2461 -0.72423400  12.010000   ; qtot -0.312583
 2462         h1     85    bbb    H17   2462 0.25637600   1.008000   ; qtot -0.056207
 2463         h1     85    bbb    H18   2463 0.25637600   1.008000   ; qtot 0.200169
 2464         os     85    bbb     O1   2464 -0.20025300  16.000000   ; qtot -0.000084
; residue   86 bbb rtp bbb q -0.0
 2465         n3     86    bbb     N1   2465 -0.59685800  14.010000   ; qtot -0.596942
 2466         c3     86    bbb     C1   2466 0.10137000  12.010000   ; qtot -0.495572
 2467         h1     86    bbb     H1   2467 0.04411300   1.008000   ; qtot -0.451459
 2468         h1     86    bbb     H2   2468 0.04411300   1.008000   ; qtot -0.407346
 2469         c3     86    bbb     C2   2469 0.10137000  12.010000   ; qtot -0.305976
 2470         h1     86    bbb     H3   2470 0.04411300   1.008000   ; qtot -0.261863
 2471         h1     86    bbb     H4   2471 0.04411300   1.008000   ; qtot -0.217750
 2472         c3     86    bbb     C3   2472 -0.00195300  12.010000   ; qtot -0.219703
 2473         h1     86    bbb     H5   2473 0.05064400   1.008000   ; qtot -0.169059
 2474         h1     86    bbb     H6   2474 0.05064400   1.008000   ; qtot -0.118415
 2475         c3     86    bbb     C4   2475 -0.01612100  12.010000   ; qtot -0.134536
 2476         hc     86    bbb     H7   2476 0.04936100   1.008000   ; qtot -0.085175
 2477         hc     86    bbb     H8   2477 0.04936100   1.008000   ; qtot -0.035814
 2478         c3     86    bbb     C5   2478 0.11363000  12.010000   ; qtot 0.077816
 2479         hc     86    bbb     H9   2479 0.06265900   1.008000   ; qtot 0.140475
 2480         hc     86    bbb    H10   2480 0.06265900   1.008000   ; qtot 0.203134
 2481         c3     86    bbb     C6   2481 0.11363000  12.010000   ; qtot 0.316764
 2482         hc     86    bbb    H11   2482 0.06265900   1.008000   ; qtot 0.379423
 2483         hc     86    bbb    H12   2483 0.06265900   1.008000   ; qtot 0.442082
 2484         c3     86    bbb     C7   2484 0.05858200  12.010000   ; qtot 0.500664
 2485         h1     86    bbb    H13   2485 0.06123400   1.008000   ; qtot 0.561898
 2486         h1     86    bbb    H14   2486 0.06123400   1.008000   ; qtot 0.623132
 2487         c3     86    bbb     C8   2487 -0.72423400  12.010000   ; qtot -0.101102
 2488         h1     86    bbb    H15   2488 0.25637600   1.008000   ; qtot 0.155274
 2489         h1     86    bbb    H16   2489 0.25637600   1.008000   ; qtot 0.411650
 2490         c3     86    bbb     C9   2490 -0.72423400  12.010000   ; qtot -0.312584
 2491         h1     86    bbb    H17   2491 0.25637600   1.008000   ; qtot -0.056208
 2492         h1     86    bbb    H18   2492 0.25637600   1.008000   ; qtot 0.200168
 2493         os     86    bbb     O1   2493 -0.20025300  16.000000   ; qtot -0.000085
; residue   87 bbb rtp bbb q -0.0
 2494         n3     87    bbb     N1   2494 -0.59685800  14.010000   ; qtot -0.596943
 2495         c3     87    bbb     C1   2495 0.10137000  12.010000   ; qtot -0.495573
 2496         h1     87    bbb     H1   2496 0.04411300   1.008000   ; qtot -0.451460
 2497         h1     87    bbb     H2   2497 0.04411300   1.008000   ; qtot -0.407347
 2498         c3     87    bbb     C2   2498 0.10137000  12.010000   ; qtot -0.305977
 2499         h1     87    bbb     H3   2499 0.04411300   1.008000   ; qtot -0.261864
 2500         h1     87    bbb     H4   2500 0.04411300   1.008000   ; qtot -0.217751
 2501         c3     87    bbb     C3   2501 -0.00195300  12.010000   ; qtot -0.219704
 2502         h1     87    bbb     H5   2502 0.05064400   1.008000   ; qtot -0.169060
 2503         h1     87    bbb     H6   2503 0.05064400   1.008000   ; qtot -0.118416
 2504         c3     87    bbb     C4   2504 -0.01612100  12.010000   ; qtot -0.134537
 2505         hc     87    bbb     H7   2505 0.04936100   1.008000   ; qtot -0.085176
 2506         hc     87    bbb     H8   2506 0.04936100   1.008000   ; qtot -0.035815
 2507         c3     87    bbb     C5   2507 0.11363000  12.010000   ; qtot 0.077815
 2508         hc     87    bbb     H9   2508 0.06265900   1.008000   ; qtot 0.140474
 2509         hc     87    bbb    H10   2509 0.06265900   1.008000   ; qtot 0.203133
 2510         c3     87    bbb     C6   2510 0.11363000  12.010000   ; qtot 0.316763
 2511         hc     87    bbb    H11   2511 0.06265900   1.008000   ; qtot 0.379422
 2512         hc     87    bbb    H12   2512 0.06265900   1.008000   ; qtot 0.442081
 2513         c3     87    bbb     C7   2513 0.05858200  12.010000   ; qtot 0.500663
 2514         h1     87    bbb    H13   2514 0.06123400   1.008000   ; qtot 0.561897
 2515         h1     87    bbb    H14   2515 0.06123400   1.008000   ; qtot 0.623131
 2516         c3     87    bbb     C8   2516 -0.72423400  12.010000   ; qtot -0.101103
 2517         h1     87    bbb    H15   2517 0.25637600   1.008000   ; qtot 0.155273
 2518         h1     87    bbb    H16   2518 0.25637600   1.008000   ; qtot 0.411649
 2519         c3     87    bbb     C9   2519 -0.72423400  12.010000   ; qtot -0.312585
 2520         h1     87    bbb    H17   2520 0.25637600   1.008000   ; qtot -0.056209
 2521         h1     87    bbb    H18   2521 0.25637600   1.008000   ; qtot 0.200167
 2522         os     87    bbb     O1   2522 -0.20025300  16.000000   ; qtot -0.000086
; residue   88 bbb rtp bbb q -0.0
 2523         n3     88    bbb     N1   2523 -0.59685800  14.010000   ; qtot -0.596944
 2524         c3     88    bbb     C1   2524 0.10137000  12.010000   ; qtot -0.495574
 2525         h1     88    bbb     H1   2525 0.04411300   1.008000   ; qtot -0.451461
 2526         h1     88    bbb     H2   2526 0.04411300   1.008000   ; qtot -0.407348
 2527         c3     88    bbb     C2   2527 0.10137000  12.010000   ; qtot -0.305978
 2528         h1     88    bbb     H3   2528 0.04411300   1.008000   ; qtot -0.261865
 2529         h1     88    bbb     H4   2529 0.04411300   1.008000   ; qtot -0.217752
 2530         c3     88    bbb     C3   2530 -0.00195300  12.010000   ; qtot -0.219705
 2531         h1     88    bbb     H5   2531 0.05064400   1.008000   ; qtot -0.169061
 2532         h1     88    bbb     H6   2532 0.05064400   1.008000   ; qtot -0.118417
 2533         c3     88    bbb     C4   2533 -0.01612100  12.010000   ; qtot -0.134538
 2534         hc     88    bbb     H7   2534 0.04936100   1.008000   ; qtot -0.085177
 2535         hc     88    bbb     H8   2535 0.04936100   1.008000   ; qtot -0.035816
 2536         c3     88    bbb     C5   2536 0.11363000  12.010000   ; qtot 0.077814
 2537         hc     88    bbb     H9   2537 0.06265900   1.008000   ; qtot 0.140473
 2538         hc     88    bbb    H10   2538 0.06265900   1.008000   ; qtot 0.203132
 2539         c3     88    bbb     C6   2539 0.11363000  12.010000   ; qtot 0.316762
 2540         hc     88    bbb    H11   2540 0.06265900   1.008000   ; qtot 0.379421
 2541         hc     88    bbb    H12   2541 0.06265900   1.008000   ; qtot 0.442080
 2542         c3     88    bbb     C7   2542 0.05858200  12.010000   ; qtot 0.500662
 2543         h1     88    bbb    H13   2543 0.06123400   1.008000   ; qtot 0.561896
 2544         h1     88    bbb    H14   2544 0.06123400   1.008000   ; qtot 0.623130
 2545         c3     88    bbb     C8   2545 -0.72423400  12.010000   ; qtot -0.101104
 2546         h1     88    bbb    H15   2546 0.25637600   1.008000   ; qtot 0.155272
 2547         h1     88    bbb    H16   2547 0.25637600   1.008000   ; qtot 0.411648
 2548         c3     88    bbb     C9   2548 -0.72423400  12.010000   ; qtot -0.312586
 2549         h1     88    bbb    H17   2549 0.25637600   1.008000   ; qtot -0.056210
 2550         h1     88    bbb    H18   2550 0.25637600   1.008000   ; qtot 0.200166
 2551         os     88    bbb     O1   2551 -0.20025300  16.000000   ; qtot -0.000087
; residue   89 bbb rtp bbb q -0.0
 2552         n3     89    bbb     N1   2552 -0.59685800  14.010000   ; qtot -0.596945
 2553         c3     89    bbb     C1   2553 0.10137000  12.010000   ; qtot -0.495575
 2554         h1     89    bbb     H1   2554 0.04411300   1.008000   ; qtot -0.451462
 2555         h1     89    bbb     H2   2555 0.04411300   1.008000   ; qtot -0.407349
 2556         c3     89    bbb     C2   2556 0.10137000  12.010000   ; qtot -0.305979
 2557         h1     89    bbb     H3   2557 0.04411300   1.008000   ; qtot -0.261866
 2558         h1     89    bbb     H4   2558 0.04411300   1.008000   ; qtot -0.217753
 2559         c3     89    bbb     C3   2559 -0.00195300  12.010000   ; qtot -0.219706
 2560         h1     89    bbb     H5   2560 0.05064400   1.008000   ; qtot -0.169062
 2561         h1     89    bbb     H6   2561 0.05064400   1.008000   ; qtot -0.118418
 2562         c3     89    bbb     C4   2562 -0.01612100  12.010000   ; qtot -0.134539
 2563         hc     89    bbb     H7   2563 0.04936100   1.008000   ; qtot -0.085178
 2564         hc     89    bbb     H8   2564 0.04936100   1.008000   ; qtot -0.035817
 2565         c3     89    bbb     C5   2565 0.11363000  12.010000   ; qtot 0.077813
 2566         hc     89    bbb     H9   2566 0.06265900   1.008000   ; qtot 0.140472
 2567         hc     89    bbb    H10   2567 0.06265900   1.008000   ; qtot 0.203131
 2568         c3     89    bbb     C6   2568 0.11363000  12.010000   ; qtot 0.316761
 2569         hc     89    bbb    H11   2569 0.06265900   1.008000   ; qtot 0.379420
 2570         hc     89    bbb    H12   2570 0.06265900   1.008000   ; qtot 0.442079
 2571         c3     89    bbb     C7   2571 0.05858200  12.010000   ; qtot 0.500661
 2572         h1     89    bbb    H13   2572 0.06123400   1.008000   ; qtot 0.561895
 2573         h1     89    bbb    H14   2573 0.06123400   1.008000   ; qtot 0.623129
 2574         c3     89    bbb     C8   2574 -0.72423400  12.010000   ; qtot -0.101105
 2575         h1     89    bbb    H15   2575 0.25637600   1.008000   ; qtot 0.155271
 2576         h1     89    bbb    H16   2576 0.25637600   1.008000   ; qtot 0.411647
 2577         c3     89    bbb     C9   2577 -0.72423400  12.010000   ; qtot -0.312587
 2578         h1     89    bbb    H17   2578 0.25637600   1.008000   ; qtot -0.056211
 2579         h1     89    bbb    H18   2579 0.25637600   1.008000   ; qtot 0.200165
 2580         os     89    bbb     O1   2580 -0.20025300  16.000000   ; qtot -0.000088
; residue   90 bbb rtp bbb q -0.0
 2581         n3     90    bbb     N1   2581 -0.59685800  14.010000   ; qtot -0.596946
 2582         c3     90    bbb     C1   2582 0.10137000  12.010000   ; qtot -0.495576
 2583         h1     90    bbb     H1   2583 0.04411300   1.008000   ; qtot -0.451463
 2584         h1     90    bbb     H2   2584 0.04411300   1.008000   ; qtot -0.407350
 2585         c3     90    bbb     C2   2585 0.10137000  12.010000   ; qtot -0.305980
 2586         h1     90    bbb     H3   2586 0.04411300   1.008000   ; qtot -0.261867
 2587         h1     90    bbb     H4   2587 0.04411300   1.008000   ; qtot -0.217754
 2588         c3     90    bbb     C3   2588 -0.00195300  12.010000   ; qtot -0.219707
 2589         h1     90    bbb     H5   2589 0.05064400   1.008000   ; qtot -0.169063
 2590         h1     90    bbb     H6   2590 0.05064400   1.008000   ; qtot -0.118419
 2591         c3     90    bbb     C4   2591 -0.01612100  12.010000   ; qtot -0.134540
 2592         hc     90    bbb     H7   2592 0.04936100   1.008000   ; qtot -0.085179
 2593         hc     90    bbb     H8   2593 0.04936100   1.008000   ; qtot -0.035818
 2594         c3     90    bbb     C5   2594 0.11363000  12.010000   ; qtot 0.077812
 2595         hc     90    bbb     H9   2595 0.06265900   1.008000   ; qtot 0.140471
 2596         hc     90    bbb    H10   2596 0.06265900   1.008000   ; qtot 0.203130
 2597         c3     90    bbb     C6   2597 0.11363000  12.010000   ; qtot 0.316760
 2598         hc     90    bbb    H11   2598 0.06265900   1.008000   ; qtot 0.379419
 2599         hc     90    bbb    H12   2599 0.06265900   1.008000   ; qtot 0.442078
 2600         c3     90    bbb     C7   2600 0.05858200  12.010000   ; qtot 0.500660
 2601         h1     90    bbb    H13   2601 0.06123400   1.008000   ; qtot 0.561894
 2602         h1     90    bbb    H14   2602 0.06123400   1.008000   ; qtot 0.623128
 2603         c3     90    bbb     C8   2603 -0.72423400  12.010000   ; qtot -0.101106
 2604         h1     90    bbb    H15   2604 0.25637600   1.008000   ; qtot 0.155270
 2605         h1     90    bbb    H16   2605 0.25637600   1.008000   ; qtot 0.411646
 2606         c3     90    bbb     C9   2606 -0.72423400  12.010000   ; qtot -0.312588
 2607         h1     90    bbb    H17   2607 0.25637600   1.008000   ; qtot -0.056212
 2608         h1     90    bbb    H18   2608 0.25637600   1.008000   ; qtot 0.200164
 2609         os     90    bbb     O1   2609 -0.20025300  16.000000   ; qtot -0.000089
; residue   91 bbb rtp bbb q -0.0
 2610         n3     91    bbb     N1   2610 -0.59685800  14.010000   ; qtot -0.596947
 2611         c3     91    bbb     C1   2611 0.10137000  12.010000   ; qtot -0.495577
 2612         h1     91    bbb     H1   2612 0.04411300   1.008000   ; qtot -0.451464
 2613         h1     91    bbb     H2   2613 0.04411300   1.008000   ; qtot -0.407351
 2614         c3     91    bbb     C2   2614 0.10137000  12.010000   ; qtot -0.305981
 2615         h1     91    bbb     H3   2615 0.04411300   1.008000   ; qtot -0.261868
 2616         h1     91    bbb     H4   2616 0.04411300   1.008000   ; qtot -0.217755
 2617         c3     91    bbb     C3   2617 -0.00195300  12.010000   ; qtot -0.219708
 2618         h1     91    bbb     H5   2618 0.05064400   1.008000   ; qtot -0.169064
 2619         h1     91    bbb     H6   2619 0.05064400   1.008000   ; qtot -0.118420
 2620         c3     91    bbb     C4   2620 -0.01612100  12.010000   ; qtot -0.134541
 2621         hc     91    bbb     H7   2621 0.04936100   1.008000   ; qtot -0.085180
 2622         hc     91    bbb     H8   2622 0.04936100   1.008000   ; qtot -0.035819
 2623         c3     91    bbb     C5   2623 0.11363000  12.010000   ; qtot 0.077811
 2624         hc     91    bbb     H9   2624 0.06265900   1.008000   ; qtot 0.140470
 2625         hc     91    bbb    H10   2625 0.06265900   1.008000   ; qtot 0.203129
 2626         c3     91    bbb     C6   2626 0.11363000  12.010000   ; qtot 0.316759
 2627         hc     91    bbb    H11   2627 0.06265900   1.008000   ; qtot 0.379418
 2628         hc     91    bbb    H12   2628 0.06265900   1.008000   ; qtot 0.442077
 2629         c3     91    bbb     C7   2629 0.05858200  12.010000   ; qtot 0.500659
 2630         h1     91    bbb    H13   2630 0.06123400   1.008000   ; qtot 0.561893
 2631         h1     91    bbb    H14   2631 0.06123400   1.008000   ; qtot 0.623127
 2632         c3     91    bbb     C8   2632 -0.72423400  12.010000   ; qtot -0.101107
 2633         h1     91    bbb    H15   2633 0.25637600   1.008000   ; qtot 0.155269
 2634         h1     91    bbb    H16   2634 0.25637600   1.008000   ; qtot 0.411645
 2635         c3     91    bbb     C9   2635 -0.72423400  12.010000   ; qtot -0.312589
 2636         h1     91    bbb    H17   2636 0.25637600   1.008000   ; qtot -0.056213
 2637         h1     91    bbb    H18   2637 0.25637600   1.008000   ; qtot 0.200163
 2638         os     91    bbb     O1   2638 -0.20025300  16.000000   ; qtot -0.000090
; residue   92 bbb rtp bbb q -0.0
 2639         n3     92    bbb     N1   2639 -0.59685800  14.010000   ; qtot -0.596948
 2640         c3     92    bbb     C1   2640 0.10137000  12.010000   ; qtot -0.495578
 2641         h1     92    bbb     H1   2641 0.04411300   1.008000   ; qtot -0.451465
 2642         h1     92    bbb     H2   2642 0.04411300   1.008000   ; qtot -0.407352
 2643         c3     92    bbb     C2   2643 0.10137000  12.010000   ; qtot -0.305982
 2644         h1     92    bbb     H3   2644 0.04411300   1.008000   ; qtot -0.261869
 2645         h1     92    bbb     H4   2645 0.04411300   1.008000   ; qtot -0.217756
 2646         c3     92    bbb     C3   2646 -0.00195300  12.010000   ; qtot -0.219709
 2647         h1     92    bbb     H5   2647 0.05064400   1.008000   ; qtot -0.169065
 2648         h1     92    bbb     H6   2648 0.05064400   1.008000   ; qtot -0.118421
 2649         c3     92    bbb     C4   2649 -0.01612100  12.010000   ; qtot -0.134542
 2650         hc     92    bbb     H7   2650 0.04936100   1.008000   ; qtot -0.085181
 2651         hc     92    bbb     H8   2651 0.04936100   1.008000   ; qtot -0.035820
 2652         c3     92    bbb     C5   2652 0.11363000  12.010000   ; qtot 0.077810
 2653         hc     92    bbb     H9   2653 0.06265900   1.008000   ; qtot 0.140469
 2654         hc     92    bbb    H10   2654 0.06265900   1.008000   ; qtot 0.203128
 2655         c3     92    bbb     C6   2655 0.11363000  12.010000   ; qtot 0.316758
 2656         hc     92    bbb    H11   2656 0.06265900   1.008000   ; qtot 0.379417
 2657         hc     92    bbb    H12   2657 0.06265900   1.008000   ; qtot 0.442076
 2658         c3     92    bbb     C7   2658 0.05858200  12.010000   ; qtot 0.500658
 2659         h1     92    bbb    H13   2659 0.06123400   1.008000   ; qtot 0.561892
 2660         h1     92    bbb    H14   2660 0.06123400   1.008000   ; qtot 0.623126
 2661         c3     92    bbb     C8   2661 -0.72423400  12.010000   ; qtot -0.101108
 2662         h1     92    bbb    H15   2662 0.25637600   1.008000   ; qtot 0.155268
 2663         h1     92    bbb    H16   2663 0.25637600   1.008000   ; qtot 0.411644
 2664         c3     92    bbb     C9   2664 -0.72423400  12.010000   ; qtot -0.312590
 2665         h1     92    bbb    H17   2665 0.25637600   1.008000   ; qtot -0.056214
 2666         h1     92    bbb    H18   2666 0.25637600   1.008000   ; qtot 0.200162
 2667         os     92    bbb     O1   2667 -0.20025300  16.000000   ; qtot -0.000091
; residue   93 bbb rtp bbb q -0.0
 2668         n3     93    bbb     N1   2668 -0.59685800  14.010000   ; qtot -0.596949
 2669         c3     93    bbb     C1   2669 0.10137000  12.010000   ; qtot -0.495579
 2670         h1     93    bbb     H1   2670 0.04411300   1.008000   ; qtot -0.451466
 2671         h1     93    bbb     H2   2671 0.04411300   1.008000   ; qtot -0.407353
 2672         c3     93    bbb     C2   2672 0.10137000  12.010000   ; qtot -0.305983
 2673         h1     93    bbb     H3   2673 0.04411300   1.008000   ; qtot -0.261870
 2674         h1     93    bbb     H4   2674 0.04411300   1.008000   ; qtot -0.217757
 2675         c3     93    bbb     C3   2675 -0.00195300  12.010000   ; qtot -0.219710
 2676         h1     93    bbb     H5   2676 0.05064400   1.008000   ; qtot -0.169066
 2677         h1     93    bbb     H6   2677 0.05064400   1.008000   ; qtot -0.118422
 2678         c3     93    bbb     C4   2678 -0.01612100  12.010000   ; qtot -0.134543
 2679         hc     93    bbb     H7   2679 0.04936100   1.008000   ; qtot -0.085182
 2680         hc     93    bbb     H8   2680 0.04936100   1.008000   ; qtot -0.035821
 2681         c3     93    bbb     C5   2681 0.11363000  12.010000   ; qtot 0.077809
 2682         hc     93    bbb     H9   2682 0.06265900   1.008000   ; qtot 0.140468
 2683         hc     93    bbb    H10   2683 0.06265900   1.008000   ; qtot 0.203127
 2684         c3     93    bbb     C6   2684 0.11363000  12.010000   ; qtot 0.316757
 2685         hc     93    bbb    H11   2685 0.06265900   1.008000   ; qtot 0.379416
 2686         hc     93    bbb    H12   2686 0.06265900   1.008000   ; qtot 0.442075
 2687         c3     93    bbb     C7   2687 0.05858200  12.010000   ; qtot 0.500657
 2688         h1     93    bbb    H13   2688 0.06123400   1.008000   ; qtot 0.561891
 2689         h1     93    bbb    H14   2689 0.06123400   1.008000   ; qtot 0.623125
 2690         c3     93    bbb     C8   2690 -0.72423400  12.010000   ; qtot -0.101109
 2691         h1     93    bbb    H15   2691 0.25637600   1.008000   ; qtot 0.155267
 2692         h1     93    bbb    H16   2692 0.25637600   1.008000   ; qtot 0.411643
 2693         c3     93    bbb     C9   2693 -0.72423400  12.010000   ; qtot -0.312591
 2694         h1     93    bbb    H17   2694 0.25637600   1.008000   ; qtot -0.056215
 2695         h1     93    bbb    H18   2695 0.25637600   1.008000   ; qtot 0.200161
 2696         os     93    bbb     O1   2696 -0.20025300  16.000000   ; qtot -0.000092
; residue   94 bbb rtp bbb q -0.0
 2697         n3     94    bbb     N1   2697 -0.59685800  14.010000   ; qtot -0.596950
 2698         c3     94    bbb     C1   2698 0.10137000  12.010000   ; qtot -0.495580
 2699         h1     94    bbb     H1   2699 0.04411300   1.008000   ; qtot -0.451467
 2700         h1     94    bbb     H2   2700 0.04411300   1.008000   ; qtot -0.407354
 2701         c3     94    bbb     C2   2701 0.10137000  12.010000   ; qtot -0.305984
 2702         h1     94    bbb     H3   2702 0.04411300   1.008000   ; qtot -0.261871
 2703         h1     94    bbb     H4   2703 0.04411300   1.008000   ; qtot -0.217758
 2704         c3     94    bbb     C3   2704 -0.00195300  12.010000   ; qtot -0.219711
 2705         h1     94    bbb     H5   2705 0.05064400   1.008000   ; qtot -0.169067
 2706         h1     94    bbb     H6   2706 0.05064400   1.008000   ; qtot -0.118423
 2707         c3     94    bbb     C4   2707 -0.01612100  12.010000   ; qtot -0.134544
 2708         hc     94    bbb     H7   2708 0.04936100   1.008000   ; qtot -0.085183
 2709         hc     94    bbb     H8   2709 0.04936100   1.008000   ; qtot -0.035822
 2710         c3     94    bbb     C5   2710 0.11363000  12.010000   ; qtot 0.077808
 2711         hc     94    bbb     H9   2711 0.06265900   1.008000   ; qtot 0.140467
 2712         hc     94    bbb    H10   2712 0.06265900   1.008000   ; qtot 0.203126
 2713         c3     94    bbb     C6   2713 0.11363000  12.010000   ; qtot 0.316756
 2714         hc     94    bbb    H11   2714 0.06265900   1.008000   ; qtot 0.379415
 2715         hc     94    bbb    H12   2715 0.06265900   1.008000   ; qtot 0.442074
 2716         c3     94    bbb     C7   2716 0.05858200  12.010000   ; qtot 0.500656
 2717         h1     94    bbb    H13   2717 0.06123400   1.008000   ; qtot 0.561890
 2718         h1     94    bbb    H14   2718 0.06123400   1.008000   ; qtot 0.623124
 2719         c3     94    bbb     C8   2719 -0.72423400  12.010000   ; qtot -0.101110
 2720         h1     94    bbb    H15   2720 0.25637600   1.008000   ; qtot 0.155266
 2721         h1     94    bbb    H16   2721 0.25637600   1.008000   ; qtot 0.411642
 2722         c3     94    bbb     C9   2722 -0.72423400  12.010000   ; qtot -0.312592
 2723         h1     94    bbb    H17   2723 0.25637600   1.008000   ; qtot -0.056216
 2724         h1     94    bbb    H18   2724 0.25637600   1.008000   ; qtot 0.200160
 2725         os     94    bbb     O1   2725 -0.20025300  16.000000   ; qtot -0.000093
; residue   95 bbb rtp bbb q -0.0
 2726         n3     95    bbb     N1   2726 -0.59685800  14.010000   ; qtot -0.596951
 2727         c3     95    bbb     C1   2727 0.10137000  12.010000   ; qtot -0.495581
 2728         h1     95    bbb     H1   2728 0.04411300   1.008000   ; qtot -0.451468
 2729         h1     95    bbb     H2   2729 0.04411300   1.008000   ; qtot -0.407355
 2730         c3     95    bbb     C2   2730 0.10137000  12.010000   ; qtot -0.305985
 2731         h1     95    bbb     H3   2731 0.04411300   1.008000   ; qtot -0.261872
 2732         h1     95    bbb     H4   2732 0.04411300   1.008000   ; qtot -0.217759
 2733         c3     95    bbb     C3   2733 -0.00195300  12.010000   ; qtot -0.219712
 2734         h1     95    bbb     H5   2734 0.05064400   1.008000   ; qtot -0.169068
 2735         h1     95    bbb     H6   2735 0.05064400   1.008000   ; qtot -0.118424
 2736         c3     95    bbb     C4   2736 -0.01612100  12.010000   ; qtot -0.134545
 2737         hc     95    bbb     H7   2737 0.04936100   1.008000   ; qtot -0.085184
 2738         hc     95    bbb     H8   2738 0.04936100   1.008000   ; qtot -0.035823
 2739         c3     95    bbb     C5   2739 0.11363000  12.010000   ; qtot 0.077807
 2740         hc     95    bbb     H9   2740 0.06265900   1.008000   ; qtot 0.140466
 2741         hc     95    bbb    H10   2741 0.06265900   1.008000   ; qtot 0.203125
 2742         c3     95    bbb     C6   2742 0.11363000  12.010000   ; qtot 0.316755
 2743         hc     95    bbb    H11   2743 0.06265900   1.008000   ; qtot 0.379414
 2744         hc     95    bbb    H12   2744 0.06265900   1.008000   ; qtot 0.442073
 2745         c3     95    bbb     C7   2745 0.05858200  12.010000   ; qtot 0.500655
 2746         h1     95    bbb    H13   2746 0.06123400   1.008000   ; qtot 0.561889
 2747         h1     95    bbb    H14   2747 0.06123400   1.008000   ; qtot 0.623123
 2748         c3     95    bbb     C8   2748 -0.72423400  12.010000   ; qtot -0.101111
 2749         h1     95    bbb    H15   2749 0.25637600   1.008000   ; qtot 0.155265
 2750         h1     95    bbb    H16   2750 0.25637600   1.008000   ; qtot 0.411641
 2751         c3     95    bbb     C9   2751 -0.72423400  12.010000   ; qtot -0.312593
 2752         h1     95    bbb    H17   2752 0.25637600   1.008000   ; qtot -0.056217
 2753         h1     95    bbb    H18   2753 0.25637600   1.008000   ; qtot 0.200159
 2754         os     95    bbb     O1   2754 -0.20025300  16.000000   ; qtot -0.000094
; residue   96 bbb rtp bbb q -0.0
 2755         n3     96    bbb     N1   2755 -0.59685800  14.010000   ; qtot -0.596952
 2756         c3     96    bbb     C1   2756 0.10137000  12.010000   ; qtot -0.495582
 2757         h1     96    bbb     H1   2757 0.04411300   1.008000   ; qtot -0.451469
 2758         h1     96    bbb     H2   2758 0.04411300   1.008000   ; qtot -0.407356
 2759         c3     96    bbb     C2   2759 0.10137000  12.010000   ; qtot -0.305986
 2760         h1     96    bbb     H3   2760 0.04411300   1.008000   ; qtot -0.261873
 2761         h1     96    bbb     H4   2761 0.04411300   1.008000   ; qtot -0.217760
 2762         c3     96    bbb     C3   2762 -0.00195300  12.010000   ; qtot -0.219713
 2763         h1     96    bbb     H5   2763 0.05064400   1.008000   ; qtot -0.169069
 2764         h1     96    bbb     H6   2764 0.05064400   1.008000   ; qtot -0.118425
 2765         c3     96    bbb     C4   2765 -0.01612100  12.010000   ; qtot -0.134546
 2766         hc     96    bbb     H7   2766 0.04936100   1.008000   ; qtot -0.085185
 2767         hc     96    bbb     H8   2767 0.04936100   1.008000   ; qtot -0.035824
 2768         c3     96    bbb     C5   2768 0.11363000  12.010000   ; qtot 0.077806
 2769         hc     96    bbb     H9   2769 0.06265900   1.008000   ; qtot 0.140465
 2770         hc     96    bbb    H10   2770 0.06265900   1.008000   ; qtot 0.203124
 2771         c3     96    bbb     C6   2771 0.11363000  12.010000   ; qtot 0.316754
 2772         hc     96    bbb    H11   2772 0.06265900   1.008000   ; qtot 0.379413
 2773         hc     96    bbb    H12   2773 0.06265900   1.008000   ; qtot 0.442072
 2774         c3     96    bbb     C7   2774 0.05858200  12.010000   ; qtot 0.500654
 2775         h1     96    bbb    H13   2775 0.06123400   1.008000   ; qtot 0.561888
 2776         h1     96    bbb    H14   2776 0.06123400   1.008000   ; qtot 0.623122
 2777         c3     96    bbb     C8   2777 -0.72423400  12.010000   ; qtot -0.101112
 2778         h1     96    bbb    H15   2778 0.25637600   1.008000   ; qtot 0.155264
 2779         h1     96    bbb    H16   2779 0.25637600   1.008000   ; qtot 0.411640
 2780         c3     96    bbb     C9   2780 -0.72423400  12.010000   ; qtot -0.312594
 2781         h1     96    bbb    H17   2781 0.25637600   1.008000   ; qtot -0.056218
 2782         h1     96    bbb    H18   2782 0.25637600   1.008000   ; qtot 0.200158
 2783         os     96    bbb     O1   2783 -0.20025300  16.000000   ; qtot -0.000095
; residue   97 bbb rtp bbb q -0.0
 2784         n3     97    bbb     N1   2784 -0.59685800  14.010000   ; qtot -0.596953
 2785         c3     97    bbb     C1   2785 0.10137000  12.010000   ; qtot -0.495583
 2786         h1     97    bbb     H1   2786 0.04411300   1.008000   ; qtot -0.451470
 2787         h1     97    bbb     H2   2787 0.04411300   1.008000   ; qtot -0.407357
 2788         c3     97    bbb     C2   2788 0.10137000  12.010000   ; qtot -0.305987
 2789         h1     97    bbb     H3   2789 0.04411300   1.008000   ; qtot -0.261874
 2790         h1     97    bbb     H4   2790 0.04411300   1.008000   ; qtot -0.217761
 2791         c3     97    bbb     C3   2791 -0.00195300  12.010000   ; qtot -0.219714
 2792         h1     97    bbb     H5   2792 0.05064400   1.008000   ; qtot -0.169070
 2793         h1     97    bbb     H6   2793 0.05064400   1.008000   ; qtot -0.118426
 2794         c3     97    bbb     C4   2794 -0.01612100  12.010000   ; qtot -0.134547
 2795         hc     97    bbb     H7   2795 0.04936100   1.008000   ; qtot -0.085186
 2796         hc     97    bbb     H8   2796 0.04936100   1.008000   ; qtot -0.035825
 2797         c3     97    bbb     C5   2797 0.11363000  12.010000   ; qtot 0.077805
 2798         hc     97    bbb     H9   2798 0.06265900   1.008000   ; qtot 0.140464
 2799         hc     97    bbb    H10   2799 0.06265900   1.008000   ; qtot 0.203123
 2800         c3     97    bbb     C6   2800 0.11363000  12.010000   ; qtot 0.316753
 2801         hc     97    bbb    H11   2801 0.06265900   1.008000   ; qtot 0.379412
 2802         hc     97    bbb    H12   2802 0.06265900   1.008000   ; qtot 0.442071
 2803         c3     97    bbb     C7   2803 0.05858200  12.010000   ; qtot 0.500653
 2804         h1     97    bbb    H13   2804 0.06123400   1.008000   ; qtot 0.561887
 2805         h1     97    bbb    H14   2805 0.06123400   1.008000   ; qtot 0.623121
 2806         c3     97    bbb     C8   2806 -0.72423400  12.010000   ; qtot -0.101113
 2807         h1     97    bbb    H15   2807 0.25637600   1.008000   ; qtot 0.155263
 2808         h1     97    bbb    H16   2808 0.25637600   1.008000   ; qtot 0.411639
 2809         c3     97    bbb     C9   2809 -0.72423400  12.010000   ; qtot -0.312595
 2810         h1     97    bbb    H17   2810 0.25637600   1.008000   ; qtot -0.056219
 2811         h1     97    bbb    H18   2811 0.25637600   1.008000   ; qtot 0.200157
 2812         os     97    bbb     O1   2812 -0.20025300  16.000000   ; qtot -0.000096
; residue   98 bbb rtp bbb q -0.0
 2813         n3     98    bbb     N1   2813 -0.59685800  14.010000   ; qtot -0.596954
 2814         c3     98    bbb     C1   2814 0.10137000  12.010000   ; qtot -0.495584
 2815         h1     98    bbb     H1   2815 0.04411300   1.008000   ; qtot -0.451471
 2816         h1     98    bbb     H2   2816 0.04411300   1.008000   ; qtot -0.407358
 2817         c3     98    bbb     C2   2817 0.10137000  12.010000   ; qtot -0.305988
 2818         h1     98    bbb     H3   2818 0.04411300   1.008000   ; qtot -0.261875
 2819         h1     98    bbb     H4   2819 0.04411300   1.008000   ; qtot -0.217762
 2820         c3     98    bbb     C3   2820 -0.00195300  12.010000   ; qtot -0.219715
 2821         h1     98    bbb     H5   2821 0.05064400   1.008000   ; qtot -0.169071
 2822         h1     98    bbb     H6   2822 0.05064400   1.008000   ; qtot -0.118427
 2823         c3     98    bbb     C4   2823 -0.01612100  12.010000   ; qtot -0.134548
 2824         hc     98    bbb     H7   2824 0.04936100   1.008000   ; qtot -0.085187
 2825         hc     98    bbb     H8   2825 0.04936100   1.008000   ; qtot -0.035826
 2826         c3     98    bbb     C5   2826 0.11363000  12.010000   ; qtot 0.077804
 2827         hc     98    bbb     H9   2827 0.06265900   1.008000   ; qtot 0.140463
 2828         hc     98    bbb    H10   2828 0.06265900   1.008000   ; qtot 0.203122
 2829         c3     98    bbb     C6   2829 0.11363000  12.010000   ; qtot 0.316752
 2830         hc     98    bbb    H11   2830 0.06265900   1.008000   ; qtot 0.379411
 2831         hc     98    bbb    H12   2831 0.06265900   1.008000   ; qtot 0.442070
 2832         c3     98    bbb     C7   2832 0.05858200  12.010000   ; qtot 0.500652
 2833         h1     98    bbb    H13   2833 0.06123400   1.008000   ; qtot 0.561886
 2834         h1     98    bbb    H14   2834 0.06123400   1.008000   ; qtot 0.623120
 2835         c3     98    bbb     C8   2835 -0.72423400  12.010000   ; qtot -0.101114
 2836         h1     98    bbb    H15   2836 0.25637600   1.008000   ; qtot 0.155262
 2837         h1     98    bbb    H16   2837 0.25637600   1.008000   ; qtot 0.411638
 2838         c3     98    bbb     C9   2838 -0.72423400  12.010000   ; qtot -0.312596
 2839         h1     98    bbb    H17   2839 0.25637600   1.008000   ; qtot -0.056220
 2840         h1     98    bbb    H18   2840 0.25637600   1.008000   ; qtot 0.200156
 2841         os     98    bbb     O1   2841 -0.20025300  16.000000   ; qtot -0.000097
; residue   99 bbb rtp bbb q -0.0
 2842         n3     99    bbb     N1   2842 -0.59685800  14.010000   ; qtot -0.596955
 2843         c3     99    bbb     C1   2843 0.10137000  12.010000   ; qtot -0.495585
 2844         h1     99    bbb     H1   2844 0.04411300   1.008000   ; qtot -0.451472
 2845         h1     99    bbb     H2   2845 0.04411300   1.008000   ; qtot -0.407359
 2846         c3     99    bbb     C2   2846 0.10137000  12.010000   ; qtot -0.305989
 2847         h1     99    bbb     H3   2847 0.04411300   1.008000   ; qtot -0.261876
 2848         h1     99    bbb     H4   2848 0.04411300   1.008000   ; qtot -0.217763
 2849         c3     99    bbb     C3   2849 -0.00195300  12.010000   ; qtot -0.219716
 2850         h1     99    bbb     H5   2850 0.05064400   1.008000   ; qtot -0.169072
 2851         h1     99    bbb     H6   2851 0.05064400   1.008000   ; qtot -0.118428
 2852         c3     99    bbb     C4   2852 -0.01612100  12.010000   ; qtot -0.134549
 2853         hc     99    bbb     H7   2853 0.04936100   1.008000   ; qtot -0.085188
 2854         hc     99    bbb     H8   2854 0.04936100   1.008000   ; qtot -0.035827
 2855         c3     99    bbb     C5   2855 0.11363000  12.010000   ; qtot 0.077803
 2856         hc     99    bbb     H9   2856 0.06265900   1.008000   ; qtot 0.140462
 2857         hc     99    bbb    H10   2857 0.06265900   1.008000   ; qtot 0.203121
 2858         c3     99    bbb     C6   2858 0.11363000  12.010000   ; qtot 0.316751
 2859         hc     99    bbb    H11   2859 0.06265900   1.008000   ; qtot 0.379410
 2860         hc     99    bbb    H12   2860 0.06265900   1.008000   ; qtot 0.442069
 2861         c3     99    bbb     C7   2861 0.05858200  12.010000   ; qtot 0.500651
 2862         h1     99    bbb    H13   2862 0.06123400   1.008000   ; qtot 0.561885
 2863         h1     99    bbb    H14   2863 0.06123400   1.008000   ; qtot 0.623119
 2864         c3     99    bbb     C8   2864 -0.72423400  12.010000   ; qtot -0.101115
 2865         h1     99    bbb    H15   2865 0.25637600   1.008000   ; qtot 0.155261
 2866         h1     99    bbb    H16   2866 0.25637600   1.008000   ; qtot 0.411637
 2867         c3     99    bbb     C9   2867 -0.72423400  12.010000   ; qtot -0.312597
 2868         h1     99    bbb    H17   2868 0.25637600   1.008000   ; qtot -0.056221
 2869         h1     99    bbb    H18   2869 0.25637600   1.008000   ; qtot 0.200155
 2870         os     99    bbb     O1   2870 -0.20025300  16.000000   ; qtot -0.000098
; residue  100 bbb rtp bbb q -0.0
 2871         n3    100    bbb     N1   2871 -0.59685800  14.010000   ; qtot -0.596956
 2872         c3    100    bbb     C1   2872 0.10137000  12.010000   ; qtot -0.495586
 2873         h1    100    bbb     H1   2873 0.04411300   1.008000   ; qtot -0.451473
 2874         h1    100    bbb     H2   2874 0.04411300   1.008000   ; qtot -0.407360
 2875         c3    100    bbb     C2   2875 0.10137000  12.010000   ; qtot -0.305990
 2876         h1    100    bbb     H3   2876 0.04411300   1.008000   ; qtot -0.261877
 2877         h1    100    bbb     H4   2877 0.04411300   1.008000   ; qtot -0.217764
 2878         c3    100    bbb     C3   2878 -0.00195300  12.010000   ; qtot -0.219717
 2879         h1    100    bbb     H5   2879 0.05064400   1.008000   ; qtot -0.169073
 2880         h1    100    bbb     H6   2880 0.05064400   1.008000   ; qtot -0.118429
 2881         c3    100    bbb     C4   2881 -0.01612100  12.010000   ; qtot -0.134550
 2882         hc    100    bbb     H7   2882 0.04936100   1.008000   ; qtot -0.085189
 2883         hc    100    bbb     H8   2883 0.04936100   1.008000   ; qtot -0.035828
 2884         c3    100    bbb     C5   2884 0.11363000  12.010000   ; qtot 0.077802
 2885         hc    100    bbb     H9   2885 0.06265900   1.008000   ; qtot 0.140461
 2886         hc    100    bbb    H10   2886 0.06265900   1.008000   ; qtot 0.203120
 2887         c3    100    bbb     C6   2887 0.11363000  12.010000   ; qtot 0.316750
 2888         hc    100    bbb    H11   2888 0.06265900   1.008000   ; qtot 0.379409
 2889         hc    100    bbb    H12   2889 0.06265900   1.008000   ; qtot 0.442068
 2890         c3    100    bbb     C7   2890 0.05858200  12.010000   ; qtot 0.500650
 2891         h1    100    bbb    H13   2891 0.06123400   1.008000   ; qtot 0.561884
 2892         h1    100    bbb    H14   2892 0.06123400   1.008000   ; qtot 0.623118
 2893         c3    100    bbb     C8   2893 -0.72423400  12.010000   ; qtot -0.101116
 2894         h1    100    bbb    H15   2894 0.25637600   1.008000   ; qtot 0.155260
 2895         h1    100    bbb    H16   2895 0.25637600   1.008000   ; qtot 0.411636
 2896         c3    100    bbb     C9   2896 -0.72423400  12.010000   ; qtot -0.312598
 2897         h1    100    bbb    H17   2897 0.25637600   1.008000   ; qtot -0.056222
 2898         h1    100    bbb    H18   2898 0.25637600   1.008000   ; qtot 0.200154
 2899         os    100    bbb     O1   2899 -0.20025300  16.000000   ; qtot -0.000099
; residue  101 bbb rtp bbb q -0.0
 2900         n3    101    bbb     N1   2900 -0.59685800  14.010000   ; qtot -0.596957
 2901         c3    101    bbb     C1   2901 0.10137000  12.010000   ; qtot -0.495587
 2902         h1    101    bbb     H1   2902 0.04411300   1.008000   ; qtot -0.451474
 2903         h1    101    bbb     H2   2903 0.04411300   1.008000   ; qtot -0.407361
 2904         c3    101    bbb     C2   2904 0.10137000  12.010000   ; qtot -0.305991
 2905         h1    101    bbb     H3   2905 0.04411300   1.008000   ; qtot -0.261878
 2906         h1    101    bbb     H4   2906 0.04411300   1.008000   ; qtot -0.217765
 2907         c3    101    bbb     C3   2907 -0.00195300  12.010000   ; qtot -0.219718
 2908         h1    101    bbb     H5   2908 0.05064400   1.008000   ; qtot -0.169074
 2909         h1    101    bbb     H6   2909 0.05064400   1.008000   ; qtot -0.118430
 2910         c3    101    bbb     C4   2910 -0.01612100  12.010000   ; qtot -0.134551
 2911         hc    101    bbb     H7   2911 0.04936100   1.008000   ; qtot -0.085190
 2912         hc    101    bbb     H8   2912 0.04936100   1.008000   ; qtot -0.035829
 2913         c3    101    bbb     C5   2913 0.11363000  12.010000   ; qtot 0.077801
 2914         hc    101    bbb     H9   2914 0.06265900   1.008000   ; qtot 0.140460
 2915         hc    101    bbb    H10   2915 0.06265900   1.008000   ; qtot 0.203119
 2916         c3    101    bbb     C6   2916 0.11363000  12.010000   ; qtot 0.316749
 2917         hc    101    bbb    H11   2917 0.06265900   1.008000   ; qtot 0.379408
 2918         hc    101    bbb    H12   2918 0.06265900   1.008000   ; qtot 0.442067
 2919         c3    101    bbb     C7   2919 0.05858200  12.010000   ; qtot 0.500649
 2920         h1    101    bbb    H13   2920 0.06123400   1.008000   ; qtot 0.561883
 2921         h1    101    bbb    H14   2921 0.06123400   1.008000   ; qtot 0.623117
 2922         c3    101    bbb     C8   2922 -0.72423400  12.010000   ; qtot -0.101117
 2923         h1    101    bbb    H15   2923 0.25637600   1.008000   ; qtot 0.155259
 2924         h1    101    bbb    H16   2924 0.25637600   1.008000   ; qtot 0.411635
 2925         c3    101    bbb     C9   2925 -0.72423400  12.010000   ; qtot -0.312599
 2926         h1    101    bbb    H17   2926 0.25637600   1.008000   ; qtot -0.056223
 2927         h1    101    bbb    H18   2927 0.25637600   1.008000   ; qtot 0.200153
 2928         os    101    bbb     O1   2928 -0.20025300  16.000000   ; qtot -0.000100
; residue  102 bbb rtp bbb q -0.0
 2929         n3    102    bbb     N1   2929 -0.59685800  14.010000   ; qtot -0.596958
 2930         c3    102    bbb     C1   2930 0.10137000  12.010000   ; qtot -0.495588
 2931         h1    102    bbb     H1   2931 0.04411300   1.008000   ; qtot -0.451475
 2932         h1    102    bbb     H2   2932 0.04411300   1.008000   ; qtot -0.407362
 2933         c3    102    bbb     C2   2933 0.10137000  12.010000   ; qtot -0.305992
 2934         h1    102    bbb     H3   2934 0.04411300   1.008000   ; qtot -0.261879
 2935         h1    102    bbb     H4   2935 0.04411300   1.008000   ; qtot -0.217766
 2936         c3    102    bbb     C3   2936 -0.00195300  12.010000   ; qtot -0.219719
 2937         h1    102    bbb     H5   2937 0.05064400   1.008000   ; qtot -0.169075
 2938         h1    102    bbb     H6   2938 0.05064400   1.008000   ; qtot -0.118431
 2939         c3    102    bbb     C4   2939 -0.01612100  12.010000   ; qtot -0.134552
 2940         hc    102    bbb     H7   2940 0.04936100   1.008000   ; qtot -0.085191
 2941         hc    102    bbb     H8   2941 0.04936100   1.008000   ; qtot -0.035830
 2942         c3    102    bbb     C5   2942 0.11363000  12.010000   ; qtot 0.077800
 2943         hc    102    bbb     H9   2943 0.06265900   1.008000   ; qtot 0.140459
 2944         hc    102    bbb    H10   2944 0.06265900   1.008000   ; qtot 0.203118
 2945         c3    102    bbb     C6   2945 0.11363000  12.010000   ; qtot 0.316748
 2946         hc    102    bbb    H11   2946 0.06265900   1.008000   ; qtot 0.379407
 2947         hc    102    bbb    H12   2947 0.06265900   1.008000   ; qtot 0.442066
 2948         c3    102    bbb     C7   2948 0.05858200  12.010000   ; qtot 0.500648
 2949         h1    102    bbb    H13   2949 0.06123400   1.008000   ; qtot 0.561882
 2950         h1    102    bbb    H14   2950 0.06123400   1.008000   ; qtot 0.623116
 2951         c3    102    bbb     C8   2951 -0.72423400  12.010000   ; qtot -0.101118
 2952         h1    102    bbb    H15   2952 0.25637600   1.008000   ; qtot 0.155258
 2953         h1    102    bbb    H16   2953 0.25637600   1.008000   ; qtot 0.411634
 2954         c3    102    bbb     C9   2954 -0.72423400  12.010000   ; qtot -0.312600
 2955         h1    102    bbb    H17   2955 0.25637600   1.008000   ; qtot -0.056224
 2956         h1    102    bbb    H18   2956 0.25637600   1.008000   ; qtot 0.200152
 2957         os    102    bbb     O1   2957 -0.20025300  16.000000   ; qtot -0.000101
; residue  103 bbb rtp bbb q -0.0
 2958         n3    103    bbb     N1   2958 -0.59685800  14.010000   ; qtot -0.596959
 2959         c3    103    bbb     C1   2959 0.10137000  12.010000   ; qtot -0.495589
 2960         h1    103    bbb     H1   2960 0.04411300   1.008000   ; qtot -0.451476
 2961         h1    103    bbb     H2   2961 0.04411300   1.008000   ; qtot -0.407363
 2962         c3    103    bbb     C2   2962 0.10137000  12.010000   ; qtot -0.305993
 2963         h1    103    bbb     H3   2963 0.04411300   1.008000   ; qtot -0.261880
 2964         h1    103    bbb     H4   2964 0.04411300   1.008000   ; qtot -0.217767
 2965         c3    103    bbb     C3   2965 -0.00195300  12.010000   ; qtot -0.219720
 2966         h1    103    bbb     H5   2966 0.05064400   1.008000   ; qtot -0.169076
 2967         h1    103    bbb     H6   2967 0.05064400   1.008000   ; qtot -0.118432
 2968         c3    103    bbb     C4   2968 -0.01612100  12.010000   ; qtot -0.134553
 2969         hc    103    bbb     H7   2969 0.04936100   1.008000   ; qtot -0.085192
 2970         hc    103    bbb     H8   2970 0.04936100   1.008000   ; qtot -0.035831
 2971         c3    103    bbb     C5   2971 0.11363000  12.010000   ; qtot 0.077799
 2972         hc    103    bbb     H9   2972 0.06265900   1.008000   ; qtot 0.140458
 2973         hc    103    bbb    H10   2973 0.06265900   1.008000   ; qtot 0.203117
 2974         c3    103    bbb     C6   2974 0.11363000  12.010000   ; qtot 0.316747
 2975         hc    103    bbb    H11   2975 0.06265900   1.008000   ; qtot 0.379406
 2976         hc    103    bbb    H12   2976 0.06265900   1.008000   ; qtot 0.442065
 2977         c3    103    bbb     C7   2977 0.05858200  12.010000   ; qtot 0.500647
 2978         h1    103    bbb    H13   2978 0.06123400   1.008000   ; qtot 0.561881
 2979         h1    103    bbb    H14   2979 0.06123400   1.008000   ; qtot 0.623115
 2980         c3    103    bbb     C8   2980 -0.72423400  12.010000   ; qtot -0.101119
 2981         h1    103    bbb    H15   2981 0.25637600   1.008000   ; qtot 0.155257
 2982         h1    103    bbb    H16   2982 0.25637600   1.008000   ; qtot 0.411633
 2983         c3    103    bbb     C9   2983 -0.72423400  12.010000   ; qtot -0.312601
 2984         h1    103    bbb    H17   2984 0.25637600   1.008000   ; qtot -0.056225
 2985         h1    103    bbb    H18   2985 0.25637600   1.008000   ; qtot 0.200151
 2986         os    103    bbb     O1   2986 -0.20025300  16.000000   ; qtot -0.000102
; residue  104 bbb rtp bbb q -0.0
 2987         n3    104    bbb     N1   2987 -0.59685800  14.010000   ; qtot -0.596960
 2988         c3    104    bbb     C1   2988 0.10137000  12.010000   ; qtot -0.495590
 2989         h1    104    bbb     H1   2989 0.04411300   1.008000   ; qtot -0.451477
 2990         h1    104    bbb     H2   2990 0.04411300   1.008000   ; qtot -0.407364
 2991         c3    104    bbb     C2   2991 0.10137000  12.010000   ; qtot -0.305994
 2992         h1    104    bbb     H3   2992 0.04411300   1.008000   ; qtot -0.261881
 2993         h1    104    bbb     H4   2993 0.04411300   1.008000   ; qtot -0.217768
 2994         c3    104    bbb     C3   2994 -0.00195300  12.010000   ; qtot -0.219721
 2995         h1    104    bbb     H5   2995 0.05064400   1.008000   ; qtot -0.169077
 2996         h1    104    bbb     H6   2996 0.05064400   1.008000   ; qtot -0.118433
 2997         c3    104    bbb     C4   2997 -0.01612100  12.010000   ; qtot -0.134554
 2998         hc    104    bbb     H7   2998 0.04936100   1.008000   ; qtot -0.085193
 2999         hc    104    bbb     H8   2999 0.04936100   1.008000   ; qtot -0.035832
 3000         c3    104    bbb     C5   3000 0.11363000  12.010000   ; qtot 0.077798
 3001         hc    104    bbb     H9   3001 0.06265900   1.008000   ; qtot 0.140457
 3002         hc    104    bbb    H10   3002 0.06265900   1.008000   ; qtot 0.203116
 3003         c3    104    bbb     C6   3003 0.11363000  12.010000   ; qtot 0.316746
 3004         hc    104    bbb    H11   3004 0.06265900   1.008000   ; qtot 0.379405
 3005         hc    104    bbb    H12   3005 0.06265900   1.008000   ; qtot 0.442064
 3006         c3    104    bbb     C7   3006 0.05858200  12.010000   ; qtot 0.500646
 3007         h1    104    bbb    H13   3007 0.06123400   1.008000   ; qtot 0.561880
 3008         h1    104    bbb    H14   3008 0.06123400   1.008000   ; qtot 0.623114
 3009         c3    104    bbb     C8   3009 -0.72423400  12.010000   ; qtot -0.101120
 3010         h1    104    bbb    H15   3010 0.25637600   1.008000   ; qtot 0.155256
 3011         h1    104    bbb    H16   3011 0.25637600   1.008000   ; qtot 0.411632
 3012         c3    104    bbb     C9   3012 -0.72423400  12.010000   ; qtot -0.312602
 3013         h1    104    bbb    H17   3013 0.25637600   1.008000   ; qtot -0.056226
 3014         h1    104    bbb    H18   3014 0.25637600   1.008000   ; qtot 0.200150
 3015         os    104    bbb     O1   3015 -0.20025300  16.000000   ; qtot -0.000103
; residue  105 bbb rtp bbb q -0.0
 3016         n3    105    bbb     N1   3016 -0.59685800  14.010000   ; qtot -0.596961
 3017         c3    105    bbb     C1   3017 0.10137000  12.010000   ; qtot -0.495591
 3018         h1    105    bbb     H1   3018 0.04411300   1.008000   ; qtot -0.451478
 3019         h1    105    bbb     H2   3019 0.04411300   1.008000   ; qtot -0.407365
 3020         c3    105    bbb     C2   3020 0.10137000  12.010000   ; qtot -0.305995
 3021         h1    105    bbb     H3   3021 0.04411300   1.008000   ; qtot -0.261882
 3022         h1    105    bbb     H4   3022 0.04411300   1.008000   ; qtot -0.217769
 3023         c3    105    bbb     C3   3023 -0.00195300  12.010000   ; qtot -0.219722
 3024         h1    105    bbb     H5   3024 0.05064400   1.008000   ; qtot -0.169078
 3025         h1    105    bbb     H6   3025 0.05064400   1.008000   ; qtot -0.118434
 3026         c3    105    bbb     C4   3026 -0.01612100  12.010000   ; qtot -0.134555
 3027         hc    105    bbb     H7   3027 0.04936100   1.008000   ; qtot -0.085194
 3028         hc    105    bbb     H8   3028 0.04936100   1.008000   ; qtot -0.035833
 3029         c3    105    bbb     C5   3029 0.11363000  12.010000   ; qtot 0.077797
 3030         hc    105    bbb     H9   3030 0.06265900   1.008000   ; qtot 0.140456
 3031         hc    105    bbb    H10   3031 0.06265900   1.008000   ; qtot 0.203115
 3032         c3    105    bbb     C6   3032 0.11363000  12.010000   ; qtot 0.316745
 3033         hc    105    bbb    H11   3033 0.06265900   1.008000   ; qtot 0.379404
 3034         hc    105    bbb    H12   3034 0.06265900   1.008000   ; qtot 0.442063
 3035         c3    105    bbb     C7   3035 0.05858200  12.010000   ; qtot 0.500645
 3036         h1    105    bbb    H13   3036 0.06123400   1.008000   ; qtot 0.561879
 3037         h1    105    bbb    H14   3037 0.06123400   1.008000   ; qtot 0.623113
 3038         c3    105    bbb     C8   3038 -0.72423400  12.010000   ; qtot -0.101121
 3039         h1    105    bbb    H15   3039 0.25637600   1.008000   ; qtot 0.155255
 3040         h1    105    bbb    H16   3040 0.25637600   1.008000   ; qtot 0.411631
 3041         c3    105    bbb     C9   3041 -0.72423400  12.010000   ; qtot -0.312603
 3042         h1    105    bbb    H17   3042 0.25637600   1.008000   ; qtot -0.056227
 3043         h1    105    bbb    H18   3043 0.25637600   1.008000   ; qtot 0.200149
 3044         os    105    bbb     O1   3044 -0.20025300  16.000000   ; qtot -0.000104
; residue  106 bbb rtp bbb q -0.0
 3045         n3    106    bbb     N1   3045 -0.59685800  14.010000   ; qtot -0.596962
 3046         c3    106    bbb     C1   3046 0.10137000  12.010000   ; qtot -0.495592
 3047         h1    106    bbb     H1   3047 0.04411300   1.008000   ; qtot -0.451479
 3048         h1    106    bbb     H2   3048 0.04411300   1.008000   ; qtot -0.407366
 3049         c3    106    bbb     C2   3049 0.10137000  12.010000   ; qtot -0.305996
 3050         h1    106    bbb     H3   3050 0.04411300   1.008000   ; qtot -0.261883
 3051         h1    106    bbb     H4   3051 0.04411300   1.008000   ; qtot -0.217770
 3052         c3    106    bbb     C3   3052 -0.00195300  12.010000   ; qtot -0.219723
 3053         h1    106    bbb     H5   3053 0.05064400   1.008000   ; qtot -0.169079
 3054         h1    106    bbb     H6   3054 0.05064400   1.008000   ; qtot -0.118435
 3055         c3    106    bbb     C4   3055 -0.01612100  12.010000   ; qtot -0.134556
 3056         hc    106    bbb     H7   3056 0.04936100   1.008000   ; qtot -0.085195
 3057         hc    106    bbb     H8   3057 0.04936100   1.008000   ; qtot -0.035834
 3058         c3    106    bbb     C5   3058 0.11363000  12.010000   ; qtot 0.077796
 3059         hc    106    bbb     H9   3059 0.06265900   1.008000   ; qtot 0.140455
 3060         hc    106    bbb    H10   3060 0.06265900   1.008000   ; qtot 0.203114
 3061         c3    106    bbb     C6   3061 0.11363000  12.010000   ; qtot 0.316744
 3062         hc    106    bbb    H11   3062 0.06265900   1.008000   ; qtot 0.379403
 3063         hc    106    bbb    H12   3063 0.06265900   1.008000   ; qtot 0.442062
 3064         c3    106    bbb     C7   3064 0.05858200  12.010000   ; qtot 0.500644
 3065         h1    106    bbb    H13   3065 0.06123400   1.008000   ; qtot 0.561878
 3066         h1    106    bbb    H14   3066 0.06123400   1.008000   ; qtot 0.623112
 3067         c3    106    bbb     C8   3067 -0.72423400  12.010000   ; qtot -0.101122
 3068         h1    106    bbb    H15   3068 0.25637600   1.008000   ; qtot 0.155254
 3069         h1    106    bbb    H16   3069 0.25637600   1.008000   ; qtot 0.411630
 3070         c3    106    bbb     C9   3070 -0.72423400  12.010000   ; qtot -0.312604
 3071         h1    106    bbb    H17   3071 0.25637600   1.008000   ; qtot -0.056228
 3072         h1    106    bbb    H18   3072 0.25637600   1.008000   ; qtot 0.200148
 3073         os    106    bbb     O1   3073 -0.20025300  16.000000   ; qtot -0.000105
; residue  107 bbb rtp bbb q -0.0
 3074         n3    107    bbb     N1   3074 -0.59685800  14.010000   ; qtot -0.596963
 3075         c3    107    bbb     C1   3075 0.10137000  12.010000   ; qtot -0.495593
 3076         h1    107    bbb     H1   3076 0.04411300   1.008000   ; qtot -0.451480
 3077         h1    107    bbb     H2   3077 0.04411300   1.008000   ; qtot -0.407367
 3078         c3    107    bbb     C2   3078 0.10137000  12.010000   ; qtot -0.305997
 3079         h1    107    bbb     H3   3079 0.04411300   1.008000   ; qtot -0.261884
 3080         h1    107    bbb     H4   3080 0.04411300   1.008000   ; qtot -0.217771
 3081         c3    107    bbb     C3   3081 -0.00195300  12.010000   ; qtot -0.219724
 3082         h1    107    bbb     H5   3082 0.05064400   1.008000   ; qtot -0.169080
 3083         h1    107    bbb     H6   3083 0.05064400   1.008000   ; qtot -0.118436
 3084         c3    107    bbb     C4   3084 -0.01612100  12.010000   ; qtot -0.134557
 3085         hc    107    bbb     H7   3085 0.04936100   1.008000   ; qtot -0.085196
 3086         hc    107    bbb     H8   3086 0.04936100   1.008000   ; qtot -0.035835
 3087         c3    107    bbb     C5   3087 0.11363000  12.010000   ; qtot 0.077795
 3088         hc    107    bbb     H9   3088 0.06265900   1.008000   ; qtot 0.140454
 3089         hc    107    bbb    H10   3089 0.06265900   1.008000   ; qtot 0.203113
 3090         c3    107    bbb     C6   3090 0.11363000  12.010000   ; qtot 0.316743
 3091         hc    107    bbb    H11   3091 0.06265900   1.008000   ; qtot 0.379402
 3092         hc    107    bbb    H12   3092 0.06265900   1.008000   ; qtot 0.442061
 3093         c3    107    bbb     C7   3093 0.05858200  12.010000   ; qtot 0.500643
 3094         h1    107    bbb    H13   3094 0.06123400   1.008000   ; qtot 0.561877
 3095         h1    107    bbb    H14   3095 0.06123400   1.008000   ; qtot 0.623111
 3096         c3    107    bbb     C8   3096 -0.72423400  12.010000   ; qtot -0.101123
 3097         h1    107    bbb    H15   3097 0.25637600   1.008000   ; qtot 0.155253
 3098         h1    107    bbb    H16   3098 0.25637600   1.008000   ; qtot 0.411629
 3099         c3    107    bbb     C9   3099 -0.72423400  12.010000   ; qtot -0.312605
 3100         h1    107    bbb    H17   3100 0.25637600   1.008000   ; qtot -0.056229
 3101         h1    107    bbb    H18   3101 0.25637600   1.008000   ; qtot 0.200147
 3102         os    107    bbb     O1   3102 -0.20025300  16.000000   ; qtot -0.000106
; residue  108 bbb rtp bbb q -0.0
 3103         n3    108    bbb     N1   3103 -0.59685800  14.010000   ; qtot -0.596964
 3104         c3    108    bbb     C1   3104 0.10137000  12.010000   ; qtot -0.495594
 3105         h1    108    bbb     H1   3105 0.04411300   1.008000   ; qtot -0.451481
 3106         h1    108    bbb     H2   3106 0.04411300   1.008000   ; qtot -0.407368
 3107         c3    108    bbb     C2   3107 0.10137000  12.010000   ; qtot -0.305998
 3108         h1    108    bbb     H3   3108 0.04411300   1.008000   ; qtot -0.261885
 3109         h1    108    bbb     H4   3109 0.04411300   1.008000   ; qtot -0.217772
 3110         c3    108    bbb     C3   3110 -0.00195300  12.010000   ; qtot -0.219725
 3111         h1    108    bbb     H5   3111 0.05064400   1.008000   ; qtot -0.169081
 3112         h1    108    bbb     H6   3112 0.05064400   1.008000   ; qtot -0.118437
 3113         c3    108    bbb     C4   3113 -0.01612100  12.010000   ; qtot -0.134558
 3114         hc    108    bbb     H7   3114 0.04936100   1.008000   ; qtot -0.085197
 3115         hc    108    bbb     H8   3115 0.04936100   1.008000   ; qtot -0.035836
 3116         c3    108    bbb     C5   3116 0.11363000  12.010000   ; qtot 0.077794
 3117         hc    108    bbb     H9   3117 0.06265900   1.008000   ; qtot 0.140453
 3118         hc    108    bbb    H10   3118 0.06265900   1.008000   ; qtot 0.203112
 3119         c3    108    bbb     C6   3119 0.11363000  12.010000   ; qtot 0.316742
 3120         hc    108    bbb    H11   3120 0.06265900   1.008000   ; qtot 0.379401
 3121         hc    108    bbb    H12   3121 0.06265900   1.008000   ; qtot 0.442060
 3122         c3    108    bbb     C7   3122 0.05858200  12.010000   ; qtot 0.500642
 3123         h1    108    bbb    H13   3123 0.06123400   1.008000   ; qtot 0.561876
 3124         h1    108    bbb    H14   3124 0.06123400   1.008000   ; qtot 0.623110
 3125         c3    108    bbb     C8   3125 -0.72423400  12.010000   ; qtot -0.101124
 3126         h1    108    bbb    H15   3126 0.25637600   1.008000   ; qtot 0.155252
 3127         h1    108    bbb    H16   3127 0.25637600   1.008000   ; qtot 0.411628
 3128         c3    108    bbb     C9   3128 -0.72423400  12.010000   ; qtot -0.312606
 3129         h1    108    bbb    H17   3129 0.25637600   1.008000   ; qtot -0.056230
 3130         h1    108    bbb    H18   3130 0.25637600   1.008000   ; qtot 0.200146
 3131         os    108    bbb     O1   3131 -0.20025300  16.000000   ; qtot -0.000107
; residue  109 bbb rtp bbb q -0.0
 3132         n3    109    bbb     N1   3132 -0.59685800  14.010000   ; qtot -0.596965
 3133         c3    109    bbb     C1   3133 0.10137000  12.010000   ; qtot -0.495595
 3134         h1    109    bbb     H1   3134 0.04411300   1.008000   ; qtot -0.451482
 3135         h1    109    bbb     H2   3135 0.04411300   1.008000   ; qtot -0.407369
 3136         c3    109    bbb     C2   3136 0.10137000  12.010000   ; qtot -0.305999
 3137         h1    109    bbb     H3   3137 0.04411300   1.008000   ; qtot -0.261886
 3138         h1    109    bbb     H4   3138 0.04411300   1.008000   ; qtot -0.217773
 3139         c3    109    bbb     C3   3139 -0.00195300  12.010000   ; qtot -0.219726
 3140         h1    109    bbb     H5   3140 0.05064400   1.008000   ; qtot -0.169082
 3141         h1    109    bbb     H6   3141 0.05064400   1.008000   ; qtot -0.118438
 3142         c3    109    bbb     C4   3142 -0.01612100  12.010000   ; qtot -0.134559
 3143         hc    109    bbb     H7   3143 0.04936100   1.008000   ; qtot -0.085198
 3144         hc    109    bbb     H8   3144 0.04936100   1.008000   ; qtot -0.035837
 3145         c3    109    bbb     C5   3145 0.11363000  12.010000   ; qtot 0.077793
 3146         hc    109    bbb     H9   3146 0.06265900   1.008000   ; qtot 0.140452
 3147         hc    109    bbb    H10   3147 0.06265900   1.008000   ; qtot 0.203111
 3148         c3    109    bbb     C6   3148 0.11363000  12.010000   ; qtot 0.316741
 3149         hc    109    bbb    H11   3149 0.06265900   1.008000   ; qtot 0.379400
 3150         hc    109    bbb    H12   3150 0.06265900   1.008000   ; qtot 0.442059
 3151         c3    109    bbb     C7   3151 0.05858200  12.010000   ; qtot 0.500641
 3152         h1    109    bbb    H13   3152 0.06123400   1.008000   ; qtot 0.561875
 3153         h1    109    bbb    H14   3153 0.06123400   1.008000   ; qtot 0.623109
 3154         c3    109    bbb     C8   3154 -0.72423400  12.010000   ; qtot -0.101125
 3155         h1    109    bbb    H15   3155 0.25637600   1.008000   ; qtot 0.155251
 3156         h1    109    bbb    H16   3156 0.25637600   1.008000   ; qtot 0.411627
 3157         c3    109    bbb     C9   3157 -0.72423400  12.010000   ; qtot -0.312607
 3158         h1    109    bbb    H17   3158 0.25637600   1.008000   ; qtot -0.056231
 3159         h1    109    bbb    H18   3159 0.25637600   1.008000   ; qtot 0.200145
 3160         os    109    bbb     O1   3160 -0.20025300  16.000000   ; qtot -0.000108
; residue  110 bbb rtp bbb q -0.0
 3161         n3    110    bbb     N1   3161 -0.59685800  14.010000   ; qtot -0.596966
 3162         c3    110    bbb     C1   3162 0.10137000  12.010000   ; qtot -0.495596
 3163         h1    110    bbb     H1   3163 0.04411300   1.008000   ; qtot -0.451483
 3164         h1    110    bbb     H2   3164 0.04411300   1.008000   ; qtot -0.407370
 3165         c3    110    bbb     C2   3165 0.10137000  12.010000   ; qtot -0.306000
 3166         h1    110    bbb     H3   3166 0.04411300   1.008000   ; qtot -0.261887
 3167         h1    110    bbb     H4   3167 0.04411300   1.008000   ; qtot -0.217774
 3168         c3    110    bbb     C3   3168 -0.00195300  12.010000   ; qtot -0.219727
 3169         h1    110    bbb     H5   3169 0.05064400   1.008000   ; qtot -0.169083
 3170         h1    110    bbb     H6   3170 0.05064400   1.008000   ; qtot -0.118439
 3171         c3    110    bbb     C4   3171 -0.01612100  12.010000   ; qtot -0.134560
 3172         hc    110    bbb     H7   3172 0.04936100   1.008000   ; qtot -0.085199
 3173         hc    110    bbb     H8   3173 0.04936100   1.008000   ; qtot -0.035838
 3174         c3    110    bbb     C5   3174 0.11363000  12.010000   ; qtot 0.077792
 3175         hc    110    bbb     H9   3175 0.06265900   1.008000   ; qtot 0.140451
 3176         hc    110    bbb    H10   3176 0.06265900   1.008000   ; qtot 0.203110
 3177         c3    110    bbb     C6   3177 0.11363000  12.010000   ; qtot 0.316740
 3178         hc    110    bbb    H11   3178 0.06265900   1.008000   ; qtot 0.379399
 3179         hc    110    bbb    H12   3179 0.06265900   1.008000   ; qtot 0.442058
 3180         c3    110    bbb     C7   3180 0.05858200  12.010000   ; qtot 0.500640
 3181         h1    110    bbb    H13   3181 0.06123400   1.008000   ; qtot 0.561874
 3182         h1    110    bbb    H14   3182 0.06123400   1.008000   ; qtot 0.623108
 3183         c3    110    bbb     C8   3183 -0.72423400  12.010000   ; qtot -0.101126
 3184         h1    110    bbb    H15   3184 0.25637600   1.008000   ; qtot 0.155250
 3185         h1    110    bbb    H16   3185 0.25637600   1.008000   ; qtot 0.411626
 3186         c3    110    bbb     C9   3186 -0.72423400  12.010000   ; qtot -0.312608
 3187         h1    110    bbb    H17   3187 0.25637600   1.008000   ; qtot -0.056232
 3188         h1    110    bbb    H18   3188 0.25637600   1.008000   ; qtot 0.200144
 3189         os    110    bbb     O1   3189 -0.20025300  16.000000   ; qtot -0.000109
; residue  111 bbb rtp bbb q -0.0
 3190         n3    111    bbb     N1   3190 -0.59685800  14.010000   ; qtot -0.596967
 3191         c3    111    bbb     C1   3191 0.10137000  12.010000   ; qtot -0.495597
 3192         h1    111    bbb     H1   3192 0.04411300   1.008000   ; qtot -0.451484
 3193         h1    111    bbb     H2   3193 0.04411300   1.008000   ; qtot -0.407371
 3194         c3    111    bbb     C2   3194 0.10137000  12.010000   ; qtot -0.306001
 3195         h1    111    bbb     H3   3195 0.04411300   1.008000   ; qtot -0.261888
 3196         h1    111    bbb     H4   3196 0.04411300   1.008000   ; qtot -0.217775
 3197         c3    111    bbb     C3   3197 -0.00195300  12.010000   ; qtot -0.219728
 3198         h1    111    bbb     H5   3198 0.05064400   1.008000   ; qtot -0.169084
 3199         h1    111    bbb     H6   3199 0.05064400   1.008000   ; qtot -0.118440
 3200         c3    111    bbb     C4   3200 -0.01612100  12.010000   ; qtot -0.134561
 3201         hc    111    bbb     H7   3201 0.04936100   1.008000   ; qtot -0.085200
 3202         hc    111    bbb     H8   3202 0.04936100   1.008000   ; qtot -0.035839
 3203         c3    111    bbb     C5   3203 0.11363000  12.010000   ; qtot 0.077791
 3204         hc    111    bbb     H9   3204 0.06265900   1.008000   ; qtot 0.140450
 3205         hc    111    bbb    H10   3205 0.06265900   1.008000   ; qtot 0.203109
 3206         c3    111    bbb     C6   3206 0.11363000  12.010000   ; qtot 0.316739
 3207         hc    111    bbb    H11   3207 0.06265900   1.008000   ; qtot 0.379398
 3208         hc    111    bbb    H12   3208 0.06265900   1.008000   ; qtot 0.442057
 3209         c3    111    bbb     C7   3209 0.05858200  12.010000   ; qtot 0.500639
 3210         h1    111    bbb    H13   3210 0.06123400   1.008000   ; qtot 0.561873
 3211         h1    111    bbb    H14   3211 0.06123400   1.008000   ; qtot 0.623107
 3212         c3    111    bbb     C8   3212 -0.72423400  12.010000   ; qtot -0.101127
 3213         h1    111    bbb    H15   3213 0.25637600   1.008000   ; qtot 0.155249
 3214         h1    111    bbb    H16   3214 0.25637600   1.008000   ; qtot 0.411625
 3215         c3    111    bbb     C9   3215 -0.72423400  12.010000   ; qtot -0.312609
 3216         h1    111    bbb    H17   3216 0.25637600   1.008000   ; qtot -0.056233
 3217         h1    111    bbb    H18   3217 0.25637600   1.008000   ; qtot 0.200143
 3218         os    111    bbb     O1   3218 -0.20025300  16.000000   ; qtot -0.000110
; residue  112 bbb rtp bbb q -0.0
 3219         n3    112    bbb     N1   3219 -0.59685800  14.010000   ; qtot -0.596968
 3220         c3    112    bbb     C1   3220 0.10137000  12.010000   ; qtot -0.495598
 3221         h1    112    bbb     H1   3221 0.04411300   1.008000   ; qtot -0.451485
 3222         h1    112    bbb     H2   3222 0.04411300   1.008000   ; qtot -0.407372
 3223         c3    112    bbb     C2   3223 0.10137000  12.010000   ; qtot -0.306002
 3224         h1    112    bbb     H3   3224 0.04411300   1.008000   ; qtot -0.261889
 3225         h1    112    bbb     H4   3225 0.04411300   1.008000   ; qtot -0.217776
 3226         c3    112    bbb     C3   3226 -0.00195300  12.010000   ; qtot -0.219729
 3227         h1    112    bbb     H5   3227 0.05064400   1.008000   ; qtot -0.169085
 3228         h1    112    bbb     H6   3228 0.05064400   1.008000   ; qtot -0.118441
 3229         c3    112    bbb     C4   3229 -0.01612100  12.010000   ; qtot -0.134562
 3230         hc    112    bbb     H7   3230 0.04936100   1.008000   ; qtot -0.085201
 3231         hc    112    bbb     H8   3231 0.04936100   1.008000   ; qtot -0.035840
 3232         c3    112    bbb     C5   3232 0.11363000  12.010000   ; qtot 0.077790
 3233         hc    112    bbb     H9   3233 0.06265900   1.008000   ; qtot 0.140449
 3234         hc    112    bbb    H10   3234 0.06265900   1.008000   ; qtot 0.203108
 3235         c3    112    bbb     C6   3235 0.11363000  12.010000   ; qtot 0.316738
 3236         hc    112    bbb    H11   3236 0.06265900   1.008000   ; qtot 0.379397
 3237         hc    112    bbb    H12   3237 0.06265900   1.008000   ; qtot 0.442056
 3238         c3    112    bbb     C7   3238 0.05858200  12.010000   ; qtot 0.500638
 3239         h1    112    bbb    H13   3239 0.06123400   1.008000   ; qtot 0.561872
 3240         h1    112    bbb    H14   3240 0.06123400   1.008000   ; qtot 0.623106
 3241         c3    112    bbb     C8   3241 -0.72423400  12.010000   ; qtot -0.101128
 3242         h1    112    bbb    H15   3242 0.25637600   1.008000   ; qtot 0.155248
 3243         h1    112    bbb    H16   3243 0.25637600   1.008000   ; qtot 0.411624
 3244         c3    112    bbb     C9   3244 -0.72423400  12.010000   ; qtot -0.312610
 3245         h1    112    bbb    H17   3245 0.25637600   1.008000   ; qtot -0.056234
 3246         h1    112    bbb    H18   3246 0.25637600   1.008000   ; qtot 0.200142
 3247         os    112    bbb     O1   3247 -0.20025300  16.000000   ; qtot -0.000111
; residue  113 bbb rtp bbb q -0.0
 3248         n3    113    bbb     N1   3248 -0.59685800  14.010000   ; qtot -0.596969
 3249         c3    113    bbb     C1   3249 0.10137000  12.010000   ; qtot -0.495599
 3250         h1    113    bbb     H1   3250 0.04411300   1.008000   ; qtot -0.451486
 3251         h1    113    bbb     H2   3251 0.04411300   1.008000   ; qtot -0.407373
 3252         c3    113    bbb     C2   3252 0.10137000  12.010000   ; qtot -0.306003
 3253         h1    113    bbb     H3   3253 0.04411300   1.008000   ; qtot -0.261890
 3254         h1    113    bbb     H4   3254 0.04411300   1.008000   ; qtot -0.217777
 3255         c3    113    bbb     C3   3255 -0.00195300  12.010000   ; qtot -0.219730
 3256         h1    113    bbb     H5   3256 0.05064400   1.008000   ; qtot -0.169086
 3257         h1    113    bbb     H6   3257 0.05064400   1.008000   ; qtot -0.118442
 3258         c3    113    bbb     C4   3258 -0.01612100  12.010000   ; qtot -0.134563
 3259         hc    113    bbb     H7   3259 0.04936100   1.008000   ; qtot -0.085202
 3260         hc    113    bbb     H8   3260 0.04936100   1.008000   ; qtot -0.035841
 3261         c3    113    bbb     C5   3261 0.11363000  12.010000   ; qtot 0.077789
 3262         hc    113    bbb     H9   3262 0.06265900   1.008000   ; qtot 0.140448
 3263         hc    113    bbb    H10   3263 0.06265900   1.008000   ; qtot 0.203107
 3264         c3    113    bbb     C6   3264 0.11363000  12.010000   ; qtot 0.316737
 3265         hc    113    bbb    H11   3265 0.06265900   1.008000   ; qtot 0.379396
 3266         hc    113    bbb    H12   3266 0.06265900   1.008000   ; qtot 0.442055
 3267         c3    113    bbb     C7   3267 0.05858200  12.010000   ; qtot 0.500637
 3268         h1    113    bbb    H13   3268 0.06123400   1.008000   ; qtot 0.561871
 3269         h1    113    bbb    H14   3269 0.06123400   1.008000   ; qtot 0.623105
 3270         c3    113    bbb     C8   3270 -0.72423400  12.010000   ; qtot -0.101129
 3271         h1    113    bbb    H15   3271 0.25637600   1.008000   ; qtot 0.155247
 3272         h1    113    bbb    H16   3272 0.25637600   1.008000   ; qtot 0.411623
 3273         c3    113    bbb     C9   3273 -0.72423400  12.010000   ; qtot -0.312611
 3274         h1    113    bbb    H17   3274 0.25637600   1.008000   ; qtot -0.056235
 3275         h1    113    bbb    H18   3275 0.25637600   1.008000   ; qtot 0.200141
 3276         os    113    bbb     O1   3276 -0.20025300  16.000000   ; qtot -0.000112
; residue  114 bbb rtp bbb q -0.0
 3277         n3    114    bbb     N1   3277 -0.59685800  14.010000   ; qtot -0.596970
 3278         c3    114    bbb     C1   3278 0.10137000  12.010000   ; qtot -0.495600
 3279         h1    114    bbb     H1   3279 0.04411300   1.008000   ; qtot -0.451487
 3280         h1    114    bbb     H2   3280 0.04411300   1.008000   ; qtot -0.407374
 3281         c3    114    bbb     C2   3281 0.10137000  12.010000   ; qtot -0.306004
 3282         h1    114    bbb     H3   3282 0.04411300   1.008000   ; qtot -0.261891
 3283         h1    114    bbb     H4   3283 0.04411300   1.008000   ; qtot -0.217778
 3284         c3    114    bbb     C3   3284 -0.00195300  12.010000   ; qtot -0.219731
 3285         h1    114    bbb     H5   3285 0.05064400   1.008000   ; qtot -0.169087
 3286         h1    114    bbb     H6   3286 0.05064400   1.008000   ; qtot -0.118443
 3287         c3    114    bbb     C4   3287 -0.01612100  12.010000   ; qtot -0.134564
 3288         hc    114    bbb     H7   3288 0.04936100   1.008000   ; qtot -0.085203
 3289         hc    114    bbb     H8   3289 0.04936100   1.008000   ; qtot -0.035842
 3290         c3    114    bbb     C5   3290 0.11363000  12.010000   ; qtot 0.077788
 3291         hc    114    bbb     H9   3291 0.06265900   1.008000   ; qtot 0.140447
 3292         hc    114    bbb    H10   3292 0.06265900   1.008000   ; qtot 0.203106
 3293         c3    114    bbb     C6   3293 0.11363000  12.010000   ; qtot 0.316736
 3294         hc    114    bbb    H11   3294 0.06265900   1.008000   ; qtot 0.379395
 3295         hc    114    bbb    H12   3295 0.06265900   1.008000   ; qtot 0.442054
 3296         c3    114    bbb     C7   3296 0.05858200  12.010000   ; qtot 0.500636
 3297         h1    114    bbb    H13   3297 0.06123400   1.008000   ; qtot 0.561870
 3298         h1    114    bbb    H14   3298 0.06123400   1.008000   ; qtot 0.623104
 3299         c3    114    bbb     C8   3299 -0.72423400  12.010000   ; qtot -0.101130
 3300         h1    114    bbb    H15   3300 0.25637600   1.008000   ; qtot 0.155246
 3301         h1    114    bbb    H16   3301 0.25637600   1.008000   ; qtot 0.411622
 3302         c3    114    bbb     C9   3302 -0.72423400  12.010000   ; qtot -0.312612
 3303         h1    114    bbb    H17   3303 0.25637600   1.008000   ; qtot -0.056236
 3304         h1    114    bbb    H18   3304 0.25637600   1.008000   ; qtot 0.200140
 3305         os    114    bbb     O1   3305 -0.20025300  16.000000   ; qtot -0.000113
; residue  115 bbb rtp bbb q -0.0
 3306         n3    115    bbb     N1   3306 -0.59685800  14.010000   ; qtot -0.596971
 3307         c3    115    bbb     C1   3307 0.10137000  12.010000   ; qtot -0.495601
 3308         h1    115    bbb     H1   3308 0.04411300   1.008000   ; qtot -0.451488
 3309         h1    115    bbb     H2   3309 0.04411300   1.008000   ; qtot -0.407375
 3310         c3    115    bbb     C2   3310 0.10137000  12.010000   ; qtot -0.306005
 3311         h1    115    bbb     H3   3311 0.04411300   1.008000   ; qtot -0.261892
 3312         h1    115    bbb     H4   3312 0.04411300   1.008000   ; qtot -0.217779
 3313         c3    115    bbb     C3   3313 -0.00195300  12.010000   ; qtot -0.219732
 3314         h1    115    bbb     H5   3314 0.05064400   1.008000   ; qtot -0.169088
 3315         h1    115    bbb     H6   3315 0.05064400   1.008000   ; qtot -0.118444
 3316         c3    115    bbb     C4   3316 -0.01612100  12.010000   ; qtot -0.134565
 3317         hc    115    bbb     H7   3317 0.04936100   1.008000   ; qtot -0.085204
 3318         hc    115    bbb     H8   3318 0.04936100   1.008000   ; qtot -0.035843
 3319         c3    115    bbb     C5   3319 0.11363000  12.010000   ; qtot 0.077787
 3320         hc    115    bbb     H9   3320 0.06265900   1.008000   ; qtot 0.140446
 3321         hc    115    bbb    H10   3321 0.06265900   1.008000   ; qtot 0.203105
 3322         c3    115    bbb     C6   3322 0.11363000  12.010000   ; qtot 0.316735
 3323         hc    115    bbb    H11   3323 0.06265900   1.008000   ; qtot 0.379394
 3324         hc    115    bbb    H12   3324 0.06265900   1.008000   ; qtot 0.442053
 3325         c3    115    bbb     C7   3325 0.05858200  12.010000   ; qtot 0.500635
 3326         h1    115    bbb    H13   3326 0.06123400   1.008000   ; qtot 0.561869
 3327         h1    115    bbb    H14   3327 0.06123400   1.008000   ; qtot 0.623103
 3328         c3    115    bbb     C8   3328 -0.72423400  12.010000   ; qtot -0.101131
 3329         h1    115    bbb    H15   3329 0.25637600   1.008000   ; qtot 0.155245
 3330         h1    115    bbb    H16   3330 0.25637600   1.008000   ; qtot 0.411621
 3331         c3    115    bbb     C9   3331 -0.72423400  12.010000   ; qtot -0.312613
 3332         h1    115    bbb    H17   3332 0.25637600   1.008000   ; qtot -0.056237
 3333         h1    115    bbb    H18   3333 0.25637600   1.008000   ; qtot 0.200139
 3334         os    115    bbb     O1   3334 -0.20025300  16.000000   ; qtot -0.000114
; residue  116 bbb rtp bbb q -0.0
 3335         n3    116    bbb     N1   3335 -0.59685800  14.010000   ; qtot -0.596972
 3336         c3    116    bbb     C1   3336 0.10137000  12.010000   ; qtot -0.495602
 3337         h1    116    bbb     H1   3337 0.04411300   1.008000   ; qtot -0.451489
 3338         h1    116    bbb     H2   3338 0.04411300   1.008000   ; qtot -0.407376
 3339         c3    116    bbb     C2   3339 0.10137000  12.010000   ; qtot -0.306006
 3340         h1    116    bbb     H3   3340 0.04411300   1.008000   ; qtot -0.261893
 3341         h1    116    bbb     H4   3341 0.04411300   1.008000   ; qtot -0.217780
 3342         c3    116    bbb     C3   3342 -0.00195300  12.010000   ; qtot -0.219733
 3343         h1    116    bbb     H5   3343 0.05064400   1.008000   ; qtot -0.169089
 3344         h1    116    bbb     H6   3344 0.05064400   1.008000   ; qtot -0.118445
 3345         c3    116    bbb     C4   3345 -0.01612100  12.010000   ; qtot -0.134566
 3346         hc    116    bbb     H7   3346 0.04936100   1.008000   ; qtot -0.085205
 3347         hc    116    bbb     H8   3347 0.04936100   1.008000   ; qtot -0.035844
 3348         c3    116    bbb     C5   3348 0.11363000  12.010000   ; qtot 0.077786
 3349         hc    116    bbb     H9   3349 0.06265900   1.008000   ; qtot 0.140445
 3350         hc    116    bbb    H10   3350 0.06265900   1.008000   ; qtot 0.203104
 3351         c3    116    bbb     C6   3351 0.11363000  12.010000   ; qtot 0.316734
 3352         hc    116    bbb    H11   3352 0.06265900   1.008000   ; qtot 0.379393
 3353         hc    116    bbb    H12   3353 0.06265900   1.008000   ; qtot 0.442052
 3354         c3    116    bbb     C7   3354 0.05858200  12.010000   ; qtot 0.500634
 3355         h1    116    bbb    H13   3355 0.06123400   1.008000   ; qtot 0.561868
 3356         h1    116    bbb    H14   3356 0.06123400   1.008000   ; qtot 0.623102
 3357         c3    116    bbb     C8   3357 -0.72423400  12.010000   ; qtot -0.101132
 3358         h1    116    bbb    H15   3358 0.25637600   1.008000   ; qtot 0.155244
 3359         h1    116    bbb    H16   3359 0.25637600   1.008000   ; qtot 0.411620
 3360         c3    116    bbb     C9   3360 -0.72423400  12.010000   ; qtot -0.312614
 3361         h1    116    bbb    H17   3361 0.25637600   1.008000   ; qtot -0.056238
 3362         h1    116    bbb    H18   3362 0.25637600   1.008000   ; qtot 0.200138
 3363         os    116    bbb     O1   3363 -0.20025300  16.000000   ; qtot -0.000115
; residue  117 bbb rtp bbb q -0.0
 3364         n3    117    bbb     N1   3364 -0.59685800  14.010000   ; qtot -0.596973
 3365         c3    117    bbb     C1   3365 0.10137000  12.010000   ; qtot -0.495603
 3366         h1    117    bbb     H1   3366 0.04411300   1.008000   ; qtot -0.451490
 3367         h1    117    bbb     H2   3367 0.04411300   1.008000   ; qtot -0.407377
 3368         c3    117    bbb     C2   3368 0.10137000  12.010000   ; qtot -0.306007
 3369         h1    117    bbb     H3   3369 0.04411300   1.008000   ; qtot -0.261894
 3370         h1    117    bbb     H4   3370 0.04411300   1.008000   ; qtot -0.217781
 3371         c3    117    bbb     C3   3371 -0.00195300  12.010000   ; qtot -0.219734
 3372         h1    117    bbb     H5   3372 0.05064400   1.008000   ; qtot -0.169090
 3373         h1    117    bbb     H6   3373 0.05064400   1.008000   ; qtot -0.118446
 3374         c3    117    bbb     C4   3374 -0.01612100  12.010000   ; qtot -0.134567
 3375         hc    117    bbb     H7   3375 0.04936100   1.008000   ; qtot -0.085206
 3376         hc    117    bbb     H8   3376 0.04936100   1.008000   ; qtot -0.035845
 3377         c3    117    bbb     C5   3377 0.11363000  12.010000   ; qtot 0.077785
 3378         hc    117    bbb     H9   3378 0.06265900   1.008000   ; qtot 0.140444
 3379         hc    117    bbb    H10   3379 0.06265900   1.008000   ; qtot 0.203103
 3380         c3    117    bbb     C6   3380 0.11363000  12.010000   ; qtot 0.316733
 3381         hc    117    bbb    H11   3381 0.06265900   1.008000   ; qtot 0.379392
 3382         hc    117    bbb    H12   3382 0.06265900   1.008000   ; qtot 0.442051
 3383         c3    117    bbb     C7   3383 0.05858200  12.010000   ; qtot 0.500633
 3384         h1    117    bbb    H13   3384 0.06123400   1.008000   ; qtot 0.561867
 3385         h1    117    bbb    H14   3385 0.06123400   1.008000   ; qtot 0.623101
 3386         c3    117    bbb     C8   3386 -0.72423400  12.010000   ; qtot -0.101133
 3387         h1    117    bbb    H15   3387 0.25637600   1.008000   ; qtot 0.155243
 3388         h1    117    bbb    H16   3388 0.25637600   1.008000   ; qtot 0.411619
 3389         c3    117    bbb     C9   3389 -0.72423400  12.010000   ; qtot -0.312615
 3390         h1    117    bbb    H17   3390 0.25637600   1.008000   ; qtot -0.056239
 3391         h1    117    bbb    H18   3391 0.25637600   1.008000   ; qtot 0.200137
 3392         os    117    bbb     O1   3392 -0.20025300  16.000000   ; qtot -0.000116
; residue  118 bbb rtp bbb q -0.0
 3393         n3    118    bbb     N1   3393 -0.59685800  14.010000   ; qtot -0.596974
 3394         c3    118    bbb     C1   3394 0.10137000  12.010000   ; qtot -0.495604
 3395         h1    118    bbb     H1   3395 0.04411300   1.008000   ; qtot -0.451491
 3396         h1    118    bbb     H2   3396 0.04411300   1.008000   ; qtot -0.407378
 3397         c3    118    bbb     C2   3397 0.10137000  12.010000   ; qtot -0.306008
 3398         h1    118    bbb     H3   3398 0.04411300   1.008000   ; qtot -0.261895
 3399         h1    118    bbb     H4   3399 0.04411300   1.008000   ; qtot -0.217782
 3400         c3    118    bbb     C3   3400 -0.00195300  12.010000   ; qtot -0.219735
 3401         h1    118    bbb     H5   3401 0.05064400   1.008000   ; qtot -0.169091
 3402         h1    118    bbb     H6   3402 0.05064400   1.008000   ; qtot -0.118447
 3403         c3    118    bbb     C4   3403 -0.01612100  12.010000   ; qtot -0.134568
 3404         hc    118    bbb     H7   3404 0.04936100   1.008000   ; qtot -0.085207
 3405         hc    118    bbb     H8   3405 0.04936100   1.008000   ; qtot -0.035846
 3406         c3    118    bbb     C5   3406 0.11363000  12.010000   ; qtot 0.077784
 3407         hc    118    bbb     H9   3407 0.06265900   1.008000   ; qtot 0.140443
 3408         hc    118    bbb    H10   3408 0.06265900   1.008000   ; qtot 0.203102
 3409         c3    118    bbb     C6   3409 0.11363000  12.010000   ; qtot 0.316732
 3410         hc    118    bbb    H11   3410 0.06265900   1.008000   ; qtot 0.379391
 3411         hc    118    bbb    H12   3411 0.06265900   1.008000   ; qtot 0.442050
 3412         c3    118    bbb     C7   3412 0.05858200  12.010000   ; qtot 0.500632
 3413         h1    118    bbb    H13   3413 0.06123400   1.008000   ; qtot 0.561866
 3414         h1    118    bbb    H14   3414 0.06123400   1.008000   ; qtot 0.623100
 3415         c3    118    bbb     C8   3415 -0.72423400  12.010000   ; qtot -0.101134
 3416         h1    118    bbb    H15   3416 0.25637600   1.008000   ; qtot 0.155242
 3417         h1    118    bbb    H16   3417 0.25637600   1.008000   ; qtot 0.411618
 3418         c3    118    bbb     C9   3418 -0.72423400  12.010000   ; qtot -0.312616
 3419         h1    118    bbb    H17   3419 0.25637600   1.008000   ; qtot -0.056240
 3420         h1    118    bbb    H18   3420 0.25637600   1.008000   ; qtot 0.200136
 3421         os    118    bbb     O1   3421 -0.20025300  16.000000   ; qtot -0.000117
; residue  119 bbb rtp bbb q -0.0
 3422         n3    119    bbb     N1   3422 -0.59685800  14.010000   ; qtot -0.596975
 3423         c3    119    bbb     C1   3423 0.10137000  12.010000   ; qtot -0.495605
 3424         h1    119    bbb     H1   3424 0.04411300   1.008000   ; qtot -0.451492
 3425         h1    119    bbb     H2   3425 0.04411300   1.008000   ; qtot -0.407379
 3426         c3    119    bbb     C2   3426 0.10137000  12.010000   ; qtot -0.306009
 3427         h1    119    bbb     H3   3427 0.04411300   1.008000   ; qtot -0.261896
 3428         h1    119    bbb     H4   3428 0.04411300   1.008000   ; qtot -0.217783
 3429         c3    119    bbb     C3   3429 -0.00195300  12.010000   ; qtot -0.219736
 3430         h1    119    bbb     H5   3430 0.05064400   1.008000   ; qtot -0.169092
 3431         h1    119    bbb     H6   3431 0.05064400   1.008000   ; qtot -0.118448
 3432         c3    119    bbb     C4   3432 -0.01612100  12.010000   ; qtot -0.134569
 3433         hc    119    bbb     H7   3433 0.04936100   1.008000   ; qtot -0.085208
 3434         hc    119    bbb     H8   3434 0.04936100   1.008000   ; qtot -0.035847
 3435         c3    119    bbb     C5   3435 0.11363000  12.010000   ; qtot 0.077783
 3436         hc    119    bbb     H9   3436 0.06265900   1.008000   ; qtot 0.140442
 3437         hc    119    bbb    H10   3437 0.06265900   1.008000   ; qtot 0.203101
 3438         c3    119    bbb     C6   3438 0.11363000  12.010000   ; qtot 0.316731
 3439         hc    119    bbb    H11   3439 0.06265900   1.008000   ; qtot 0.379390
 3440         hc    119    bbb    H12   3440 0.06265900   1.008000   ; qtot 0.442049
 3441         c3    119    bbb     C7   3441 0.05858200  12.010000   ; qtot 0.500631
 3442         h1    119    bbb    H13   3442 0.06123400   1.008000   ; qtot 0.561865
 3443         h1    119    bbb    H14   3443 0.06123400   1.008000   ; qtot 0.623099
 3444         c3    119    bbb     C8   3444 -0.72423400  12.010000   ; qtot -0.101135
 3445         h1    119    bbb    H15   3445 0.25637600   1.008000   ; qtot 0.155241
 3446         h1    119    bbb    H16   3446 0.25637600   1.008000   ; qtot 0.411617
 3447         c3    119    bbb     C9   3447 -0.72423400  12.010000   ; qtot -0.312617
 3448         h1    119    bbb    H17   3448 0.25637600   1.008000   ; qtot -0.056241
 3449         h1    119    bbb    H18   3449 0.25637600   1.008000   ; qtot 0.200135
 3450         os    119    bbb     O1   3450 -0.20025300  16.000000   ; qtot -0.000118
; residue  120 bbb rtp bbb q -0.0
 3451         n3    120    bbb     N1   3451 -0.59685800  14.010000   ; qtot -0.596976
 3452         c3    120    bbb     C1   3452 0.10137000  12.010000   ; qtot -0.495606
 3453         h1    120    bbb     H1   3453 0.04411300   1.008000   ; qtot -0.451493
 3454         h1    120    bbb     H2   3454 0.04411300   1.008000   ; qtot -0.407380
 3455         c3    120    bbb     C2   3455 0.10137000  12.010000   ; qtot -0.306010
 3456         h1    120    bbb     H3   3456 0.04411300   1.008000   ; qtot -0.261897
 3457         h1    120    bbb     H4   3457 0.04411300   1.008000   ; qtot -0.217784
 3458         c3    120    bbb     C3   3458 -0.00195300  12.010000   ; qtot -0.219737
 3459         h1    120    bbb     H5   3459 0.05064400   1.008000   ; qtot -0.169093
 3460         h1    120    bbb     H6   3460 0.05064400   1.008000   ; qtot -0.118449
 3461         c3    120    bbb     C4   3461 -0.01612100  12.010000   ; qtot -0.134570
 3462         hc    120    bbb     H7   3462 0.04936100   1.008000   ; qtot -0.085209
 3463         hc    120    bbb     H8   3463 0.04936100   1.008000   ; qtot -0.035848
 3464         c3    120    bbb     C5   3464 0.11363000  12.010000   ; qtot 0.077782
 3465         hc    120    bbb     H9   3465 0.06265900   1.008000   ; qtot 0.140441
 3466         hc    120    bbb    H10   3466 0.06265900   1.008000   ; qtot 0.203100
 3467         c3    120    bbb     C6   3467 0.11363000  12.010000   ; qtot 0.316730
 3468         hc    120    bbb    H11   3468 0.06265900   1.008000   ; qtot 0.379389
 3469         hc    120    bbb    H12   3469 0.06265900   1.008000   ; qtot 0.442048
 3470         c3    120    bbb     C7   3470 0.05858200  12.010000   ; qtot 0.500630
 3471         h1    120    bbb    H13   3471 0.06123400   1.008000   ; qtot 0.561864
 3472         h1    120    bbb    H14   3472 0.06123400   1.008000   ; qtot 0.623098
 3473         c3    120    bbb     C8   3473 -0.72423400  12.010000   ; qtot -0.101136
 3474         h1    120    bbb    H15   3474 0.25637600   1.008000   ; qtot 0.155240
 3475         h1    120    bbb    H16   3475 0.25637600   1.008000   ; qtot 0.411616
 3476         c3    120    bbb     C9   3476 -0.72423400  12.010000   ; qtot -0.312618
 3477         h1    120    bbb    H17   3477 0.25637600   1.008000   ; qtot -0.056242
 3478         h1    120    bbb    H18   3478 0.25637600   1.008000   ; qtot 0.200134
 3479         os    120    bbb     O1   3479 -0.20025300  16.000000   ; qtot -0.000119
; residue  121 bbb rtp bbb q -0.0
 3480         n3    121    bbb     N1   3480 -0.59685800  14.010000   ; qtot -0.596977
 3481         c3    121    bbb     C1   3481 0.10137000  12.010000   ; qtot -0.495607
 3482         h1    121    bbb     H1   3482 0.04411300   1.008000   ; qtot -0.451494
 3483         h1    121    bbb     H2   3483 0.04411300   1.008000   ; qtot -0.407381
 3484         c3    121    bbb     C2   3484 0.10137000  12.010000   ; qtot -0.306011
 3485         h1    121    bbb     H3   3485 0.04411300   1.008000   ; qtot -0.261898
 3486         h1    121    bbb     H4   3486 0.04411300   1.008000   ; qtot -0.217785
 3487         c3    121    bbb     C3   3487 -0.00195300  12.010000   ; qtot -0.219738
 3488         h1    121    bbb     H5   3488 0.05064400   1.008000   ; qtot -0.169094
 3489         h1    121    bbb     H6   3489 0.05064400   1.008000   ; qtot -0.118450
 3490         c3    121    bbb     C4   3490 -0.01612100  12.010000   ; qtot -0.134571
 3491         hc    121    bbb     H7   3491 0.04936100   1.008000   ; qtot -0.085210
 3492         hc    121    bbb     H8   3492 0.04936100   1.008000   ; qtot -0.035849
 3493         c3    121    bbb     C5   3493 0.11363000  12.010000   ; qtot 0.077781
 3494         hc    121    bbb     H9   3494 0.06265900   1.008000   ; qtot 0.140440
 3495         hc    121    bbb    H10   3495 0.06265900   1.008000   ; qtot 0.203099
 3496         c3    121    bbb     C6   3496 0.11363000  12.010000   ; qtot 0.316729
 3497         hc    121    bbb    H11   3497 0.06265900   1.008000   ; qtot 0.379388
 3498         hc    121    bbb    H12   3498 0.06265900   1.008000   ; qtot 0.442047
 3499         c3    121    bbb     C7   3499 0.05858200  12.010000   ; qtot 0.500629
 3500         h1    121    bbb    H13   3500 0.06123400   1.008000   ; qtot 0.561863
 3501         h1    121    bbb    H14   3501 0.06123400   1.008000   ; qtot 0.623097
 3502         c3    121    bbb     C8   3502 -0.72423400  12.010000   ; qtot -0.101137
 3503         h1    121    bbb    H15   3503 0.25637600   1.008000   ; qtot 0.155239
 3504         h1    121    bbb    H16   3504 0.25637600   1.008000   ; qtot 0.411615
 3505         c3    121    bbb     C9   3505 -0.72423400  12.010000   ; qtot -0.312619
 3506         h1    121    bbb    H17   3506 0.25637600   1.008000   ; qtot -0.056243
 3507         h1    121    bbb    H18   3507 0.25637600   1.008000   ; qtot 0.200133
 3508         os    121    bbb     O1   3508 -0.20025300  16.000000   ; qtot -0.000120
; residue  122 bbb rtp bbb q -0.0
 3509         n3    122    bbb     N1   3509 -0.59685800  14.010000   ; qtot -0.596978
 3510         c3    122    bbb     C1   3510 0.10137000  12.010000   ; qtot -0.495608
 3511         h1    122    bbb     H1   3511 0.04411300   1.008000   ; qtot -0.451495
 3512         h1    122    bbb     H2   3512 0.04411300   1.008000   ; qtot -0.407382
 3513         c3    122    bbb     C2   3513 0.10137000  12.010000   ; qtot -0.306012
 3514         h1    122    bbb     H3   3514 0.04411300   1.008000   ; qtot -0.261899
 3515         h1    122    bbb     H4   3515 0.04411300   1.008000   ; qtot -0.217786
 3516         c3    122    bbb     C3   3516 -0.00195300  12.010000   ; qtot -0.219739
 3517         h1    122    bbb     H5   3517 0.05064400   1.008000   ; qtot -0.169095
 3518         h1    122    bbb     H6   3518 0.05064400   1.008000   ; qtot -0.118451
 3519         c3    122    bbb     C4   3519 -0.01612100  12.010000   ; qtot -0.134572
 3520         hc    122    bbb     H7   3520 0.04936100   1.008000   ; qtot -0.085211
 3521         hc    122    bbb     H8   3521 0.04936100   1.008000   ; qtot -0.035850
 3522         c3    122    bbb     C5   3522 0.11363000  12.010000   ; qtot 0.077780
 3523         hc    122    bbb     H9   3523 0.06265900   1.008000   ; qtot 0.140439
 3524         hc    122    bbb    H10   3524 0.06265900   1.008000   ; qtot 0.203098
 3525         c3    122    bbb     C6   3525 0.11363000  12.010000   ; qtot 0.316728
 3526         hc    122    bbb    H11   3526 0.06265900   1.008000   ; qtot 0.379387
 3527         hc    122    bbb    H12   3527 0.06265900   1.008000   ; qtot 0.442046
 3528         c3    122    bbb     C7   3528 0.05858200  12.010000   ; qtot 0.500628
 3529         h1    122    bbb    H13   3529 0.06123400   1.008000   ; qtot 0.561862
 3530         h1    122    bbb    H14   3530 0.06123400   1.008000   ; qtot 0.623096
 3531         c3    122    bbb     C8   3531 -0.72423400  12.010000   ; qtot -0.101138
 3532         h1    122    bbb    H15   3532 0.25637600   1.008000   ; qtot 0.155238
 3533         h1    122    bbb    H16   3533 0.25637600   1.008000   ; qtot 0.411614
 3534         c3    122    bbb     C9   3534 -0.72423400  12.010000   ; qtot -0.312620
 3535         h1    122    bbb    H17   3535 0.25637600   1.008000   ; qtot -0.056244
 3536         h1    122    bbb    H18   3536 0.25637600   1.008000   ; qtot 0.200132
 3537         os    122    bbb     O1   3537 -0.20025300  16.000000   ; qtot -0.000121
; residue  123 bbb rtp bbb q -0.0
 3538         n3    123    bbb     N1   3538 -0.59685800  14.010000   ; qtot -0.596979
 3539         c3    123    bbb     C1   3539 0.10137000  12.010000   ; qtot -0.495609
 3540         h1    123    bbb     H1   3540 0.04411300   1.008000   ; qtot -0.451496
 3541         h1    123    bbb     H2   3541 0.04411300   1.008000   ; qtot -0.407383
 3542         c3    123    bbb     C2   3542 0.10137000  12.010000   ; qtot -0.306013
 3543         h1    123    bbb     H3   3543 0.04411300   1.008000   ; qtot -0.261900
 3544         h1    123    bbb     H4   3544 0.04411300   1.008000   ; qtot -0.217787
 3545         c3    123    bbb     C3   3545 -0.00195300  12.010000   ; qtot -0.219740
 3546         h1    123    bbb     H5   3546 0.05064400   1.008000   ; qtot -0.169096
 3547         h1    123    bbb     H6   3547 0.05064400   1.008000   ; qtot -0.118452
 3548         c3    123    bbb     C4   3548 -0.01612100  12.010000   ; qtot -0.134573
 3549         hc    123    bbb     H7   3549 0.04936100   1.008000   ; qtot -0.085212
 3550         hc    123    bbb     H8   3550 0.04936100   1.008000   ; qtot -0.035851
 3551         c3    123    bbb     C5   3551 0.11363000  12.010000   ; qtot 0.077779
 3552         hc    123    bbb     H9   3552 0.06265900   1.008000   ; qtot 0.140438
 3553         hc    123    bbb    H10   3553 0.06265900   1.008000   ; qtot 0.203097
 3554         c3    123    bbb     C6   3554 0.11363000  12.010000   ; qtot 0.316727
 3555         hc    123    bbb    H11   3555 0.06265900   1.008000   ; qtot 0.379386
 3556         hc    123    bbb    H12   3556 0.06265900   1.008000   ; qtot 0.442045
 3557         c3    123    bbb     C7   3557 0.05858200  12.010000   ; qtot 0.500627
 3558         h1    123    bbb    H13   3558 0.06123400   1.008000   ; qtot 0.561861
 3559         h1    123    bbb    H14   3559 0.06123400   1.008000   ; qtot 0.623095
 3560         c3    123    bbb     C8   3560 -0.72423400  12.010000   ; qtot -0.101139
 3561         h1    123    bbb    H15   3561 0.25637600   1.008000   ; qtot 0.155237
 3562         h1    123    bbb    H16   3562 0.25637600   1.008000   ; qtot 0.411613
 3563         c3    123    bbb     C9   3563 -0.72423400  12.010000   ; qtot -0.312620
 3564         h1    123    bbb    H17   3564 0.25637600   1.008000   ; qtot -0.056245
 3565         h1    123    bbb    H18   3565 0.25637600   1.008000   ; qtot 0.200131
 3566         os    123    bbb     O1   3566 -0.20025300  16.000000   ; qtot -0.000122
; residue  124 bbb rtp bbb q -0.0
 3567         n3    124    bbb     N1   3567 -0.59685800  14.010000   ; qtot -0.596979
 3568         c3    124    bbb     C1   3568 0.10137000  12.010000   ; qtot -0.495609
 3569         h1    124    bbb     H1   3569 0.04411300   1.008000   ; qtot -0.451496
 3570         h1    124    bbb     H2   3570 0.04411300   1.008000   ; qtot -0.407383
 3571         c3    124    bbb     C2   3571 0.10137000  12.010000   ; qtot -0.306013
 3572         h1    124    bbb     H3   3572 0.04411300   1.008000   ; qtot -0.261900
 3573         h1    124    bbb     H4   3573 0.04411300   1.008000   ; qtot -0.217787
 3574         c3    124    bbb     C3   3574 -0.00195300  12.010000   ; qtot -0.219740
 3575         h1    124    bbb     H5   3575 0.05064400   1.008000   ; qtot -0.169096
 3576         h1    124    bbb     H6   3576 0.05064400   1.008000   ; qtot -0.118452
 3577         c3    124    bbb     C4   3577 -0.01612100  12.010000   ; qtot -0.134573
 3578         hc    124    bbb     H7   3578 0.04936100   1.008000   ; qtot -0.085212
 3579         hc    124    bbb     H8   3579 0.04936100   1.008000   ; qtot -0.035851
 3580         c3    124    bbb     C5   3580 0.11363000  12.010000   ; qtot 0.077779
 3581         hc    124    bbb     H9   3581 0.06265900   1.008000   ; qtot 0.140438
 3582         hc    124    bbb    H10   3582 0.06265900   1.008000   ; qtot 0.203097
 3583         c3    124    bbb     C6   3583 0.11363000  12.010000   ; qtot 0.316727
 3584         hc    124    bbb    H11   3584 0.06265900   1.008000   ; qtot 0.379386
 3585         hc    124    bbb    H12   3585 0.06265900   1.008000   ; qtot 0.442045
 3586         c3    124    bbb     C7   3586 0.05858200  12.010000   ; qtot 0.500627
 3587         h1    124    bbb    H13   3587 0.06123400   1.008000   ; qtot 0.561861
 3588         h1    124    bbb    H14   3588 0.06123400   1.008000   ; qtot 0.623095
 3589         c3    124    bbb     C8   3589 -0.72423400  12.010000   ; qtot -0.101139
 3590         h1    124    bbb    H15   3590 0.25637600   1.008000   ; qtot 0.155237
 3591         h1    124    bbb    H16   3591 0.25637600   1.008000   ; qtot 0.411613
 3592         c3    124    bbb     C9   3592 -0.72423400  12.010000   ; qtot -0.312621
 3593         h1    124    bbb    H17   3593 0.25637600   1.008000   ; qtot -0.056245
 3594         h1    124    bbb    H18   3594 0.25637600   1.008000   ; qtot 0.200131
 3595         os    124    bbb     O1   3595 -0.20025300  16.000000   ; qtot -0.000122
; residue  125 bbb rtp bbb q -0.0
 3596         n3    125    bbb     N1   3596 -0.59685800  14.010000   ; qtot -0.596980
 3597         c3    125    bbb     C1   3597 0.10137000  12.010000   ; qtot -0.495610
 3598         h1    125    bbb     H1   3598 0.04411300   1.008000   ; qtot -0.451497
 3599         h1    125    bbb     H2   3599 0.04411300   1.008000   ; qtot -0.407384
 3600         c3    125    bbb     C2   3600 0.10137000  12.010000   ; qtot -0.306014
 3601         h1    125    bbb     H3   3601 0.04411300   1.008000   ; qtot -0.261901
 3602         h1    125    bbb     H4   3602 0.04411300   1.008000   ; qtot -0.217788
 3603         c3    125    bbb     C3   3603 -0.00195300  12.010000   ; qtot -0.219741
 3604         h1    125    bbb     H5   3604 0.05064400   1.008000   ; qtot -0.169097
 3605         h1    125    bbb     H6   3605 0.05064400   1.008000   ; qtot -0.118453
 3606         c3    125    bbb     C4   3606 -0.01612100  12.010000   ; qtot -0.134574
 3607         hc    125    bbb     H7   3607 0.04936100   1.008000   ; qtot -0.085213
 3608         hc    125    bbb     H8   3608 0.04936100   1.008000   ; qtot -0.035852
 3609         c3    125    bbb     C5   3609 0.11363000  12.010000   ; qtot 0.077778
 3610         hc    125    bbb     H9   3610 0.06265900   1.008000   ; qtot 0.140437
 3611         hc    125    bbb    H10   3611 0.06265900   1.008000   ; qtot 0.203096
 3612         c3    125    bbb     C6   3612 0.11363000  12.010000   ; qtot 0.316726
 3613         hc    125    bbb    H11   3613 0.06265900   1.008000   ; qtot 0.379385
 3614         hc    125    bbb    H12   3614 0.06265900   1.008000   ; qtot 0.442044
 3615         c3    125    bbb     C7   3615 0.05858200  12.010000   ; qtot 0.500626
 3616         h1    125    bbb    H13   3616 0.06123400   1.008000   ; qtot 0.561860
 3617         h1    125    bbb    H14   3617 0.06123400   1.008000   ; qtot 0.623094
 3618         c3    125    bbb     C8   3618 -0.72423400  12.010000   ; qtot -0.101140
 3619         h1    125    bbb    H15   3619 0.25637600   1.008000   ; qtot 0.155236
 3620         h1    125    bbb    H16   3620 0.25637600   1.008000   ; qtot 0.411612
 3621         c3    125    bbb     C9   3621 -0.72423400  12.010000   ; qtot -0.312622
 3622         h1    125    bbb    H17   3622 0.25637600   1.008000   ; qtot -0.056246
 3623         h1    125    bbb    H18   3623 0.25637600   1.008000   ; qtot 0.200130
 3624         os    125    bbb     O1   3624 -0.20025300  16.000000   ; qtot -0.000123
; residue  126 bbb rtp bbb q -0.0
 3625         n3    126    bbb     N1   3625 -0.59685800  14.010000   ; qtot -0.596981
 3626         c3    126    bbb     C1   3626 0.10137000  12.010000   ; qtot -0.495611
 3627         h1    126    bbb     H1   3627 0.04411300   1.008000   ; qtot -0.451498
 3628         h1    126    bbb     H2   3628 0.04411300   1.008000   ; qtot -0.407385
 3629         c3    126    bbb     C2   3629 0.10137000  12.010000   ; qtot -0.306015
 3630         h1    126    bbb     H3   3630 0.04411300   1.008000   ; qtot -0.261902
 3631         h1    126    bbb     H4   3631 0.04411300   1.008000   ; qtot -0.217789
 3632         c3    126    bbb     C3   3632 -0.00195300  12.010000   ; qtot -0.219742
 3633         h1    126    bbb     H5   3633 0.05064400   1.008000   ; qtot -0.169098
 3634         h1    126    bbb     H6   3634 0.05064400   1.008000   ; qtot -0.118454
 3635         c3    126    bbb     C4   3635 -0.01612100  12.010000   ; qtot -0.134575
 3636         hc    126    bbb     H7   3636 0.04936100   1.008000   ; qtot -0.085214
 3637         hc    126    bbb     H8   3637 0.04936100   1.008000   ; qtot -0.035853
 3638         c3    126    bbb     C5   3638 0.11363000  12.010000   ; qtot 0.077777
 3639         hc    126    bbb     H9   3639 0.06265900   1.008000   ; qtot 0.140436
 3640         hc    126    bbb    H10   3640 0.06265900   1.008000   ; qtot 0.203095
 3641         c3    126    bbb     C6   3641 0.11363000  12.010000   ; qtot 0.316725
 3642         hc    126    bbb    H11   3642 0.06265900   1.008000   ; qtot 0.379384
 3643         hc    126    bbb    H12   3643 0.06265900   1.008000   ; qtot 0.442043
 3644         c3    126    bbb     C7   3644 0.05858200  12.010000   ; qtot 0.500625
 3645         h1    126    bbb    H13   3645 0.06123400   1.008000   ; qtot 0.561859
 3646         h1    126    bbb    H14   3646 0.06123400   1.008000   ; qtot 0.623093
 3647         c3    126    bbb     C8   3647 -0.72423400  12.010000   ; qtot -0.101141
 3648         h1    126    bbb    H15   3648 0.25637600   1.008000   ; qtot 0.155235
 3649         h1    126    bbb    H16   3649 0.25637600   1.008000   ; qtot 0.411611
 3650         c3    126    bbb     C9   3650 -0.72423400  12.010000   ; qtot -0.312623
 3651         h1    126    bbb    H17   3651 0.25637600   1.008000   ; qtot -0.056247
 3652         h1    126    bbb    H18   3652 0.25637600   1.008000   ; qtot 0.200129
 3653         os    126    bbb     O1   3653 -0.20025300  16.000000   ; qtot -0.000124
; residue  127 bbb rtp bbb q -0.0
 3654         n3    127    bbb     N1   3654 -0.59685800  14.010000   ; qtot -0.596982
 3655         c3    127    bbb     C1   3655 0.10137000  12.010000   ; qtot -0.495612
 3656         h1    127    bbb     H1   3656 0.04411300   1.008000   ; qtot -0.451499
 3657         h1    127    bbb     H2   3657 0.04411300   1.008000   ; qtot -0.407386
 3658         c3    127    bbb     C2   3658 0.10137000  12.010000   ; qtot -0.306016
 3659         h1    127    bbb     H3   3659 0.04411300   1.008000   ; qtot -0.261903
 3660         h1    127    bbb     H4   3660 0.04411300   1.008000   ; qtot -0.217790
 3661         c3    127    bbb     C3   3661 -0.00195300  12.010000   ; qtot -0.219743
 3662         h1    127    bbb     H5   3662 0.05064400   1.008000   ; qtot -0.169099
 3663         h1    127    bbb     H6   3663 0.05064400   1.008000   ; qtot -0.118455
 3664         c3    127    bbb     C4   3664 -0.01612100  12.010000   ; qtot -0.134576
 3665         hc    127    bbb     H7   3665 0.04936100   1.008000   ; qtot -0.085215
 3666         hc    127    bbb     H8   3666 0.04936100   1.008000   ; qtot -0.035854
 3667         c3    127    bbb     C5   3667 0.11363000  12.010000   ; qtot 0.077776
 3668         hc    127    bbb     H9   3668 0.06265900   1.008000   ; qtot 0.140435
 3669         hc    127    bbb    H10   3669 0.06265900   1.008000   ; qtot 0.203094
 3670         c3    127    bbb     C6   3670 0.11363000  12.010000   ; qtot 0.316724
 3671         hc    127    bbb    H11   3671 0.06265900   1.008000   ; qtot 0.379383
 3672         hc    127    bbb    H12   3672 0.06265900   1.008000   ; qtot 0.442042
 3673         c3    127    bbb     C7   3673 0.05858200  12.010000   ; qtot 0.500624
 3674         h1    127    bbb    H13   3674 0.06123400   1.008000   ; qtot 0.561858
 3675         h1    127    bbb    H14   3675 0.06123400   1.008000   ; qtot 0.623092
 3676         c3    127    bbb     C8   3676 -0.72423400  12.010000   ; qtot -0.101142
 3677         h1    127    bbb    H15   3677 0.25637600   1.008000   ; qtot 0.155234
 3678         h1    127    bbb    H16   3678 0.25637600   1.008000   ; qtot 0.411610
 3679         c3    127    bbb     C9   3679 -0.72423400  12.010000   ; qtot -0.312624
 3680         h1    127    bbb    H17   3680 0.25637600   1.008000   ; qtot -0.056248
 3681         h1    127    bbb    H18   3681 0.25637600   1.008000   ; qtot 0.200128
 3682         os    127    bbb     O1   3682 -0.20025300  16.000000   ; qtot -0.000125
; residue  128 bbb rtp bbb q -0.0
 3683         n3    128    bbb     N1   3683 -0.59685800  14.010000   ; qtot -0.596983
 3684         c3    128    bbb     C1   3684 0.10137000  12.010000   ; qtot -0.495613
 3685         h1    128    bbb     H1   3685 0.04411300   1.008000   ; qtot -0.451500
 3686         h1    128    bbb     H2   3686 0.04411300   1.008000   ; qtot -0.407387
 3687         c3    128    bbb     C2   3687 0.10137000  12.010000   ; qtot -0.306017
 3688         h1    128    bbb     H3   3688 0.04411300   1.008000   ; qtot -0.261904
 3689         h1    128    bbb     H4   3689 0.04411300   1.008000   ; qtot -0.217791
 3690         c3    128    bbb     C3   3690 -0.00195300  12.010000   ; qtot -0.219744
 3691         h1    128    bbb     H5   3691 0.05064400   1.008000   ; qtot -0.169100
 3692         h1    128    bbb     H6   3692 0.05064400   1.008000   ; qtot -0.118456
 3693         c3    128    bbb     C4   3693 -0.01612100  12.010000   ; qtot -0.134577
 3694         hc    128    bbb     H7   3694 0.04936100   1.008000   ; qtot -0.085216
 3695         hc    128    bbb     H8   3695 0.04936100   1.008000   ; qtot -0.035855
 3696         c3    128    bbb     C5   3696 0.11363000  12.010000   ; qtot 0.077775
 3697         hc    128    bbb     H9   3697 0.06265900   1.008000   ; qtot 0.140434
 3698         hc    128    bbb    H10   3698 0.06265900   1.008000   ; qtot 0.203093
 3699         c3    128    bbb     C6   3699 0.11363000  12.010000   ; qtot 0.316723
 3700         hc    128    bbb    H11   3700 0.06265900   1.008000   ; qtot 0.379382
 3701         hc    128    bbb    H12   3701 0.06265900   1.008000   ; qtot 0.442041
 3702         c3    128    bbb     C7   3702 0.05858200  12.010000   ; qtot 0.500623
 3703         h1    128    bbb    H13   3703 0.06123400   1.008000   ; qtot 0.561857
 3704         h1    128    bbb    H14   3704 0.06123400   1.008000   ; qtot 0.623091
 3705         c3    128    bbb     C8   3705 -0.72423400  12.010000   ; qtot -0.101143
 3706         h1    128    bbb    H15   3706 0.25637600   1.008000   ; qtot 0.155233
 3707         h1    128    bbb    H16   3707 0.25637600   1.008000   ; qtot 0.411609
 3708         c3    128    bbb     C9   3708 -0.72423400  12.010000   ; qtot -0.312625
 3709         h1    128    bbb    H17   3709 0.25637600   1.008000   ; qtot -0.056249
 3710         h1    128    bbb    H18   3710 0.25637600   1.008000   ; qtot 0.200127
 3711         os    128    bbb     O1   3711 -0.20025300  16.000000   ; qtot -0.000126
; residue  129 bbb rtp bbb q -0.0
 3712         n3    129    bbb     N1   3712 -0.59685800  14.010000   ; qtot -0.596984
 3713         c3    129    bbb     C1   3713 0.10137000  12.010000   ; qtot -0.495614
 3714         h1    129    bbb     H1   3714 0.04411300   1.008000   ; qtot -0.451501
 3715         h1    129    bbb     H2   3715 0.04411300   1.008000   ; qtot -0.407388
 3716         c3    129    bbb     C2   3716 0.10137000  12.010000   ; qtot -0.306018
 3717         h1    129    bbb     H3   3717 0.04411300   1.008000   ; qtot -0.261905
 3718         h1    129    bbb     H4   3718 0.04411300   1.008000   ; qtot -0.217792
 3719         c3    129    bbb     C3   3719 -0.00195300  12.010000   ; qtot -0.219745
 3720         h1    129    bbb     H5   3720 0.05064400   1.008000   ; qtot -0.169101
 3721         h1    129    bbb     H6   3721 0.05064400   1.008000   ; qtot -0.118457
 3722         c3    129    bbb     C4   3722 -0.01612100  12.010000   ; qtot -0.134578
 3723         hc    129    bbb     H7   3723 0.04936100   1.008000   ; qtot -0.085217
 3724         hc    129    bbb     H8   3724 0.04936100   1.008000   ; qtot -0.035856
 3725         c3    129    bbb     C5   3725 0.11363000  12.010000   ; qtot 0.077774
 3726         hc    129    bbb     H9   3726 0.06265900   1.008000   ; qtot 0.140433
 3727         hc    129    bbb    H10   3727 0.06265900   1.008000   ; qtot 0.203092
 3728         c3    129    bbb     C6   3728 0.11363000  12.010000   ; qtot 0.316722
 3729         hc    129    bbb    H11   3729 0.06265900   1.008000   ; qtot 0.379381
 3730         hc    129    bbb    H12   3730 0.06265900   1.008000   ; qtot 0.442040
 3731         c3    129    bbb     C7   3731 0.05858200  12.010000   ; qtot 0.500622
 3732         h1    129    bbb    H13   3732 0.06123400   1.008000   ; qtot 0.561856
 3733         h1    129    bbb    H14   3733 0.06123400   1.008000   ; qtot 0.623090
 3734         c3    129    bbb     C8   3734 -0.72423400  12.010000   ; qtot -0.101144
 3735         h1    129    bbb    H15   3735 0.25637600   1.008000   ; qtot 0.155232
 3736         h1    129    bbb    H16   3736 0.25637600   1.008000   ; qtot 0.411608
 3737         c3    129    bbb     C9   3737 -0.72423400  12.010000   ; qtot -0.312626
 3738         h1    129    bbb    H17   3738 0.25637600   1.008000   ; qtot -0.056250
 3739         h1    129    bbb    H18   3739 0.25637600   1.008000   ; qtot 0.200126
 3740         os    129    bbb     O1   3740 -0.20025300  16.000000   ; qtot -0.000127
; residue  130 bbb rtp bbb q -0.0
 3741         n3    130    bbb     N1   3741 -0.59685800  14.010000   ; qtot -0.596985
 3742         c3    130    bbb     C1   3742 0.10137000  12.010000   ; qtot -0.495615
 3743         h1    130    bbb     H1   3743 0.04411300   1.008000   ; qtot -0.451502
 3744         h1    130    bbb     H2   3744 0.04411300   1.008000   ; qtot -0.407389
 3745         c3    130    bbb     C2   3745 0.10137000  12.010000   ; qtot -0.306019
 3746         h1    130    bbb     H3   3746 0.04411300   1.008000   ; qtot -0.261906
 3747         h1    130    bbb     H4   3747 0.04411300   1.008000   ; qtot -0.217793
 3748         c3    130    bbb     C3   3748 -0.00195300  12.010000   ; qtot -0.219746
 3749         h1    130    bbb     H5   3749 0.05064400   1.008000   ; qtot -0.169102
 3750         h1    130    bbb     H6   3750 0.05064400   1.008000   ; qtot -0.118458
 3751         c3    130    bbb     C4   3751 -0.01612100  12.010000   ; qtot -0.134579
 3752         hc    130    bbb     H7   3752 0.04936100   1.008000   ; qtot -0.085218
 3753         hc    130    bbb     H8   3753 0.04936100   1.008000   ; qtot -0.035857
 3754         c3    130    bbb     C5   3754 0.11363000  12.010000   ; qtot 0.077773
 3755         hc    130    bbb     H9   3755 0.06265900   1.008000   ; qtot 0.140432
 3756         hc    130    bbb    H10   3756 0.06265900   1.008000   ; qtot 0.203091
 3757         c3    130    bbb     C6   3757 0.11363000  12.010000   ; qtot 0.316721
 3758         hc    130    bbb    H11   3758 0.06265900   1.008000   ; qtot 0.379380
 3759         hc    130    bbb    H12   3759 0.06265900   1.008000   ; qtot 0.442039
 3760         c3    130    bbb     C7   3760 0.05858200  12.010000   ; qtot 0.500621
 3761         h1    130    bbb    H13   3761 0.06123400   1.008000   ; qtot 0.561855
 3762         h1    130    bbb    H14   3762 0.06123400   1.008000   ; qtot 0.623089
 3763         c3    130    bbb     C8   3763 -0.72423400  12.010000   ; qtot -0.101145
 3764         h1    130    bbb    H15   3764 0.25637600   1.008000   ; qtot 0.155231
 3765         h1    130    bbb    H16   3765 0.25637600   1.008000   ; qtot 0.411607
 3766         c3    130    bbb     C9   3766 -0.72423400  12.010000   ; qtot -0.312627
 3767         h1    130    bbb    H17   3767 0.25637600   1.008000   ; qtot -0.056251
 3768         h1    130    bbb    H18   3768 0.25637600   1.008000   ; qtot 0.200125
 3769         os    130    bbb     O1   3769 -0.20025300  16.000000   ; qtot -0.000128
; residue  131 bbb rtp bbb q -0.0
 3770         n3    131    bbb     N1   3770 -0.59685800  14.010000   ; qtot -0.596986
 3771         c3    131    bbb     C1   3771 0.10137000  12.010000   ; qtot -0.495616
 3772         h1    131    bbb     H1   3772 0.04411300   1.008000   ; qtot -0.451503
 3773         h1    131    bbb     H2   3773 0.04411300   1.008000   ; qtot -0.407390
 3774         c3    131    bbb     C2   3774 0.10137000  12.010000   ; qtot -0.306020
 3775         h1    131    bbb     H3   3775 0.04411300   1.008000   ; qtot -0.261907
 3776         h1    131    bbb     H4   3776 0.04411300   1.008000   ; qtot -0.217794
 3777         c3    131    bbb     C3   3777 -0.00195300  12.010000   ; qtot -0.219747
 3778         h1    131    bbb     H5   3778 0.05064400   1.008000   ; qtot -0.169103
 3779         h1    131    bbb     H6   3779 0.05064400   1.008000   ; qtot -0.118459
 3780         c3    131    bbb     C4   3780 -0.01612100  12.010000   ; qtot -0.134580
 3781         hc    131    bbb     H7   3781 0.04936100   1.008000   ; qtot -0.085219
 3782         hc    131    bbb     H8   3782 0.04936100   1.008000   ; qtot -0.035858
 3783         c3    131    bbb     C5   3783 0.11363000  12.010000   ; qtot 0.077772
 3784         hc    131    bbb     H9   3784 0.06265900   1.008000   ; qtot 0.140431
 3785         hc    131    bbb    H10   3785 0.06265900   1.008000   ; qtot 0.203090
 3786         c3    131    bbb     C6   3786 0.11363000  12.010000   ; qtot 0.316720
 3787         hc    131    bbb    H11   3787 0.06265900   1.008000   ; qtot 0.379379
 3788         hc    131    bbb    H12   3788 0.06265900   1.008000   ; qtot 0.442038
 3789         c3    131    bbb     C7   3789 0.05858200  12.010000   ; qtot 0.500620
 3790         h1    131    bbb    H13   3790 0.06123400   1.008000   ; qtot 0.561854
 3791         h1    131    bbb    H14   3791 0.06123400   1.008000   ; qtot 0.623088
 3792         c3    131    bbb     C8   3792 -0.72423400  12.010000   ; qtot -0.101146
 3793         h1    131    bbb    H15   3793 0.25637600   1.008000   ; qtot 0.155230
 3794         h1    131    bbb    H16   3794 0.25637600   1.008000   ; qtot 0.411606
 3795         c3    131    bbb     C9   3795 -0.72423400  12.010000   ; qtot -0.312628
 3796         h1    131    bbb    H17   3796 0.25637600   1.008000   ; qtot -0.056252
 3797         h1    131    bbb    H18   3797 0.25637600   1.008000   ; qtot 0.200124
 3798         os    131    bbb     O1   3798 -0.20025300  16.000000   ; qtot -0.000129
; residue  132 bbb rtp bbb q -0.0
 3799         n3    132    bbb     N1   3799 -0.59685800  14.010000   ; qtot -0.596987
 3800         c3    132    bbb     C1   3800 0.10137000  12.010000   ; qtot -0.495617
 3801         h1    132    bbb     H1   3801 0.04411300   1.008000   ; qtot -0.451504
 3802         h1    132    bbb     H2   3802 0.04411300   1.008000   ; qtot -0.407391
 3803         c3    132    bbb     C2   3803 0.10137000  12.010000   ; qtot -0.306021
 3804         h1    132    bbb     H3   3804 0.04411300   1.008000   ; qtot -0.261908
 3805         h1    132    bbb     H4   3805 0.04411300   1.008000   ; qtot -0.217795
 3806         c3    132    bbb     C3   3806 -0.00195300  12.010000   ; qtot -0.219748
 3807         h1    132    bbb     H5   3807 0.05064400   1.008000   ; qtot -0.169104
 3808         h1    132    bbb     H6   3808 0.05064400   1.008000   ; qtot -0.118460
 3809         c3    132    bbb     C4   3809 -0.01612100  12.010000   ; qtot -0.134581
 3810         hc    132    bbb     H7   3810 0.04936100   1.008000   ; qtot -0.085220
 3811         hc    132    bbb     H8   3811 0.04936100   1.008000   ; qtot -0.035859
 3812         c3    132    bbb     C5   3812 0.11363000  12.010000   ; qtot 0.077771
 3813         hc    132    bbb     H9   3813 0.06265900   1.008000   ; qtot 0.140430
 3814         hc    132    bbb    H10   3814 0.06265900   1.008000   ; qtot 0.203089
 3815         c3    132    bbb     C6   3815 0.11363000  12.010000   ; qtot 0.316719
 3816         hc    132    bbb    H11   3816 0.06265900   1.008000   ; qtot 0.379378
 3817         hc    132    bbb    H12   3817 0.06265900   1.008000   ; qtot 0.442037
 3818         c3    132    bbb     C7   3818 0.05858200  12.010000   ; qtot 0.500619
 3819         h1    132    bbb    H13   3819 0.06123400   1.008000   ; qtot 0.561853
 3820         h1    132    bbb    H14   3820 0.06123400   1.008000   ; qtot 0.623087
 3821         c3    132    bbb     C8   3821 -0.72423400  12.010000   ; qtot -0.101147
 3822         h1    132    bbb    H15   3822 0.25637600   1.008000   ; qtot 0.155229
 3823         h1    132    bbb    H16   3823 0.25637600   1.008000   ; qtot 0.411605
 3824         c3    132    bbb     C9   3824 -0.72423400  12.010000   ; qtot -0.312629
 3825         h1    132    bbb    H17   3825 0.25637600   1.008000   ; qtot -0.056253
 3826         h1    132    bbb    H18   3826 0.25637600   1.008000   ; qtot 0.200123
 3827         os    132    bbb     O1   3827 -0.20025300  16.000000   ; qtot -0.000130
; residue  133 bbb rtp bbb q -0.0
 3828         n3    133    bbb     N1   3828 -0.59685800  14.010000   ; qtot -0.596988
 3829         c3    133    bbb     C1   3829 0.10137000  12.010000   ; qtot -0.495618
 3830         h1    133    bbb     H1   3830 0.04411300   1.008000   ; qtot -0.451505
 3831         h1    133    bbb     H2   3831 0.04411300   1.008000   ; qtot -0.407392
 3832         c3    133    bbb     C2   3832 0.10137000  12.010000   ; qtot -0.306022
 3833         h1    133    bbb     H3   3833 0.04411300   1.008000   ; qtot -0.261909
 3834         h1    133    bbb     H4   3834 0.04411300   1.008000   ; qtot -0.217796
 3835         c3    133    bbb     C3   3835 -0.00195300  12.010000   ; qtot -0.219749
 3836         h1    133    bbb     H5   3836 0.05064400   1.008000   ; qtot -0.169105
 3837         h1    133    bbb     H6   3837 0.05064400   1.008000   ; qtot -0.118461
 3838         c3    133    bbb     C4   3838 -0.01612100  12.010000   ; qtot -0.134582
 3839         hc    133    bbb     H7   3839 0.04936100   1.008000   ; qtot -0.085221
 3840         hc    133    bbb     H8   3840 0.04936100   1.008000   ; qtot -0.035860
 3841         c3    133    bbb     C5   3841 0.11363000  12.010000   ; qtot 0.077770
 3842         hc    133    bbb     H9   3842 0.06265900   1.008000   ; qtot 0.140429
 3843         hc    133    bbb    H10   3843 0.06265900   1.008000   ; qtot 0.203088
 3844         c3    133    bbb     C6   3844 0.11363000  12.010000   ; qtot 0.316718
 3845         hc    133    bbb    H11   3845 0.06265900   1.008000   ; qtot 0.379377
 3846         hc    133    bbb    H12   3846 0.06265900   1.008000   ; qtot 0.442036
 3847         c3    133    bbb     C7   3847 0.05858200  12.010000   ; qtot 0.500618
 3848         h1    133    bbb    H13   3848 0.06123400   1.008000   ; qtot 0.561852
 3849         h1    133    bbb    H14   3849 0.06123400   1.008000   ; qtot 0.623086
 3850         c3    133    bbb     C8   3850 -0.72423400  12.010000   ; qtot -0.101148
 3851         h1    133    bbb    H15   3851 0.25637600   1.008000   ; qtot 0.155228
 3852         h1    133    bbb    H16   3852 0.25637600   1.008000   ; qtot 0.411604
 3853         c3    133    bbb     C9   3853 -0.72423400  12.010000   ; qtot -0.312630
 3854         h1    133    bbb    H17   3854 0.25637600   1.008000   ; qtot -0.056254
 3855         h1    133    bbb    H18   3855 0.25637600   1.008000   ; qtot 0.200122
 3856         os    133    bbb     O1   3856 -0.20025300  16.000000   ; qtot -0.000131
; residue  134 bbb rtp bbb q -0.0
 3857         n3    134    bbb     N1   3857 -0.59685800  14.010000   ; qtot -0.596989
 3858         c3    134    bbb     C1   3858 0.10137000  12.010000   ; qtot -0.495619
 3859         h1    134    bbb     H1   3859 0.04411300   1.008000   ; qtot -0.451506
 3860         h1    134    bbb     H2   3860 0.04411300   1.008000   ; qtot -0.407393
 3861         c3    134    bbb     C2   3861 0.10137000  12.010000   ; qtot -0.306023
 3862         h1    134    bbb     H3   3862 0.04411300   1.008000   ; qtot -0.261910
 3863         h1    134    bbb     H4   3863 0.04411300   1.008000   ; qtot -0.217797
 3864         c3    134    bbb     C3   3864 -0.00195300  12.010000   ; qtot -0.219750
 3865         h1    134    bbb     H5   3865 0.05064400   1.008000   ; qtot -0.169106
 3866         h1    134    bbb     H6   3866 0.05064400   1.008000   ; qtot -0.118462
 3867         c3    134    bbb     C4   3867 -0.01612100  12.010000   ; qtot -0.134583
 3868         hc    134    bbb     H7   3868 0.04936100   1.008000   ; qtot -0.085222
 3869         hc    134    bbb     H8   3869 0.04936100   1.008000   ; qtot -0.035861
 3870         c3    134    bbb     C5   3870 0.11363000  12.010000   ; qtot 0.077769
 3871         hc    134    bbb     H9   3871 0.06265900   1.008000   ; qtot 0.140428
 3872         hc    134    bbb    H10   3872 0.06265900   1.008000   ; qtot 0.203087
 3873         c3    134    bbb     C6   3873 0.11363000  12.010000   ; qtot 0.316717
 3874         hc    134    bbb    H11   3874 0.06265900   1.008000   ; qtot 0.379376
 3875         hc    134    bbb    H12   3875 0.06265900   1.008000   ; qtot 0.442035
 3876         c3    134    bbb     C7   3876 0.05858200  12.010000   ; qtot 0.500617
 3877         h1    134    bbb    H13   3877 0.06123400   1.008000   ; qtot 0.561851
 3878         h1    134    bbb    H14   3878 0.06123400   1.008000   ; qtot 0.623085
 3879         c3    134    bbb     C8   3879 -0.72423400  12.010000   ; qtot -0.101149
 3880         h1    134    bbb    H15   3880 0.25637600   1.008000   ; qtot 0.155227
 3881         h1    134    bbb    H16   3881 0.25637600   1.008000   ; qtot 0.411603
 3882         c3    134    bbb     C9   3882 -0.72423400  12.010000   ; qtot -0.312631
 3883         h1    134    bbb    H17   3883 0.25637600   1.008000   ; qtot -0.056255
 3884         h1    134    bbb    H18   3884 0.25637600   1.008000   ; qtot 0.200121
 3885         os    134    bbb     O1   3885 -0.20025300  16.000000   ; qtot -0.000132
; residue  135 bbb rtp bbb q -0.0
 3886         n3    135    bbb     N1   3886 -0.59685800  14.010000   ; qtot -0.596990
 3887         c3    135    bbb     C1   3887 0.10137000  12.010000   ; qtot -0.495620
 3888         h1    135    bbb     H1   3888 0.04411300   1.008000   ; qtot -0.451507
 3889         h1    135    bbb     H2   3889 0.04411300   1.008000   ; qtot -0.407394
 3890         c3    135    bbb     C2   3890 0.10137000  12.010000   ; qtot -0.306024
 3891         h1    135    bbb     H3   3891 0.04411300   1.008000   ; qtot -0.261911
 3892         h1    135    bbb     H4   3892 0.04411300   1.008000   ; qtot -0.217798
 3893         c3    135    bbb     C3   3893 -0.00195300  12.010000   ; qtot -0.219751
 3894         h1    135    bbb     H5   3894 0.05064400   1.008000   ; qtot -0.169107
 3895         h1    135    bbb     H6   3895 0.05064400   1.008000   ; qtot -0.118463
 3896         c3    135    bbb     C4   3896 -0.01612100  12.010000   ; qtot -0.134584
 3897         hc    135    bbb     H7   3897 0.04936100   1.008000   ; qtot -0.085223
 3898         hc    135    bbb     H8   3898 0.04936100   1.008000   ; qtot -0.035862
 3899         c3    135    bbb     C5   3899 0.11363000  12.010000   ; qtot 0.077768
 3900         hc    135    bbb     H9   3900 0.06265900   1.008000   ; qtot 0.140427
 3901         hc    135    bbb    H10   3901 0.06265900   1.008000   ; qtot 0.203086
 3902         c3    135    bbb     C6   3902 0.11363000  12.010000   ; qtot 0.316716
 3903         hc    135    bbb    H11   3903 0.06265900   1.008000   ; qtot 0.379375
 3904         hc    135    bbb    H12   3904 0.06265900   1.008000   ; qtot 0.442034
 3905         c3    135    bbb     C7   3905 0.05858200  12.010000   ; qtot 0.500616
 3906         h1    135    bbb    H13   3906 0.06123400   1.008000   ; qtot 0.561850
 3907         h1    135    bbb    H14   3907 0.06123400   1.008000   ; qtot 0.623084
 3908         c3    135    bbb     C8   3908 -0.72423400  12.010000   ; qtot -0.101150
 3909         h1    135    bbb    H15   3909 0.25637600   1.008000   ; qtot 0.155226
 3910         h1    135    bbb    H16   3910 0.25637600   1.008000   ; qtot 0.411602
 3911         c3    135    bbb     C9   3911 -0.72423400  12.010000   ; qtot -0.312632
 3912         h1    135    bbb    H17   3912 0.25637600   1.008000   ; qtot -0.056256
 3913         h1    135    bbb    H18   3913 0.25637600   1.008000   ; qtot 0.200120
 3914         os    135    bbb     O1   3914 -0.20025300  16.000000   ; qtot -0.000133
; residue  136 bbb rtp bbb q -0.0
 3915         n3    136    bbb     N1   3915 -0.59685800  14.010000   ; qtot -0.596991
 3916         c3    136    bbb     C1   3916 0.10137000  12.010000   ; qtot -0.495621
 3917         h1    136    bbb     H1   3917 0.04411300   1.008000   ; qtot -0.451508
 3918         h1    136    bbb     H2   3918 0.04411300   1.008000   ; qtot -0.407395
 3919         c3    136    bbb     C2   3919 0.10137000  12.010000   ; qtot -0.306025
 3920         h1    136    bbb     H3   3920 0.04411300   1.008000   ; qtot -0.261912
 3921         h1    136    bbb     H4   3921 0.04411300   1.008000   ; qtot -0.217799
 3922         c3    136    bbb     C3   3922 -0.00195300  12.010000   ; qtot -0.219752
 3923         h1    136    bbb     H5   3923 0.05064400   1.008000   ; qtot -0.169108
 3924         h1    136    bbb     H6   3924 0.05064400   1.008000   ; qtot -0.118464
 3925         c3    136    bbb     C4   3925 -0.01612100  12.010000   ; qtot -0.134585
 3926         hc    136    bbb     H7   3926 0.04936100   1.008000   ; qtot -0.085224
 3927         hc    136    bbb     H8   3927 0.04936100   1.008000   ; qtot -0.035863
 3928         c3    136    bbb     C5   3928 0.11363000  12.010000   ; qtot 0.077767
 3929         hc    136    bbb     H9   3929 0.06265900   1.008000   ; qtot 0.140426
 3930         hc    136    bbb    H10   3930 0.06265900   1.008000   ; qtot 0.203085
 3931         c3    136    bbb     C6   3931 0.11363000  12.010000   ; qtot 0.316715
 3932         hc    136    bbb    H11   3932 0.06265900   1.008000   ; qtot 0.379374
 3933         hc    136    bbb    H12   3933 0.06265900   1.008000   ; qtot 0.442033
 3934         c3    136    bbb     C7   3934 0.05858200  12.010000   ; qtot 0.500615
 3935         h1    136    bbb    H13   3935 0.06123400   1.008000   ; qtot 0.561849
 3936         h1    136    bbb    H14   3936 0.06123400   1.008000   ; qtot 0.623083
 3937         c3    136    bbb     C8   3937 -0.72423400  12.010000   ; qtot -0.101151
 3938         h1    136    bbb    H15   3938 0.25637600   1.008000   ; qtot 0.155225
 3939         h1    136    bbb    H16   3939 0.25637600   1.008000   ; qtot 0.411601
 3940         c3    136    bbb     C9   3940 -0.72423400  12.010000   ; qtot -0.312633
 3941         h1    136    bbb    H17   3941 0.25637600   1.008000   ; qtot -0.056257
 3942         h1    136    bbb    H18   3942 0.25637600   1.008000   ; qtot 0.200119
 3943         os    136    bbb     O1   3943 -0.20025300  16.000000   ; qtot -0.000134
; residue  137 bbb rtp bbb q -0.0
 3944         n3    137    bbb     N1   3944 -0.59685800  14.010000   ; qtot -0.596992
 3945         c3    137    bbb     C1   3945 0.10137000  12.010000   ; qtot -0.495622
 3946         h1    137    bbb     H1   3946 0.04411300   1.008000   ; qtot -0.451509
 3947         h1    137    bbb     H2   3947 0.04411300   1.008000   ; qtot -0.407396
 3948         c3    137    bbb     C2   3948 0.10137000  12.010000   ; qtot -0.306026
 3949         h1    137    bbb     H3   3949 0.04411300   1.008000   ; qtot -0.261913
 3950         h1    137    bbb     H4   3950 0.04411300   1.008000   ; qtot -0.217800
 3951         c3    137    bbb     C3   3951 -0.00195300  12.010000   ; qtot -0.219753
 3952         h1    137    bbb     H5   3952 0.05064400   1.008000   ; qtot -0.169109
 3953         h1    137    bbb     H6   3953 0.05064400   1.008000   ; qtot -0.118465
 3954         c3    137    bbb     C4   3954 -0.01612100  12.010000   ; qtot -0.134586
 3955         hc    137    bbb     H7   3955 0.04936100   1.008000   ; qtot -0.085225
 3956         hc    137    bbb     H8   3956 0.04936100   1.008000   ; qtot -0.035864
 3957         c3    137    bbb     C5   3957 0.11363000  12.010000   ; qtot 0.077766
 3958         hc    137    bbb     H9   3958 0.06265900   1.008000   ; qtot 0.140425
 3959         hc    137    bbb    H10   3959 0.06265900   1.008000   ; qtot 0.203084
 3960         c3    137    bbb     C6   3960 0.11363000  12.010000   ; qtot 0.316714
 3961         hc    137    bbb    H11   3961 0.06265900   1.008000   ; qtot 0.379373
 3962         hc    137    bbb    H12   3962 0.06265900   1.008000   ; qtot 0.442032
 3963         c3    137    bbb     C7   3963 0.05858200  12.010000   ; qtot 0.500614
 3964         h1    137    bbb    H13   3964 0.06123400   1.008000   ; qtot 0.561848
 3965         h1    137    bbb    H14   3965 0.06123400   1.008000   ; qtot 0.623082
 3966         c3    137    bbb     C8   3966 -0.72423400  12.010000   ; qtot -0.101152
 3967         h1    137    bbb    H15   3967 0.25637600   1.008000   ; qtot 0.155224
 3968         h1    137    bbb    H16   3968 0.25637600   1.008000   ; qtot 0.411600
 3969         c3    137    bbb     C9   3969 -0.72423400  12.010000   ; qtot -0.312634
 3970         h1    137    bbb    H17   3970 0.25637600   1.008000   ; qtot -0.056258
 3971         h1    137    bbb    H18   3971 0.25637600   1.008000   ; qtot 0.200118
 3972         os    137    bbb     O1   3972 -0.20025300  16.000000   ; qtot -0.000135
; residue  138 bbb rtp bbb q -0.0
 3973         n3    138    bbb     N1   3973 -0.59685800  14.010000   ; qtot -0.596993
 3974         c3    138    bbb     C1   3974 0.10137000  12.010000   ; qtot -0.495623
 3975         h1    138    bbb     H1   3975 0.04411300   1.008000   ; qtot -0.451510
 3976         h1    138    bbb     H2   3976 0.04411300   1.008000   ; qtot -0.407397
 3977         c3    138    bbb     C2   3977 0.10137000  12.010000   ; qtot -0.306027
 3978         h1    138    bbb     H3   3978 0.04411300   1.008000   ; qtot -0.261914
 3979         h1    138    bbb     H4   3979 0.04411300   1.008000   ; qtot -0.217801
 3980         c3    138    bbb     C3   3980 -0.00195300  12.010000   ; qtot -0.219754
 3981         h1    138    bbb     H5   3981 0.05064400   1.008000   ; qtot -0.169110
 3982         h1    138    bbb     H6   3982 0.05064400   1.008000   ; qtot -0.118466
 3983         c3    138    bbb     C4   3983 -0.01612100  12.010000   ; qtot -0.134587
 3984         hc    138    bbb     H7   3984 0.04936100   1.008000   ; qtot -0.085226
 3985         hc    138    bbb     H8   3985 0.04936100   1.008000   ; qtot -0.035865
 3986         c3    138    bbb     C5   3986 0.11363000  12.010000   ; qtot 0.077765
 3987         hc    138    bbb     H9   3987 0.06265900   1.008000   ; qtot 0.140424
 3988         hc    138    bbb    H10   3988 0.06265900   1.008000   ; qtot 0.203083
 3989         c3    138    bbb     C6   3989 0.11363000  12.010000   ; qtot 0.316713
 3990         hc    138    bbb    H11   3990 0.06265900   1.008000   ; qtot 0.379372
 3991         hc    138    bbb    H12   3991 0.06265900   1.008000   ; qtot 0.442031
 3992         c3    138    bbb     C7   3992 0.05858200  12.010000   ; qtot 0.500613
 3993         h1    138    bbb    H13   3993 0.06123400   1.008000   ; qtot 0.561847
 3994         h1    138    bbb    H14   3994 0.06123400   1.008000   ; qtot 0.623081
 3995         c3    138    bbb     C8   3995 -0.72423400  12.010000   ; qtot -0.101153
 3996         h1    138    bbb    H15   3996 0.25637600   1.008000   ; qtot 0.155223
 3997         h1    138    bbb    H16   3997 0.25637600   1.008000   ; qtot 0.411599
 3998         c3    138    bbb     C9   3998 -0.72423400  12.010000   ; qtot -0.312635
 3999         h1    138    bbb    H17   3999 0.25637600   1.008000   ; qtot -0.056259
 4000         h1    138    bbb    H18   4000 0.25637600   1.008000   ; qtot 0.200117
 4001         os    138    bbb     O1   4001 -0.20025300  16.000000   ; qtot -0.000136
; residue  139 bbb rtp bbb q -0.0
 4002         n3    139    bbb     N1   4002 -0.59685800  14.010000   ; qtot -0.596994
 4003         c3    139    bbb     C1   4003 0.10137000  12.010000   ; qtot -0.495624
 4004         h1    139    bbb     H1   4004 0.04411300   1.008000   ; qtot -0.451511
 4005         h1    139    bbb     H2   4005 0.04411300   1.008000   ; qtot -0.407398
 4006         c3    139    bbb     C2   4006 0.10137000  12.010000   ; qtot -0.306028
 4007         h1    139    bbb     H3   4007 0.04411300   1.008000   ; qtot -0.261915
 4008         h1    139    bbb     H4   4008 0.04411300   1.008000   ; qtot -0.217802
 4009         c3    139    bbb     C3   4009 -0.00195300  12.010000   ; qtot -0.219755
 4010         h1    139    bbb     H5   4010 0.05064400   1.008000   ; qtot -0.169111
 4011         h1    139    bbb     H6   4011 0.05064400   1.008000   ; qtot -0.118467
 4012         c3    139    bbb     C4   4012 -0.01612100  12.010000   ; qtot -0.134588
 4013         hc    139    bbb     H7   4013 0.04936100   1.008000   ; qtot -0.085227
 4014         hc    139    bbb     H8   4014 0.04936100   1.008000   ; qtot -0.035866
 4015         c3    139    bbb     C5   4015 0.11363000  12.010000   ; qtot 0.077764
 4016         hc    139    bbb     H9   4016 0.06265900   1.008000   ; qtot 0.140423
 4017         hc    139    bbb    H10   4017 0.06265900   1.008000   ; qtot 0.203082
 4018         c3    139    bbb     C6   4018 0.11363000  12.010000   ; qtot 0.316712
 4019         hc    139    bbb    H11   4019 0.06265900   1.008000   ; qtot 0.379371
 4020         hc    139    bbb    H12   4020 0.06265900   1.008000   ; qtot 0.442030
 4021         c3    139    bbb     C7   4021 0.05858200  12.010000   ; qtot 0.500612
 4022         h1    139    bbb    H13   4022 0.06123400   1.008000   ; qtot 0.561846
 4023         h1    139    bbb    H14   4023 0.06123400   1.008000   ; qtot 0.623080
 4024         c3    139    bbb     C8   4024 -0.72423400  12.010000   ; qtot -0.101154
 4025         h1    139    bbb    H15   4025 0.25637600   1.008000   ; qtot 0.155222
 4026         h1    139    bbb    H16   4026 0.25637600   1.008000   ; qtot 0.411598
 4027         c3    139    bbb     C9   4027 -0.72423400  12.010000   ; qtot -0.312636
 4028         h1    139    bbb    H17   4028 0.25637600   1.008000   ; qtot -0.056260
 4029         h1    139    bbb    H18   4029 0.25637600   1.008000   ; qtot 0.200116
 4030         os    139    bbb     O1   4030 -0.20025300  16.000000   ; qtot -0.000137
; residue  140 bbb rtp bbb q -0.0
 4031         n3    140    bbb     N1   4031 -0.59685800  14.010000   ; qtot -0.596995
 4032         c3    140    bbb     C1   4032 0.10137000  12.010000   ; qtot -0.495625
 4033         h1    140    bbb     H1   4033 0.04411300   1.008000   ; qtot -0.451512
 4034         h1    140    bbb     H2   4034 0.04411300   1.008000   ; qtot -0.407399
 4035         c3    140    bbb     C2   4035 0.10137000  12.010000   ; qtot -0.306029
 4036         h1    140    bbb     H3   4036 0.04411300   1.008000   ; qtot -0.261916
 4037         h1    140    bbb     H4   4037 0.04411300   1.008000   ; qtot -0.217803
 4038         c3    140    bbb     C3   4038 -0.00195300  12.010000   ; qtot -0.219756
 4039         h1    140    bbb     H5   4039 0.05064400   1.008000   ; qtot -0.169112
 4040         h1    140    bbb     H6   4040 0.05064400   1.008000   ; qtot -0.118468
 4041         c3    140    bbb     C4   4041 -0.01612100  12.010000   ; qtot -0.134589
 4042         hc    140    bbb     H7   4042 0.04936100   1.008000   ; qtot -0.085228
 4043         hc    140    bbb     H8   4043 0.04936100   1.008000   ; qtot -0.035867
 4044         c3    140    bbb     C5   4044 0.11363000  12.010000   ; qtot 0.077763
 4045         hc    140    bbb     H9   4045 0.06265900   1.008000   ; qtot 0.140422
 4046         hc    140    bbb    H10   4046 0.06265900   1.008000   ; qtot 0.203081
 4047         c3    140    bbb     C6   4047 0.11363000  12.010000   ; qtot 0.316711
 4048         hc    140    bbb    H11   4048 0.06265900   1.008000   ; qtot 0.379370
 4049         hc    140    bbb    H12   4049 0.06265900   1.008000   ; qtot 0.442029
 4050         c3    140    bbb     C7   4050 0.05858200  12.010000   ; qtot 0.500611
 4051         h1    140    bbb    H13   4051 0.06123400   1.008000   ; qtot 0.561845
 4052         h1    140    bbb    H14   4052 0.06123400   1.008000   ; qtot 0.623079
 4053         c3    140    bbb     C8   4053 -0.72423400  12.010000   ; qtot -0.101155
 4054         h1    140    bbb    H15   4054 0.25637600   1.008000   ; qtot 0.155221
 4055         h1    140    bbb    H16   4055 0.25637600   1.008000   ; qtot 0.411597
 4056         c3    140    bbb     C9   4056 -0.72423400  12.010000   ; qtot -0.312637
 4057         h1    140    bbb    H17   4057 0.25637600   1.008000   ; qtot -0.056261
 4058         h1    140    bbb    H18   4058 0.25637600   1.008000   ; qtot 0.200115
 4059         os    140    bbb     O1   4059 -0.20025300  16.000000   ; qtot -0.000138
; residue  141 bbb rtp bbb q -0.0
 4060         n3    141    bbb     N1   4060 -0.59685800  14.010000   ; qtot -0.596996
 4061         c3    141    bbb     C1   4061 0.10137000  12.010000   ; qtot -0.495626
 4062         h1    141    bbb     H1   4062 0.04411300   1.008000   ; qtot -0.451513
 4063         h1    141    bbb     H2   4063 0.04411300   1.008000   ; qtot -0.407400
 4064         c3    141    bbb     C2   4064 0.10137000  12.010000   ; qtot -0.306030
 4065         h1    141    bbb     H3   4065 0.04411300   1.008000   ; qtot -0.261917
 4066         h1    141    bbb     H4   4066 0.04411300   1.008000   ; qtot -0.217804
 4067         c3    141    bbb     C3   4067 -0.00195300  12.010000   ; qtot -0.219757
 4068         h1    141    bbb     H5   4068 0.05064400   1.008000   ; qtot -0.169113
 4069         h1    141    bbb     H6   4069 0.05064400   1.008000   ; qtot -0.118469
 4070         c3    141    bbb     C4   4070 -0.01612100  12.010000   ; qtot -0.134590
 4071         hc    141    bbb     H7   4071 0.04936100   1.008000   ; qtot -0.085229
 4072         hc    141    bbb     H8   4072 0.04936100   1.008000   ; qtot -0.035868
 4073         c3    141    bbb     C5   4073 0.11363000  12.010000   ; qtot 0.077762
 4074         hc    141    bbb     H9   4074 0.06265900   1.008000   ; qtot 0.140421
 4075         hc    141    bbb    H10   4075 0.06265900   1.008000   ; qtot 0.203080
 4076         c3    141    bbb     C6   4076 0.11363000  12.010000   ; qtot 0.316710
 4077         hc    141    bbb    H11   4077 0.06265900   1.008000   ; qtot 0.379369
 4078         hc    141    bbb    H12   4078 0.06265900   1.008000   ; qtot 0.442028
 4079         c3    141    bbb     C7   4079 0.05858200  12.010000   ; qtot 0.500610
 4080         h1    141    bbb    H13   4080 0.06123400   1.008000   ; qtot 0.561844
 4081         h1    141    bbb    H14   4081 0.06123400   1.008000   ; qtot 0.623078
 4082         c3    141    bbb     C8   4082 -0.72423400  12.010000   ; qtot -0.101156
 4083         h1    141    bbb    H15   4083 0.25637600   1.008000   ; qtot 0.155220
 4084         h1    141    bbb    H16   4084 0.25637600   1.008000   ; qtot 0.411596
 4085         c3    141    bbb     C9   4085 -0.72423400  12.010000   ; qtot -0.312638
 4086         h1    141    bbb    H17   4086 0.25637600   1.008000   ; qtot -0.056262
 4087         h1    141    bbb    H18   4087 0.25637600   1.008000   ; qtot 0.200114
 4088         os    141    bbb     O1   4088 -0.20025300  16.000000   ; qtot -0.000139
; residue  142 bbb rtp bbb q -0.0
 4089         n3    142    bbb     N1   4089 -0.59685800  14.010000   ; qtot -0.596997
 4090         c3    142    bbb     C1   4090 0.10137000  12.010000   ; qtot -0.495627
 4091         h1    142    bbb     H1   4091 0.04411300   1.008000   ; qtot -0.451514
 4092         h1    142    bbb     H2   4092 0.04411300   1.008000   ; qtot -0.407401
 4093         c3    142    bbb     C2   4093 0.10137000  12.010000   ; qtot -0.306031
 4094         h1    142    bbb     H3   4094 0.04411300   1.008000   ; qtot -0.261918
 4095         h1    142    bbb     H4   4095 0.04411300   1.008000   ; qtot -0.217805
 4096         c3    142    bbb     C3   4096 -0.00195300  12.010000   ; qtot -0.219758
 4097         h1    142    bbb     H5   4097 0.05064400   1.008000   ; qtot -0.169114
 4098         h1    142    bbb     H6   4098 0.05064400   1.008000   ; qtot -0.118470
 4099         c3    142    bbb     C4   4099 -0.01612100  12.010000   ; qtot -0.134591
 4100         hc    142    bbb     H7   4100 0.04936100   1.008000   ; qtot -0.085230
 4101         hc    142    bbb     H8   4101 0.04936100   1.008000   ; qtot -0.035869
 4102         c3    142    bbb     C5   4102 0.11363000  12.010000   ; qtot 0.077761
 4103         hc    142    bbb     H9   4103 0.06265900   1.008000   ; qtot 0.140420
 4104         hc    142    bbb    H10   4104 0.06265900   1.008000   ; qtot 0.203079
 4105         c3    142    bbb     C6   4105 0.11363000  12.010000   ; qtot 0.316709
 4106         hc    142    bbb    H11   4106 0.06265900   1.008000   ; qtot 0.379368
 4107         hc    142    bbb    H12   4107 0.06265900   1.008000   ; qtot 0.442027
 4108         c3    142    bbb     C7   4108 0.05858200  12.010000   ; qtot 0.500609
 4109         h1    142    bbb    H13   4109 0.06123400   1.008000   ; qtot 0.561843
 4110         h1    142    bbb    H14   4110 0.06123400   1.008000   ; qtot 0.623077
 4111         c3    142    bbb     C8   4111 -0.72423400  12.010000   ; qtot -0.101157
 4112         h1    142    bbb    H15   4112 0.25637600   1.008000   ; qtot 0.155219
 4113         h1    142    bbb    H16   4113 0.25637600   1.008000   ; qtot 0.411595
 4114         c3    142    bbb     C9   4114 -0.72423400  12.010000   ; qtot -0.312639
 4115         h1    142    bbb    H17   4115 0.25637600   1.008000   ; qtot -0.056263
 4116         h1    142    bbb    H18   4116 0.25637600   1.008000   ; qtot 0.200113
 4117         os    142    bbb     O1   4117 -0.20025300  16.000000   ; qtot -0.000140
; residue  143 bbb rtp bbb q -0.0
 4118         n3    143    bbb     N1   4118 -0.59685800  14.010000   ; qtot -0.596998
 4119         c3    143    bbb     C1   4119 0.10137000  12.010000   ; qtot -0.495628
 4120         h1    143    bbb     H1   4120 0.04411300   1.008000   ; qtot -0.451515
 4121         h1    143    bbb     H2   4121 0.04411300   1.008000   ; qtot -0.407402
 4122         c3    143    bbb     C2   4122 0.10137000  12.010000   ; qtot -0.306032
 4123         h1    143    bbb     H3   4123 0.04411300   1.008000   ; qtot -0.261919
 4124         h1    143    bbb     H4   4124 0.04411300   1.008000   ; qtot -0.217806
 4125         c3    143    bbb     C3   4125 -0.00195300  12.010000   ; qtot -0.219759
 4126         h1    143    bbb     H5   4126 0.05064400   1.008000   ; qtot -0.169115
 4127         h1    143    bbb     H6   4127 0.05064400   1.008000   ; qtot -0.118471
 4128         c3    143    bbb     C4   4128 -0.01612100  12.010000   ; qtot -0.134592
 4129         hc    143    bbb     H7   4129 0.04936100   1.008000   ; qtot -0.085231
 4130         hc    143    bbb     H8   4130 0.04936100   1.008000   ; qtot -0.035870
 4131         c3    143    bbb     C5   4131 0.11363000  12.010000   ; qtot 0.077760
 4132         hc    143    bbb     H9   4132 0.06265900   1.008000   ; qtot 0.140419
 4133         hc    143    bbb    H10   4133 0.06265900   1.008000   ; qtot 0.203078
 4134         c3    143    bbb     C6   4134 0.11363000  12.010000   ; qtot 0.316708
 4135         hc    143    bbb    H11   4135 0.06265900   1.008000   ; qtot 0.379367
 4136         hc    143    bbb    H12   4136 0.06265900   1.008000   ; qtot 0.442026
 4137         c3    143    bbb     C7   4137 0.05858200  12.010000   ; qtot 0.500608
 4138         h1    143    bbb    H13   4138 0.06123400   1.008000   ; qtot 0.561842
 4139         h1    143    bbb    H14   4139 0.06123400   1.008000   ; qtot 0.623076
 4140         c3    143    bbb     C8   4140 -0.72423400  12.010000   ; qtot -0.101158
 4141         h1    143    bbb    H15   4141 0.25637600   1.008000   ; qtot 0.155218
 4142         h1    143    bbb    H16   4142 0.25637600   1.008000   ; qtot 0.411594
 4143         c3    143    bbb     C9   4143 -0.72423400  12.010000   ; qtot -0.312640
 4144         h1    143    bbb    H17   4144 0.25637600   1.008000   ; qtot -0.056264
 4145         h1    143    bbb    H18   4145 0.25637600   1.008000   ; qtot 0.200112
 4146         os    143    bbb     O1   4146 -0.20025300  16.000000   ; qtot -0.000141
; residue  144 bbb rtp bbb q -0.0
 4147         n3    144    bbb     N1   4147 -0.59685800  14.010000   ; qtot -0.596999
 4148         c3    144    bbb     C1   4148 0.10137000  12.010000   ; qtot -0.495629
 4149         h1    144    bbb     H1   4149 0.04411300   1.008000   ; qtot -0.451516
 4150         h1    144    bbb     H2   4150 0.04411300   1.008000   ; qtot -0.407403
 4151         c3    144    bbb     C2   4151 0.10137000  12.010000   ; qtot -0.306033
 4152         h1    144    bbb     H3   4152 0.04411300   1.008000   ; qtot -0.261920
 4153         h1    144    bbb     H4   4153 0.04411300   1.008000   ; qtot -0.217807
 4154         c3    144    bbb     C3   4154 -0.00195300  12.010000   ; qtot -0.219760
 4155         h1    144    bbb     H5   4155 0.05064400   1.008000   ; qtot -0.169116
 4156         h1    144    bbb     H6   4156 0.05064400   1.008000   ; qtot -0.118472
 4157         c3    144    bbb     C4   4157 -0.01612100  12.010000   ; qtot -0.134593
 4158         hc    144    bbb     H7   4158 0.04936100   1.008000   ; qtot -0.085232
 4159         hc    144    bbb     H8   4159 0.04936100   1.008000   ; qtot -0.035871
 4160         c3    144    bbb     C5   4160 0.11363000  12.010000   ; qtot 0.077759
 4161         hc    144    bbb     H9   4161 0.06265900   1.008000   ; qtot 0.140418
 4162         hc    144    bbb    H10   4162 0.06265900   1.008000   ; qtot 0.203077
 4163         c3    144    bbb     C6   4163 0.11363000  12.010000   ; qtot 0.316707
 4164         hc    144    bbb    H11   4164 0.06265900   1.008000   ; qtot 0.379366
 4165         hc    144    bbb    H12   4165 0.06265900   1.008000   ; qtot 0.442025
 4166         c3    144    bbb     C7   4166 0.05858200  12.010000   ; qtot 0.500607
 4167         h1    144    bbb    H13   4167 0.06123400   1.008000   ; qtot 0.561841
 4168         h1    144    bbb    H14   4168 0.06123400   1.008000   ; qtot 0.623075
 4169         c3    144    bbb     C8   4169 -0.72423400  12.010000   ; qtot -0.101159
 4170         h1    144    bbb    H15   4170 0.25637600   1.008000   ; qtot 0.155217
 4171         h1    144    bbb    H16   4171 0.25637600   1.008000   ; qtot 0.411593
 4172         c3    144    bbb     C9   4172 -0.72423400  12.010000   ; qtot -0.312641
 4173         h1    144    bbb    H17   4173 0.25637600   1.008000   ; qtot -0.056265
 4174         h1    144    bbb    H18   4174 0.25637600   1.008000   ; qtot 0.200111
 4175         os    144    bbb     O1   4175 -0.20025300  16.000000   ; qtot -0.000142
; residue  145 bbb rtp bbb q -0.0
 4176         n3    145    bbb     N1   4176 -0.59685800  14.010000   ; qtot -0.597000
 4177         c3    145    bbb     C1   4177 0.10137000  12.010000   ; qtot -0.495630
 4178         h1    145    bbb     H1   4178 0.04411300   1.008000   ; qtot -0.451517
 4179         h1    145    bbb     H2   4179 0.04411300   1.008000   ; qtot -0.407404
 4180         c3    145    bbb     C2   4180 0.10137000  12.010000   ; qtot -0.306034
 4181         h1    145    bbb     H3   4181 0.04411300   1.008000   ; qtot -0.261921
 4182         h1    145    bbb     H4   4182 0.04411300   1.008000   ; qtot -0.217808
 4183         c3    145    bbb     C3   4183 -0.00195300  12.010000   ; qtot -0.219761
 4184         h1    145    bbb     H5   4184 0.05064400   1.008000   ; qtot -0.169117
 4185         h1    145    bbb     H6   4185 0.05064400   1.008000   ; qtot -0.118473
 4186         c3    145    bbb     C4   4186 -0.01612100  12.010000   ; qtot -0.134594
 4187         hc    145    bbb     H7   4187 0.04936100   1.008000   ; qtot -0.085233
 4188         hc    145    bbb     H8   4188 0.04936100   1.008000   ; qtot -0.035872
 4189         c3    145    bbb     C5   4189 0.11363000  12.010000   ; qtot 0.077758
 4190         hc    145    bbb     H9   4190 0.06265900   1.008000   ; qtot 0.140417
 4191         hc    145    bbb    H10   4191 0.06265900   1.008000   ; qtot 0.203076
 4192         c3    145    bbb     C6   4192 0.11363000  12.010000   ; qtot 0.316706
 4193         hc    145    bbb    H11   4193 0.06265900   1.008000   ; qtot 0.379365
 4194         hc    145    bbb    H12   4194 0.06265900   1.008000   ; qtot 0.442024
 4195         c3    145    bbb     C7   4195 0.05858200  12.010000   ; qtot 0.500606
 4196         h1    145    bbb    H13   4196 0.06123400   1.008000   ; qtot 0.561840
 4197         h1    145    bbb    H14   4197 0.06123400   1.008000   ; qtot 0.623074
 4198         c3    145    bbb     C8   4198 -0.72423400  12.010000   ; qtot -0.101160
 4199         h1    145    bbb    H15   4199 0.25637600   1.008000   ; qtot 0.155216
 4200         h1    145    bbb    H16   4200 0.25637600   1.008000   ; qtot 0.411592
 4201         c3    145    bbb     C9   4201 -0.72423400  12.010000   ; qtot -0.312642
 4202         h1    145    bbb    H17   4202 0.25637600   1.008000   ; qtot -0.056266
 4203         h1    145    bbb    H18   4203 0.25637600   1.008000   ; qtot 0.200110
 4204         os    145    bbb     O1   4204 -0.20025300  16.000000   ; qtot -0.000143
; residue  146 bbb rtp bbb q -0.0
 4205         n3    146    bbb     N1   4205 -0.59685800  14.010000   ; qtot -0.597001
 4206         c3    146    bbb     C1   4206 0.10137000  12.010000   ; qtot -0.495631
 4207         h1    146    bbb     H1   4207 0.04411300   1.008000   ; qtot -0.451518
 4208         h1    146    bbb     H2   4208 0.04411300   1.008000   ; qtot -0.407405
 4209         c3    146    bbb     C2   4209 0.10137000  12.010000   ; qtot -0.306035
 4210         h1    146    bbb     H3   4210 0.04411300   1.008000   ; qtot -0.261922
 4211         h1    146    bbb     H4   4211 0.04411300   1.008000   ; qtot -0.217809
 4212         c3    146    bbb     C3   4212 -0.00195300  12.010000   ; qtot -0.219762
 4213         h1    146    bbb     H5   4213 0.05064400   1.008000   ; qtot -0.169118
 4214         h1    146    bbb     H6   4214 0.05064400   1.008000   ; qtot -0.118474
 4215         c3    146    bbb     C4   4215 -0.01612100  12.010000   ; qtot -0.134595
 4216         hc    146    bbb     H7   4216 0.04936100   1.008000   ; qtot -0.085234
 4217         hc    146    bbb     H8   4217 0.04936100   1.008000   ; qtot -0.035873
 4218         c3    146    bbb     C5   4218 0.11363000  12.010000   ; qtot 0.077757
 4219         hc    146    bbb     H9   4219 0.06265900   1.008000   ; qtot 0.140416
 4220         hc    146    bbb    H10   4220 0.06265900   1.008000   ; qtot 0.203075
 4221         c3    146    bbb     C6   4221 0.11363000  12.010000   ; qtot 0.316705
 4222         hc    146    bbb    H11   4222 0.06265900   1.008000   ; qtot 0.379364
 4223         hc    146    bbb    H12   4223 0.06265900   1.008000   ; qtot 0.442023
 4224         c3    146    bbb     C7   4224 0.05858200  12.010000   ; qtot 0.500605
 4225         h1    146    bbb    H13   4225 0.06123400   1.008000   ; qtot 0.561839
 4226         h1    146    bbb    H14   4226 0.06123400   1.008000   ; qtot 0.623073
 4227         c3    146    bbb     C8   4227 -0.72423400  12.010000   ; qtot -0.101161
 4228         h1    146    bbb    H15   4228 0.25637600   1.008000   ; qtot 0.155215
 4229         h1    146    bbb    H16   4229 0.25637600   1.008000   ; qtot 0.411591
 4230         c3    146    bbb     C9   4230 -0.72423400  12.010000   ; qtot -0.312643
 4231         h1    146    bbb    H17   4231 0.25637600   1.008000   ; qtot -0.056267
 4232         h1    146    bbb    H18   4232 0.25637600   1.008000   ; qtot 0.200109
 4233         os    146    bbb     O1   4233 -0.20025300  16.000000   ; qtot -0.000144
; residue  147 bbb rtp bbb q -0.0
 4234         n3    147    bbb     N1   4234 -0.59685800  14.010000   ; qtot -0.597002
 4235         c3    147    bbb     C1   4235 0.10137000  12.010000   ; qtot -0.495632
 4236         h1    147    bbb     H1   4236 0.04411300   1.008000   ; qtot -0.451519
 4237         h1    147    bbb     H2   4237 0.04411300   1.008000   ; qtot -0.407406
 4238         c3    147    bbb     C2   4238 0.10137000  12.010000   ; qtot -0.306036
 4239         h1    147    bbb     H3   4239 0.04411300   1.008000   ; qtot -0.261923
 4240         h1    147    bbb     H4   4240 0.04411300   1.008000   ; qtot -0.217810
 4241         c3    147    bbb     C3   4241 -0.00195300  12.010000   ; qtot -0.219763
 4242         h1    147    bbb     H5   4242 0.05064400   1.008000   ; qtot -0.169119
 4243         h1    147    bbb     H6   4243 0.05064400   1.008000   ; qtot -0.118475
 4244         c3    147    bbb     C4   4244 -0.01612100  12.010000   ; qtot -0.134596
 4245         hc    147    bbb     H7   4245 0.04936100   1.008000   ; qtot -0.085235
 4246         hc    147    bbb     H8   4246 0.04936100   1.008000   ; qtot -0.035874
 4247         c3    147    bbb     C5   4247 0.11363000  12.010000   ; qtot 0.077756
 4248         hc    147    bbb     H9   4248 0.06265900   1.008000   ; qtot 0.140415
 4249         hc    147    bbb    H10   4249 0.06265900   1.008000   ; qtot 0.203074
 4250         c3    147    bbb     C6   4250 0.11363000  12.010000   ; qtot 0.316704
 4251         hc    147    bbb    H11   4251 0.06265900   1.008000   ; qtot 0.379363
 4252         hc    147    bbb    H12   4252 0.06265900   1.008000   ; qtot 0.442022
 4253         c3    147    bbb     C7   4253 0.05858200  12.010000   ; qtot 0.500604
 4254         h1    147    bbb    H13   4254 0.06123400   1.008000   ; qtot 0.561838
 4255         h1    147    bbb    H14   4255 0.06123400   1.008000   ; qtot 0.623072
 4256         c3    147    bbb     C8   4256 -0.72423400  12.010000   ; qtot -0.101162
 4257         h1    147    bbb    H15   4257 0.25637600   1.008000   ; qtot 0.155214
 4258         h1    147    bbb    H16   4258 0.25637600   1.008000   ; qtot 0.411590
 4259         c3    147    bbb     C9   4259 -0.72423400  12.010000   ; qtot -0.312644
 4260         h1    147    bbb    H17   4260 0.25637600   1.008000   ; qtot -0.056268
 4261         h1    147    bbb    H18   4261 0.25637600   1.008000   ; qtot 0.200108
 4262         os    147    bbb     O1   4262 -0.20025300  16.000000   ; qtot -0.000145
; residue  148 bbb rtp bbb q -0.0
 4263         n3    148    bbb     N1   4263 -0.59685800  14.010000   ; qtot -0.597003
 4264         c3    148    bbb     C1   4264 0.10137000  12.010000   ; qtot -0.495633
 4265         h1    148    bbb     H1   4265 0.04411300   1.008000   ; qtot -0.451520
 4266         h1    148    bbb     H2   4266 0.04411300   1.008000   ; qtot -0.407407
 4267         c3    148    bbb     C2   4267 0.10137000  12.010000   ; qtot -0.306037
 4268         h1    148    bbb     H3   4268 0.04411300   1.008000   ; qtot -0.261924
 4269         h1    148    bbb     H4   4269 0.04411300   1.008000   ; qtot -0.217811
 4270         c3    148    bbb     C3   4270 -0.00195300  12.010000   ; qtot -0.219764
 4271         h1    148    bbb     H5   4271 0.05064400   1.008000   ; qtot -0.169120
 4272         h1    148    bbb     H6   4272 0.05064400   1.008000   ; qtot -0.118476
 4273         c3    148    bbb     C4   4273 -0.01612100  12.010000   ; qtot -0.134597
 4274         hc    148    bbb     H7   4274 0.04936100   1.008000   ; qtot -0.085236
 4275         hc    148    bbb     H8   4275 0.04936100   1.008000   ; qtot -0.035875
 4276         c3    148    bbb     C5   4276 0.11363000  12.010000   ; qtot 0.077755
 4277         hc    148    bbb     H9   4277 0.06265900   1.008000   ; qtot 0.140414
 4278         hc    148    bbb    H10   4278 0.06265900   1.008000   ; qtot 0.203073
 4279         c3    148    bbb     C6   4279 0.11363000  12.010000   ; qtot 0.316703
 4280         hc    148    bbb    H11   4280 0.06265900   1.008000   ; qtot 0.379362
 4281         hc    148    bbb    H12   4281 0.06265900   1.008000   ; qtot 0.442021
 4282         c3    148    bbb     C7   4282 0.05858200  12.010000   ; qtot 0.500603
 4283         h1    148    bbb    H13   4283 0.06123400   1.008000   ; qtot 0.561837
 4284         h1    148    bbb    H14   4284 0.06123400   1.008000   ; qtot 0.623071
 4285         c3    148    bbb     C8   4285 -0.72423400  12.010000   ; qtot -0.101163
 4286         h1    148    bbb    H15   4286 0.25637600   1.008000   ; qtot 0.155213
 4287         h1    148    bbb    H16   4287 0.25637600   1.008000   ; qtot 0.411589
 4288         c3    148    bbb     C9   4288 -0.72423400  12.010000   ; qtot -0.312645
 4289         h1    148    bbb    H17   4289 0.25637600   1.008000   ; qtot -0.056269
 4290         h1    148    bbb    H18   4290 0.25637600   1.008000   ; qtot 0.200107
 4291         os    148    bbb     O1   4291 -0.20025300  16.000000   ; qtot -0.000146
; residue  149 bbb rtp bbb q -0.0
 4292         n3    149    bbb     N1   4292 -0.59685800  14.010000   ; qtot -0.597004
 4293         c3    149    bbb     C1   4293 0.10137000  12.010000   ; qtot -0.495634
 4294         h1    149    bbb     H1   4294 0.04411300   1.008000   ; qtot -0.451521
 4295         h1    149    bbb     H2   4295 0.04411300   1.008000   ; qtot -0.407408
 4296         c3    149    bbb     C2   4296 0.10137000  12.010000   ; qtot -0.306038
 4297         h1    149    bbb     H3   4297 0.04411300   1.008000   ; qtot -0.261925
 4298         h1    149    bbb     H4   4298 0.04411300   1.008000   ; qtot -0.217812
 4299         c3    149    bbb     C3   4299 -0.00195300  12.010000   ; qtot -0.219765
 4300         h1    149    bbb     H5   4300 0.05064400   1.008000   ; qtot -0.169121
 4301         h1    149    bbb     H6   4301 0.05064400   1.008000   ; qtot -0.118477
 4302         c3    149    bbb     C4   4302 -0.01612100  12.010000   ; qtot -0.134598
 4303         hc    149    bbb     H7   4303 0.04936100   1.008000   ; qtot -0.085237
 4304         hc    149    bbb     H8   4304 0.04936100   1.008000   ; qtot -0.035876
 4305         c3    149    bbb     C5   4305 0.11363000  12.010000   ; qtot 0.077754
 4306         hc    149    bbb     H9   4306 0.06265900   1.008000   ; qtot 0.140413
 4307         hc    149    bbb    H10   4307 0.06265900   1.008000   ; qtot 0.203072
 4308         c3    149    bbb     C6   4308 0.11363000  12.010000   ; qtot 0.316702
 4309         hc    149    bbb    H11   4309 0.06265900   1.008000   ; qtot 0.379361
 4310         hc    149    bbb    H12   4310 0.06265900   1.008000   ; qtot 0.442020
 4311         c3    149    bbb     C7   4311 0.05858200  12.010000   ; qtot 0.500602
 4312         h1    149    bbb    H13   4312 0.06123400   1.008000   ; qtot 0.561836
 4313         h1    149    bbb    H14   4313 0.06123400   1.008000   ; qtot 0.623070
 4314         c3    149    bbb     C8   4314 -0.72423400  12.010000   ; qtot -0.101164
 4315         h1    149    bbb    H15   4315 0.25637600   1.008000   ; qtot 0.155212
 4316         h1    149    bbb    H16   4316 0.25637600   1.008000   ; qtot 0.411588
 4317         c3    149    bbb     C9   4317 -0.72423400  12.010000   ; qtot -0.312646
 4318         h1    149    bbb    H17   4318 0.25637600   1.008000   ; qtot -0.056270
 4319         h1    149    bbb    H18   4319 0.25637600   1.008000   ; qtot 0.200106
 4320         os    149    bbb     O1   4320 -0.20025300  16.000000   ; qtot -0.000147
; residue  150 bbb rtp bbb q -0.0
 4321         n3    150    bbb     N1   4321 -0.59685800  14.010000   ; qtot -0.597005
 4322         c3    150    bbb     C1   4322 0.10137000  12.010000   ; qtot -0.495635
 4323         h1    150    bbb     H1   4323 0.04411300   1.008000   ; qtot -0.451522
 4324         h1    150    bbb     H2   4324 0.04411300   1.008000   ; qtot -0.407409
 4325         c3    150    bbb     C2   4325 0.10137000  12.010000   ; qtot -0.306039
 4326         h1    150    bbb     H3   4326 0.04411300   1.008000   ; qtot -0.261926
 4327         h1    150    bbb     H4   4327 0.04411300   1.008000   ; qtot -0.217813
 4328         c3    150    bbb     C3   4328 -0.00195300  12.010000   ; qtot -0.219766
 4329         h1    150    bbb     H5   4329 0.05064400   1.008000   ; qtot -0.169122
 4330         h1    150    bbb     H6   4330 0.05064400   1.008000   ; qtot -0.118478
 4331         c3    150    bbb     C4   4331 -0.01612100  12.010000   ; qtot -0.134599
 4332         hc    150    bbb     H7   4332 0.04936100   1.008000   ; qtot -0.085238
 4333         hc    150    bbb     H8   4333 0.04936100   1.008000   ; qtot -0.035877
 4334         c3    150    bbb     C5   4334 0.11363000  12.010000   ; qtot 0.077753
 4335         hc    150    bbb     H9   4335 0.06265900   1.008000   ; qtot 0.140412
 4336         hc    150    bbb    H10   4336 0.06265900   1.008000   ; qtot 0.203071
 4337         c3    150    bbb     C6   4337 0.11363000  12.010000   ; qtot 0.316701
 4338         hc    150    bbb    H11   4338 0.06265900   1.008000   ; qtot 0.379360
 4339         hc    150    bbb    H12   4339 0.06265900   1.008000   ; qtot 0.442019
 4340         c3    150    bbb     C7   4340 0.05858200  12.010000   ; qtot 0.500601
 4341         h1    150    bbb    H13   4341 0.06123400   1.008000   ; qtot 0.561835
 4342         h1    150    bbb    H14   4342 0.06123400   1.008000   ; qtot 0.623069
 4343         c3    150    bbb     C8   4343 -0.72423400  12.010000   ; qtot -0.101165
 4344         h1    150    bbb    H15   4344 0.25637600   1.008000   ; qtot 0.155211
 4345         h1    150    bbb    H16   4345 0.25637600   1.008000   ; qtot 0.411587
 4346         c3    150    bbb     C9   4346 -0.72423400  12.010000   ; qtot -0.312647
 4347         h1    150    bbb    H17   4347 0.25637600   1.008000   ; qtot -0.056271
 4348         h1    150    bbb    H18   4348 0.25637600   1.008000   ; qtot 0.200105
 4349         os    150    bbb     O1   4349 -0.20025300  16.000000   ; qtot -0.000148
; residue  151 bbb rtp bbb q -0.0
 4350         n3    151    bbb     N1   4350 -0.59685800  14.010000   ; qtot -0.597006
 4351         c3    151    bbb     C1   4351 0.10137000  12.010000   ; qtot -0.495636
 4352         h1    151    bbb     H1   4352 0.04411300   1.008000   ; qtot -0.451523
 4353         h1    151    bbb     H2   4353 0.04411300   1.008000   ; qtot -0.407410
 4354         c3    151    bbb     C2   4354 0.10137000  12.010000   ; qtot -0.306040
 4355         h1    151    bbb     H3   4355 0.04411300   1.008000   ; qtot -0.261927
 4356         h1    151    bbb     H4   4356 0.04411300   1.008000   ; qtot -0.217814
 4357         c3    151    bbb     C3   4357 -0.00195300  12.010000   ; qtot -0.219767
 4358         h1    151    bbb     H5   4358 0.05064400   1.008000   ; qtot -0.169123
 4359         h1    151    bbb     H6   4359 0.05064400   1.008000   ; qtot -0.118479
 4360         c3    151    bbb     C4   4360 -0.01612100  12.010000   ; qtot -0.134600
 4361         hc    151    bbb     H7   4361 0.04936100   1.008000   ; qtot -0.085239
 4362         hc    151    bbb     H8   4362 0.04936100   1.008000   ; qtot -0.035878
 4363         c3    151    bbb     C5   4363 0.11363000  12.010000   ; qtot 0.077752
 4364         hc    151    bbb     H9   4364 0.06265900   1.008000   ; qtot 0.140411
 4365         hc    151    bbb    H10   4365 0.06265900   1.008000   ; qtot 0.203070
 4366         c3    151    bbb     C6   4366 0.11363000  12.010000   ; qtot 0.316700
 4367         hc    151    bbb    H11   4367 0.06265900   1.008000   ; qtot 0.379359
 4368         hc    151    bbb    H12   4368 0.06265900   1.008000   ; qtot 0.442018
 4369         c3    151    bbb     C7   4369 0.05858200  12.010000   ; qtot 0.500600
 4370         h1    151    bbb    H13   4370 0.06123400   1.008000   ; qtot 0.561834
 4371         h1    151    bbb    H14   4371 0.06123400   1.008000   ; qtot 0.623068
 4372         c3    151    bbb     C8   4372 -0.72423400  12.010000   ; qtot -0.101166
 4373         h1    151    bbb    H15   4373 0.25637600   1.008000   ; qtot 0.155210
 4374         h1    151    bbb    H16   4374 0.25637600   1.008000   ; qtot 0.411586
 4375         c3    151    bbb     C9   4375 -0.72423400  12.010000   ; qtot -0.312648
 4376         h1    151    bbb    H17   4376 0.25637600   1.008000   ; qtot -0.056272
 4377         h1    151    bbb    H18   4377 0.25637600   1.008000   ; qtot 0.200104
 4378         os    151    bbb     O1   4378 -0.20025300  16.000000   ; qtot -0.000149
; residue  152 bbb rtp bbb q -0.0
 4379         n3    152    bbb     N1   4379 -0.59685800  14.010000   ; qtot -0.597007
 4380         c3    152    bbb     C1   4380 0.10137000  12.010000   ; qtot -0.495637
 4381         h1    152    bbb     H1   4381 0.04411300   1.008000   ; qtot -0.451524
 4382         h1    152    bbb     H2   4382 0.04411300   1.008000   ; qtot -0.407411
 4383         c3    152    bbb     C2   4383 0.10137000  12.010000   ; qtot -0.306041
 4384         h1    152    bbb     H3   4384 0.04411300   1.008000   ; qtot -0.261928
 4385         h1    152    bbb     H4   4385 0.04411300   1.008000   ; qtot -0.217815
 4386         c3    152    bbb     C3   4386 -0.00195300  12.010000   ; qtot -0.219768
 4387         h1    152    bbb     H5   4387 0.05064400   1.008000   ; qtot -0.169124
 4388         h1    152    bbb     H6   4388 0.05064400   1.008000   ; qtot -0.118480
 4389         c3    152    bbb     C4   4389 -0.01612100  12.010000   ; qtot -0.134601
 4390         hc    152    bbb     H7   4390 0.04936100   1.008000   ; qtot -0.085240
 4391         hc    152    bbb     H8   4391 0.04936100   1.008000   ; qtot -0.035879
 4392         c3    152    bbb     C5   4392 0.11363000  12.010000   ; qtot 0.077751
 4393         hc    152    bbb     H9   4393 0.06265900   1.008000   ; qtot 0.140410
 4394         hc    152    bbb    H10   4394 0.06265900   1.008000   ; qtot 0.203069
 4395         c3    152    bbb     C6   4395 0.11363000  12.010000   ; qtot 0.316699
 4396         hc    152    bbb    H11   4396 0.06265900   1.008000   ; qtot 0.379358
 4397         hc    152    bbb    H12   4397 0.06265900   1.008000   ; qtot 0.442017
 4398         c3    152    bbb     C7   4398 0.05858200  12.010000   ; qtot 0.500599
 4399         h1    152    bbb    H13   4399 0.06123400   1.008000   ; qtot 0.561833
 4400         h1    152    bbb    H14   4400 0.06123400   1.008000   ; qtot 0.623067
 4401         c3    152    bbb     C8   4401 -0.72423400  12.010000   ; qtot -0.101167
 4402         h1    152    bbb    H15   4402 0.25637600   1.008000   ; qtot 0.155209
 4403         h1    152    bbb    H16   4403 0.25637600   1.008000   ; qtot 0.411585
 4404         c3    152    bbb     C9   4404 -0.72423400  12.010000   ; qtot -0.312649
 4405         h1    152    bbb    H17   4405 0.25637600   1.008000   ; qtot -0.056273
 4406         h1    152    bbb    H18   4406 0.25637600   1.008000   ; qtot 0.200103
 4407         os    152    bbb     O1   4407 -0.20025300  16.000000   ; qtot -0.000150
; residue  153 bbb rtp bbb q -0.0
 4408         n3    153    bbb     N1   4408 -0.59685800  14.010000   ; qtot -0.597008
 4409         c3    153    bbb     C1   4409 0.10137000  12.010000   ; qtot -0.495638
 4410         h1    153    bbb     H1   4410 0.04411300   1.008000   ; qtot -0.451525
 4411         h1    153    bbb     H2   4411 0.04411300   1.008000   ; qtot -0.407412
 4412         c3    153    bbb     C2   4412 0.10137000  12.010000   ; qtot -0.306042
 4413         h1    153    bbb     H3   4413 0.04411300   1.008000   ; qtot -0.261929
 4414         h1    153    bbb     H4   4414 0.04411300   1.008000   ; qtot -0.217816
 4415         c3    153    bbb     C3   4415 -0.00195300  12.010000   ; qtot -0.219769
 4416         h1    153    bbb     H5   4416 0.05064400   1.008000   ; qtot -0.169125
 4417         h1    153    bbb     H6   4417 0.05064400   1.008000   ; qtot -0.118481
 4418         c3    153    bbb     C4   4418 -0.01612100  12.010000   ; qtot -0.134602
 4419         hc    153    bbb     H7   4419 0.04936100   1.008000   ; qtot -0.085241
 4420         hc    153    bbb     H8   4420 0.04936100   1.008000   ; qtot -0.035880
 4421         c3    153    bbb     C5   4421 0.11363000  12.010000   ; qtot 0.077750
 4422         hc    153    bbb     H9   4422 0.06265900   1.008000   ; qtot 0.140409
 4423         hc    153    bbb    H10   4423 0.06265900   1.008000   ; qtot 0.203068
 4424         c3    153    bbb     C6   4424 0.11363000  12.010000   ; qtot 0.316698
 4425         hc    153    bbb    H11   4425 0.06265900   1.008000   ; qtot 0.379357
 4426         hc    153    bbb    H12   4426 0.06265900   1.008000   ; qtot 0.442016
 4427         c3    153    bbb     C7   4427 0.05858200  12.010000   ; qtot 0.500598
 4428         h1    153    bbb    H13   4428 0.06123400   1.008000   ; qtot 0.561832
 4429         h1    153    bbb    H14   4429 0.06123400   1.008000   ; qtot 0.623066
 4430         c3    153    bbb     C8   4430 -0.72423400  12.010000   ; qtot -0.101168
 4431         h1    153    bbb    H15   4431 0.25637600   1.008000   ; qtot 0.155208
 4432         h1    153    bbb    H16   4432 0.25637600   1.008000   ; qtot 0.411584
 4433         c3    153    bbb     C9   4433 -0.72423400  12.010000   ; qtot -0.312650
 4434         h1    153    bbb    H17   4434 0.25637600   1.008000   ; qtot -0.056274
 4435         h1    153    bbb    H18   4435 0.25637600   1.008000   ; qtot 0.200102
 4436         os    153    bbb     O1   4436 -0.20025300  16.000000   ; qtot -0.000151
; residue  154 bbb rtp bbb q -0.0
 4437         n3    154    bbb     N1   4437 -0.59685800  14.010000   ; qtot -0.597009
 4438         c3    154    bbb     C1   4438 0.10137000  12.010000   ; qtot -0.495639
 4439         h1    154    bbb     H1   4439 0.04411300   1.008000   ; qtot -0.451526
 4440         h1    154    bbb     H2   4440 0.04411300   1.008000   ; qtot -0.407413
 4441         c3    154    bbb     C2   4441 0.10137000  12.010000   ; qtot -0.306043
 4442         h1    154    bbb     H3   4442 0.04411300   1.008000   ; qtot -0.261930
 4443         h1    154    bbb     H4   4443 0.04411300   1.008000   ; qtot -0.217817
 4444         c3    154    bbb     C3   4444 -0.00195300  12.010000   ; qtot -0.219770
 4445         h1    154    bbb     H5   4445 0.05064400   1.008000   ; qtot -0.169126
 4446         h1    154    bbb     H6   4446 0.05064400   1.008000   ; qtot -0.118482
 4447         c3    154    bbb     C4   4447 -0.01612100  12.010000   ; qtot -0.134603
 4448         hc    154    bbb     H7   4448 0.04936100   1.008000   ; qtot -0.085242
 4449         hc    154    bbb     H8   4449 0.04936100   1.008000   ; qtot -0.035881
 4450         c3    154    bbb     C5   4450 0.11363000  12.010000   ; qtot 0.077749
 4451         hc    154    bbb     H9   4451 0.06265900   1.008000   ; qtot 0.140408
 4452         hc    154    bbb    H10   4452 0.06265900   1.008000   ; qtot 0.203067
 4453         c3    154    bbb     C6   4453 0.11363000  12.010000   ; qtot 0.316697
 4454         hc    154    bbb    H11   4454 0.06265900   1.008000   ; qtot 0.379356
 4455         hc    154    bbb    H12   4455 0.06265900   1.008000   ; qtot 0.442015
 4456         c3    154    bbb     C7   4456 0.05858200  12.010000   ; qtot 0.500597
 4457         h1    154    bbb    H13   4457 0.06123400   1.008000   ; qtot 0.561831
 4458         h1    154    bbb    H14   4458 0.06123400   1.008000   ; qtot 0.623065
 4459         c3    154    bbb     C8   4459 -0.72423400  12.010000   ; qtot -0.101169
 4460         h1    154    bbb    H15   4460 0.25637600   1.008000   ; qtot 0.155207
 4461         h1    154    bbb    H16   4461 0.25637600   1.008000   ; qtot 0.411583
 4462         c3    154    bbb     C9   4462 -0.72423400  12.010000   ; qtot -0.312651
 4463         h1    154    bbb    H17   4463 0.25637600   1.008000   ; qtot -0.056275
 4464         h1    154    bbb    H18   4464 0.25637600   1.008000   ; qtot 0.200101
 4465         os    154    bbb     O1   4465 -0.20025300  16.000000   ; qtot -0.000152
; residue  155 bbb rtp bbb q -0.0
 4466         n3    155    bbb     N1   4466 -0.59685800  14.010000   ; qtot -0.597010
 4467         c3    155    bbb     C1   4467 0.10137000  12.010000   ; qtot -0.495640
 4468         h1    155    bbb     H1   4468 0.04411300   1.008000   ; qtot -0.451527
 4469         h1    155    bbb     H2   4469 0.04411300   1.008000   ; qtot -0.407414
 4470         c3    155    bbb     C2   4470 0.10137000  12.010000   ; qtot -0.306044
 4471         h1    155    bbb     H3   4471 0.04411300   1.008000   ; qtot -0.261931
 4472         h1    155    bbb     H4   4472 0.04411300   1.008000   ; qtot -0.217818
 4473         c3    155    bbb     C3   4473 -0.00195300  12.010000   ; qtot -0.219771
 4474         h1    155    bbb     H5   4474 0.05064400   1.008000   ; qtot -0.169127
 4475         h1    155    bbb     H6   4475 0.05064400   1.008000   ; qtot -0.118483
 4476         c3    155    bbb     C4   4476 -0.01612100  12.010000   ; qtot -0.134604
 4477         hc    155    bbb     H7   4477 0.04936100   1.008000   ; qtot -0.085243
 4478         hc    155    bbb     H8   4478 0.04936100   1.008000   ; qtot -0.035882
 4479         c3    155    bbb     C5   4479 0.11363000  12.010000   ; qtot 0.077748
 4480         hc    155    bbb     H9   4480 0.06265900   1.008000   ; qtot 0.140407
 4481         hc    155    bbb    H10   4481 0.06265900   1.008000   ; qtot 0.203066
 4482         c3    155    bbb     C6   4482 0.11363000  12.010000   ; qtot 0.316696
 4483         hc    155    bbb    H11   4483 0.06265900   1.008000   ; qtot 0.379355
 4484         hc    155    bbb    H12   4484 0.06265900   1.008000   ; qtot 0.442014
 4485         c3    155    bbb     C7   4485 0.05858200  12.010000   ; qtot 0.500596
 4486         h1    155    bbb    H13   4486 0.06123400   1.008000   ; qtot 0.561830
 4487         h1    155    bbb    H14   4487 0.06123400   1.008000   ; qtot 0.623064
 4488         c3    155    bbb     C8   4488 -0.72423400  12.010000   ; qtot -0.101170
 4489         h1    155    bbb    H15   4489 0.25637600   1.008000   ; qtot 0.155206
 4490         h1    155    bbb    H16   4490 0.25637600   1.008000   ; qtot 0.411582
 4491         c3    155    bbb     C9   4491 -0.72423400  12.010000   ; qtot -0.312652
 4492         h1    155    bbb    H17   4492 0.25637600   1.008000   ; qtot -0.056276
 4493         h1    155    bbb    H18   4493 0.25637600   1.008000   ; qtot 0.200100
 4494         os    155    bbb     O1   4494 -0.20025300  16.000000   ; qtot -0.000153
; residue  156 bbb rtp bbb q -0.0
 4495         n3    156    bbb     N1   4495 -0.59685800  14.010000   ; qtot -0.597011
 4496         c3    156    bbb     C1   4496 0.10137000  12.010000   ; qtot -0.495641
 4497         h1    156    bbb     H1   4497 0.04411300   1.008000   ; qtot -0.451528
 4498         h1    156    bbb     H2   4498 0.04411300   1.008000   ; qtot -0.407415
 4499         c3    156    bbb     C2   4499 0.10137000  12.010000   ; qtot -0.306045
 4500         h1    156    bbb     H3   4500 0.04411300   1.008000   ; qtot -0.261932
 4501         h1    156    bbb     H4   4501 0.04411300   1.008000   ; qtot -0.217819
 4502         c3    156    bbb     C3   4502 -0.00195300  12.010000   ; qtot -0.219772
 4503         h1    156    bbb     H5   4503 0.05064400   1.008000   ; qtot -0.169128
 4504         h1    156    bbb     H6   4504 0.05064400   1.008000   ; qtot -0.118484
 4505         c3    156    bbb     C4   4505 -0.01612100  12.010000   ; qtot -0.134605
 4506         hc    156    bbb     H7   4506 0.04936100   1.008000   ; qtot -0.085244
 4507         hc    156    bbb     H8   4507 0.04936100   1.008000   ; qtot -0.035883
 4508         c3    156    bbb     C5   4508 0.11363000  12.010000   ; qtot 0.077747
 4509         hc    156    bbb     H9   4509 0.06265900   1.008000   ; qtot 0.140406
 4510         hc    156    bbb    H10   4510 0.06265900   1.008000   ; qtot 0.203065
 4511         c3    156    bbb     C6   4511 0.11363000  12.010000   ; qtot 0.316695
 4512         hc    156    bbb    H11   4512 0.06265900   1.008000   ; qtot 0.379354
 4513         hc    156    bbb    H12   4513 0.06265900   1.008000   ; qtot 0.442013
 4514         c3    156    bbb     C7   4514 0.05858200  12.010000   ; qtot 0.500595
 4515         h1    156    bbb    H13   4515 0.06123400   1.008000   ; qtot 0.561829
 4516         h1    156    bbb    H14   4516 0.06123400   1.008000   ; qtot 0.623063
 4517         c3    156    bbb     C8   4517 -0.72423400  12.010000   ; qtot -0.101171
 4518         h1    156    bbb    H15   4518 0.25637600   1.008000   ; qtot 0.155205
 4519         h1    156    bbb    H16   4519 0.25637600   1.008000   ; qtot 0.411581
 4520         c3    156    bbb     C9   4520 -0.72423400  12.010000   ; qtot -0.312653
 4521         h1    156    bbb    H17   4521 0.25637600   1.008000   ; qtot -0.056277
 4522         h1    156    bbb    H18   4522 0.25637600   1.008000   ; qtot 0.200099
 4523         os    156    bbb     O1   4523 -0.20025300  16.000000   ; qtot -0.000154
; residue  157 bbb rtp bbb q -0.0
 4524         n3    157    bbb     N1   4524 -0.59685800  14.010000   ; qtot -0.597012
 4525         c3    157    bbb     C1   4525 0.10137000  12.010000   ; qtot -0.495642
 4526         h1    157    bbb     H1   4526 0.04411300   1.008000   ; qtot -0.451529
 4527         h1    157    bbb     H2   4527 0.04411300   1.008000   ; qtot -0.407416
 4528         c3    157    bbb     C2   4528 0.10137000  12.010000   ; qtot -0.306046
 4529         h1    157    bbb     H3   4529 0.04411300   1.008000   ; qtot -0.261933
 4530         h1    157    bbb     H4   4530 0.04411300   1.008000   ; qtot -0.217820
 4531         c3    157    bbb     C3   4531 -0.00195300  12.010000   ; qtot -0.219773
 4532         h1    157    bbb     H5   4532 0.05064400   1.008000   ; qtot -0.169129
 4533         h1    157    bbb     H6   4533 0.05064400   1.008000   ; qtot -0.118485
 4534         c3    157    bbb     C4   4534 -0.01612100  12.010000   ; qtot -0.134606
 4535         hc    157    bbb     H7   4535 0.04936100   1.008000   ; qtot -0.085245
 4536         hc    157    bbb     H8   4536 0.04936100   1.008000   ; qtot -0.035884
 4537         c3    157    bbb     C5   4537 0.11363000  12.010000   ; qtot 0.077746
 4538         hc    157    bbb     H9   4538 0.06265900   1.008000   ; qtot 0.140405
 4539         hc    157    bbb    H10   4539 0.06265900   1.008000   ; qtot 0.203064
 4540         c3    157    bbb     C6   4540 0.11363000  12.010000   ; qtot 0.316694
 4541         hc    157    bbb    H11   4541 0.06265900   1.008000   ; qtot 0.379353
 4542         hc    157    bbb    H12   4542 0.06265900   1.008000   ; qtot 0.442012
 4543         c3    157    bbb     C7   4543 0.05858200  12.010000   ; qtot 0.500594
 4544         h1    157    bbb    H13   4544 0.06123400   1.008000   ; qtot 0.561828
 4545         h1    157    bbb    H14   4545 0.06123400   1.008000   ; qtot 0.623062
 4546         c3    157    bbb     C8   4546 -0.72423400  12.010000   ; qtot -0.101172
 4547         h1    157    bbb    H15   4547 0.25637600   1.008000   ; qtot 0.155204
 4548         h1    157    bbb    H16   4548 0.25637600   1.008000   ; qtot 0.411580
 4549         c3    157    bbb     C9   4549 -0.72423400  12.010000   ; qtot -0.312654
 4550         h1    157    bbb    H17   4550 0.25637600   1.008000   ; qtot -0.056278
 4551         h1    157    bbb    H18   4551 0.25637600   1.008000   ; qtot 0.200098
 4552         os    157    bbb     O1   4552 -0.20025300  16.000000   ; qtot -0.000155
; residue  158 bbb rtp bbb q -0.0
 4553         n3    158    bbb     N1   4553 -0.59685800  14.010000   ; qtot -0.597013
 4554         c3    158    bbb     C1   4554 0.10137000  12.010000   ; qtot -0.495643
 4555         h1    158    bbb     H1   4555 0.04411300   1.008000   ; qtot -0.451530
 4556         h1    158    bbb     H2   4556 0.04411300   1.008000   ; qtot -0.407417
 4557         c3    158    bbb     C2   4557 0.10137000  12.010000   ; qtot -0.306047
 4558         h1    158    bbb     H3   4558 0.04411300   1.008000   ; qtot -0.261934
 4559         h1    158    bbb     H4   4559 0.04411300   1.008000   ; qtot -0.217821
 4560         c3    158    bbb     C3   4560 -0.00195300  12.010000   ; qtot -0.219774
 4561         h1    158    bbb     H5   4561 0.05064400   1.008000   ; qtot -0.169130
 4562         h1    158    bbb     H6   4562 0.05064400   1.008000   ; qtot -0.118486
 4563         c3    158    bbb     C4   4563 -0.01612100  12.010000   ; qtot -0.134607
 4564         hc    158    bbb     H7   4564 0.04936100   1.008000   ; qtot -0.085246
 4565         hc    158    bbb     H8   4565 0.04936100   1.008000   ; qtot -0.035885
 4566         c3    158    bbb     C5   4566 0.11363000  12.010000   ; qtot 0.077745
 4567         hc    158    bbb     H9   4567 0.06265900   1.008000   ; qtot 0.140404
 4568         hc    158    bbb    H10   4568 0.06265900   1.008000   ; qtot 0.203063
 4569         c3    158    bbb     C6   4569 0.11363000  12.010000   ; qtot 0.316693
 4570         hc    158    bbb    H11   4570 0.06265900   1.008000   ; qtot 0.379352
 4571         hc    158    bbb    H12   4571 0.06265900   1.008000   ; qtot 0.442011
 4572         c3    158    bbb     C7   4572 0.05858200  12.010000   ; qtot 0.500593
 4573         h1    158    bbb    H13   4573 0.06123400   1.008000   ; qtot 0.561827
 4574         h1    158    bbb    H14   4574 0.06123400   1.008000   ; qtot 0.623061
 4575         c3    158    bbb     C8   4575 -0.72423400  12.010000   ; qtot -0.101173
 4576         h1    158    bbb    H15   4576 0.25637600   1.008000   ; qtot 0.155203
 4577         h1    158    bbb    H16   4577 0.25637600   1.008000   ; qtot 0.411579
 4578         c3    158    bbb     C9   4578 -0.72423400  12.010000   ; qtot -0.312655
 4579         h1    158    bbb    H17   4579 0.25637600   1.008000   ; qtot -0.056279
 4580         h1    158    bbb    H18   4580 0.25637600   1.008000   ; qtot 0.200097
 4581         os    158    bbb     O1   4581 -0.20025300  16.000000   ; qtot -0.000156
; residue  159 bbb rtp bbb q -0.0
 4582         n3    159    bbb     N1   4582 -0.59685800  14.010000   ; qtot -0.597014
 4583         c3    159    bbb     C1   4583 0.10137000  12.010000   ; qtot -0.495644
 4584         h1    159    bbb     H1   4584 0.04411300   1.008000   ; qtot -0.451531
 4585         h1    159    bbb     H2   4585 0.04411300   1.008000   ; qtot -0.407418
 4586         c3    159    bbb     C2   4586 0.10137000  12.010000   ; qtot -0.306048
 4587         h1    159    bbb     H3   4587 0.04411300   1.008000   ; qtot -0.261935
 4588         h1    159    bbb     H4   4588 0.04411300   1.008000   ; qtot -0.217822
 4589         c3    159    bbb     C3   4589 -0.00195300  12.010000   ; qtot -0.219775
 4590         h1    159    bbb     H5   4590 0.05064400   1.008000   ; qtot -0.169131
 4591         h1    159    bbb     H6   4591 0.05064400   1.008000   ; qtot -0.118487
 4592         c3    159    bbb     C4   4592 -0.01612100  12.010000   ; qtot -0.134608
 4593         hc    159    bbb     H7   4593 0.04936100   1.008000   ; qtot -0.085247
 4594         hc    159    bbb     H8   4594 0.04936100   1.008000   ; qtot -0.035886
 4595         c3    159    bbb     C5   4595 0.11363000  12.010000   ; qtot 0.077744
 4596         hc    159    bbb     H9   4596 0.06265900   1.008000   ; qtot 0.140403
 4597         hc    159    bbb    H10   4597 0.06265900   1.008000   ; qtot 0.203062
 4598         c3    159    bbb     C6   4598 0.11363000  12.010000   ; qtot 0.316692
 4599         hc    159    bbb    H11   4599 0.06265900   1.008000   ; qtot 0.379351
 4600         hc    159    bbb    H12   4600 0.06265900   1.008000   ; qtot 0.442010
 4601         c3    159    bbb     C7   4601 0.05858200  12.010000   ; qtot 0.500592
 4602         h1    159    bbb    H13   4602 0.06123400   1.008000   ; qtot 0.561826
 4603         h1    159    bbb    H14   4603 0.06123400   1.008000   ; qtot 0.623060
 4604         c3    159    bbb     C8   4604 -0.72423400  12.010000   ; qtot -0.101174
 4605         h1    159    bbb    H15   4605 0.25637600   1.008000   ; qtot 0.155202
 4606         h1    159    bbb    H16   4606 0.25637600   1.008000   ; qtot 0.411578
 4607         c3    159    bbb     C9   4607 -0.72423400  12.010000   ; qtot -0.312656
 4608         h1    159    bbb    H17   4608 0.25637600   1.008000   ; qtot -0.056280
 4609         h1    159    bbb    H18   4609 0.25637600   1.008000   ; qtot 0.200096
 4610         os    159    bbb     O1   4610 -0.20025300  16.000000   ; qtot -0.000157
; residue  160 bbb rtp bbb q -0.0
 4611         n3    160    bbb     N1   4611 -0.59685800  14.010000   ; qtot -0.597015
 4612         c3    160    bbb     C1   4612 0.10137000  12.010000   ; qtot -0.495645
 4613         h1    160    bbb     H1   4613 0.04411300   1.008000   ; qtot -0.451532
 4614         h1    160    bbb     H2   4614 0.04411300   1.008000   ; qtot -0.407419
 4615         c3    160    bbb     C2   4615 0.10137000  12.010000   ; qtot -0.306049
 4616         h1    160    bbb     H3   4616 0.04411300   1.008000   ; qtot -0.261936
 4617         h1    160    bbb     H4   4617 0.04411300   1.008000   ; qtot -0.217823
 4618         c3    160    bbb     C3   4618 -0.00195300  12.010000   ; qtot -0.219776
 4619         h1    160    bbb     H5   4619 0.05064400   1.008000   ; qtot -0.169132
 4620         h1    160    bbb     H6   4620 0.05064400   1.008000   ; qtot -0.118488
 4621         c3    160    bbb     C4   4621 -0.01612100  12.010000   ; qtot -0.134609
 4622         hc    160    bbb     H7   4622 0.04936100   1.008000   ; qtot -0.085248
 4623         hc    160    bbb     H8   4623 0.04936100   1.008000   ; qtot -0.035887
 4624         c3    160    bbb     C5   4624 0.11363000  12.010000   ; qtot 0.077743
 4625         hc    160    bbb     H9   4625 0.06265900   1.008000   ; qtot 0.140402
 4626         hc    160    bbb    H10   4626 0.06265900   1.008000   ; qtot 0.203061
 4627         c3    160    bbb     C6   4627 0.11363000  12.010000   ; qtot 0.316691
 4628         hc    160    bbb    H11   4628 0.06265900   1.008000   ; qtot 0.379350
 4629         hc    160    bbb    H12   4629 0.06265900   1.008000   ; qtot 0.442009
 4630         c3    160    bbb     C7   4630 0.05858200  12.010000   ; qtot 0.500591
 4631         h1    160    bbb    H13   4631 0.06123400   1.008000   ; qtot 0.561825
 4632         h1    160    bbb    H14   4632 0.06123400   1.008000   ; qtot 0.623059
 4633         c3    160    bbb     C8   4633 -0.72423400  12.010000   ; qtot -0.101175
 4634         h1    160    bbb    H15   4634 0.25637600   1.008000   ; qtot 0.155201
 4635         h1    160    bbb    H16   4635 0.25637600   1.008000   ; qtot 0.411577
 4636         c3    160    bbb     C9   4636 -0.72423400  12.010000   ; qtot -0.312657
 4637         h1    160    bbb    H17   4637 0.25637600   1.008000   ; qtot -0.056281
 4638         h1    160    bbb    H18   4638 0.25637600   1.008000   ; qtot 0.200095
 4639         os    160    bbb     O1   4639 -0.20025300  16.000000   ; qtot -0.000158
; residue  161 bbb rtp bbb q -0.0
 4640         n3    161    bbb     N1   4640 -0.59685800  14.010000   ; qtot -0.597016
 4641         c3    161    bbb     C1   4641 0.10137000  12.010000   ; qtot -0.495646
 4642         h1    161    bbb     H1   4642 0.04411300   1.008000   ; qtot -0.451533
 4643         h1    161    bbb     H2   4643 0.04411300   1.008000   ; qtot -0.407420
 4644         c3    161    bbb     C2   4644 0.10137000  12.010000   ; qtot -0.306050
 4645         h1    161    bbb     H3   4645 0.04411300   1.008000   ; qtot -0.261937
 4646         h1    161    bbb     H4   4646 0.04411300   1.008000   ; qtot -0.217824
 4647         c3    161    bbb     C3   4647 -0.00195300  12.010000   ; qtot -0.219777
 4648         h1    161    bbb     H5   4648 0.05064400   1.008000   ; qtot -0.169133
 4649         h1    161    bbb     H6   4649 0.05064400   1.008000   ; qtot -0.118489
 4650         c3    161    bbb     C4   4650 -0.01612100  12.010000   ; qtot -0.134610
 4651         hc    161    bbb     H7   4651 0.04936100   1.008000   ; qtot -0.085249
 4652         hc    161    bbb     H8   4652 0.04936100   1.008000   ; qtot -0.035888
 4653         c3    161    bbb     C5   4653 0.11363000  12.010000   ; qtot 0.077742
 4654         hc    161    bbb     H9   4654 0.06265900   1.008000   ; qtot 0.140401
 4655         hc    161    bbb    H10   4655 0.06265900   1.008000   ; qtot 0.203060
 4656         c3    161    bbb     C6   4656 0.11363000  12.010000   ; qtot 0.316690
 4657         hc    161    bbb    H11   4657 0.06265900   1.008000   ; qtot 0.379349
 4658         hc    161    bbb    H12   4658 0.06265900   1.008000   ; qtot 0.442008
 4659         c3    161    bbb     C7   4659 0.05858200  12.010000   ; qtot 0.500590
 4660         h1    161    bbb    H13   4660 0.06123400   1.008000   ; qtot 0.561824
 4661         h1    161    bbb    H14   4661 0.06123400   1.008000   ; qtot 0.623058
 4662         c3    161    bbb     C8   4662 -0.72423400  12.010000   ; qtot -0.101176
 4663         h1    161    bbb    H15   4663 0.25637600   1.008000   ; qtot 0.155200
 4664         h1    161    bbb    H16   4664 0.25637600   1.008000   ; qtot 0.411576
 4665         c3    161    bbb     C9   4665 -0.72423400  12.010000   ; qtot -0.312658
 4666         h1    161    bbb    H17   4666 0.25637600   1.008000   ; qtot -0.056282
 4667         h1    161    bbb    H18   4667 0.25637600   1.008000   ; qtot 0.200094
 4668         os    161    bbb     O1   4668 -0.20025300  16.000000   ; qtot -0.000159
; residue  162 bbb rtp bbb q -0.0
 4669         n3    162    bbb     N1   4669 -0.59685800  14.010000   ; qtot -0.597017
 4670         c3    162    bbb     C1   4670 0.10137000  12.010000   ; qtot -0.495647
 4671         h1    162    bbb     H1   4671 0.04411300   1.008000   ; qtot -0.451534
 4672         h1    162    bbb     H2   4672 0.04411300   1.008000   ; qtot -0.407421
 4673         c3    162    bbb     C2   4673 0.10137000  12.010000   ; qtot -0.306051
 4674         h1    162    bbb     H3   4674 0.04411300   1.008000   ; qtot -0.261938
 4675         h1    162    bbb     H4   4675 0.04411300   1.008000   ; qtot -0.217825
 4676         c3    162    bbb     C3   4676 -0.00195300  12.010000   ; qtot -0.219778
 4677         h1    162    bbb     H5   4677 0.05064400   1.008000   ; qtot -0.169134
 4678         h1    162    bbb     H6   4678 0.05064400   1.008000   ; qtot -0.118490
 4679         c3    162    bbb     C4   4679 -0.01612100  12.010000   ; qtot -0.134611
 4680         hc    162    bbb     H7   4680 0.04936100   1.008000   ; qtot -0.085250
 4681         hc    162    bbb     H8   4681 0.04936100   1.008000   ; qtot -0.035889
 4682         c3    162    bbb     C5   4682 0.11363000  12.010000   ; qtot 0.077741
 4683         hc    162    bbb     H9   4683 0.06265900   1.008000   ; qtot 0.140400
 4684         hc    162    bbb    H10   4684 0.06265900   1.008000   ; qtot 0.203059
 4685         c3    162    bbb     C6   4685 0.11363000  12.010000   ; qtot 0.316689
 4686         hc    162    bbb    H11   4686 0.06265900   1.008000   ; qtot 0.379348
 4687         hc    162    bbb    H12   4687 0.06265900   1.008000   ; qtot 0.442007
 4688         c3    162    bbb     C7   4688 0.05858200  12.010000   ; qtot 0.500589
 4689         h1    162    bbb    H13   4689 0.06123400   1.008000   ; qtot 0.561823
 4690         h1    162    bbb    H14   4690 0.06123400   1.008000   ; qtot 0.623057
 4691         c3    162    bbb     C8   4691 -0.72423400  12.010000   ; qtot -0.101177
 4692         h1    162    bbb    H15   4692 0.25637600   1.008000   ; qtot 0.155199
 4693         h1    162    bbb    H16   4693 0.25637600   1.008000   ; qtot 0.411575
 4694         c3    162    bbb     C9   4694 -0.72423400  12.010000   ; qtot -0.312659
 4695         h1    162    bbb    H17   4695 0.25637600   1.008000   ; qtot -0.056283
 4696         h1    162    bbb    H18   4696 0.25637600   1.008000   ; qtot 0.200093
 4697         os    162    bbb     O1   4697 -0.20025300  16.000000   ; qtot -0.000160
; residue  163 bbb rtp bbb q -0.0
 4698         n3    163    bbb     N1   4698 -0.59685800  14.010000   ; qtot -0.597018
 4699         c3    163    bbb     C1   4699 0.10137000  12.010000   ; qtot -0.495648
 4700         h1    163    bbb     H1   4700 0.04411300   1.008000   ; qtot -0.451535
 4701         h1    163    bbb     H2   4701 0.04411300   1.008000   ; qtot -0.407422
 4702         c3    163    bbb     C2   4702 0.10137000  12.010000   ; qtot -0.306052
 4703         h1    163    bbb     H3   4703 0.04411300   1.008000   ; qtot -0.261939
 4704         h1    163    bbb     H4   4704 0.04411300   1.008000   ; qtot -0.217826
 4705         c3    163    bbb     C3   4705 -0.00195300  12.010000   ; qtot -0.219779
 4706         h1    163    bbb     H5   4706 0.05064400   1.008000   ; qtot -0.169135
 4707         h1    163    bbb     H6   4707 0.05064400   1.008000   ; qtot -0.118491
 4708         c3    163    bbb     C4   4708 -0.01612100  12.010000   ; qtot -0.134612
 4709         hc    163    bbb     H7   4709 0.04936100   1.008000   ; qtot -0.085251
 4710         hc    163    bbb     H8   4710 0.04936100   1.008000   ; qtot -0.035890
 4711         c3    163    bbb     C5   4711 0.11363000  12.010000   ; qtot 0.077740
 4712         hc    163    bbb     H9   4712 0.06265900   1.008000   ; qtot 0.140399
 4713         hc    163    bbb    H10   4713 0.06265900   1.008000   ; qtot 0.203058
 4714         c3    163    bbb     C6   4714 0.11363000  12.010000   ; qtot 0.316688
 4715         hc    163    bbb    H11   4715 0.06265900   1.008000   ; qtot 0.379347
 4716         hc    163    bbb    H12   4716 0.06265900   1.008000   ; qtot 0.442006
 4717         c3    163    bbb     C7   4717 0.05858200  12.010000   ; qtot 0.500588
 4718         h1    163    bbb    H13   4718 0.06123400   1.008000   ; qtot 0.561822
 4719         h1    163    bbb    H14   4719 0.06123400   1.008000   ; qtot 0.623056
 4720         c3    163    bbb     C8   4720 -0.72423400  12.010000   ; qtot -0.101178
 4721         h1    163    bbb    H15   4721 0.25637600   1.008000   ; qtot 0.155198
 4722         h1    163    bbb    H16   4722 0.25637600   1.008000   ; qtot 0.411574
 4723         c3    163    bbb     C9   4723 -0.72423400  12.010000   ; qtot -0.312660
 4724         h1    163    bbb    H17   4724 0.25637600   1.008000   ; qtot -0.056284
 4725         h1    163    bbb    H18   4725 0.25637600   1.008000   ; qtot 0.200092
 4726         os    163    bbb     O1   4726 -0.20025300  16.000000   ; qtot -0.000161
; residue  164 bbb rtp bbb q -0.0
 4727         n3    164    bbb     N1   4727 -0.59685800  14.010000   ; qtot -0.597019
 4728         c3    164    bbb     C1   4728 0.10137000  12.010000   ; qtot -0.495649
 4729         h1    164    bbb     H1   4729 0.04411300   1.008000   ; qtot -0.451536
 4730         h1    164    bbb     H2   4730 0.04411300   1.008000   ; qtot -0.407423
 4731         c3    164    bbb     C2   4731 0.10137000  12.010000   ; qtot -0.306053
 4732         h1    164    bbb     H3   4732 0.04411300   1.008000   ; qtot -0.261940
 4733         h1    164    bbb     H4   4733 0.04411300   1.008000   ; qtot -0.217827
 4734         c3    164    bbb     C3   4734 -0.00195300  12.010000   ; qtot -0.219780
 4735         h1    164    bbb     H5   4735 0.05064400   1.008000   ; qtot -0.169136
 4736         h1    164    bbb     H6   4736 0.05064400   1.008000   ; qtot -0.118492
 4737         c3    164    bbb     C4   4737 -0.01612100  12.010000   ; qtot -0.134613
 4738         hc    164    bbb     H7   4738 0.04936100   1.008000   ; qtot -0.085252
 4739         hc    164    bbb     H8   4739 0.04936100   1.008000   ; qtot -0.035891
 4740         c3    164    bbb     C5   4740 0.11363000  12.010000   ; qtot 0.077739
 4741         hc    164    bbb     H9   4741 0.06265900   1.008000   ; qtot 0.140398
 4742         hc    164    bbb    H10   4742 0.06265900   1.008000   ; qtot 0.203057
 4743         c3    164    bbb     C6   4743 0.11363000  12.010000   ; qtot 0.316687
 4744         hc    164    bbb    H11   4744 0.06265900   1.008000   ; qtot 0.379346
 4745         hc    164    bbb    H12   4745 0.06265900   1.008000   ; qtot 0.442005
 4746         c3    164    bbb     C7   4746 0.05858200  12.010000   ; qtot 0.500587
 4747         h1    164    bbb    H13   4747 0.06123400   1.008000   ; qtot 0.561821
 4748         h1    164    bbb    H14   4748 0.06123400   1.008000   ; qtot 0.623055
 4749         c3    164    bbb     C8   4749 -0.72423400  12.010000   ; qtot -0.101179
 4750         h1    164    bbb    H15   4750 0.25637600   1.008000   ; qtot 0.155197
 4751         h1    164    bbb    H16   4751 0.25637600   1.008000   ; qtot 0.411573
 4752         c3    164    bbb     C9   4752 -0.72423400  12.010000   ; qtot -0.312661
 4753         h1    164    bbb    H17   4753 0.25637600   1.008000   ; qtot -0.056285
 4754         h1    164    bbb    H18   4754 0.25637600   1.008000   ; qtot 0.200091
 4755         os    164    bbb     O1   4755 -0.20025300  16.000000   ; qtot -0.000162
; residue  165 bbb rtp bbb q -0.0
 4756         n3    165    bbb     N1   4756 -0.59685800  14.010000   ; qtot -0.597020
 4757         c3    165    bbb     C1   4757 0.10137000  12.010000   ; qtot -0.495650
 4758         h1    165    bbb     H1   4758 0.04411300   1.008000   ; qtot -0.451537
 4759         h1    165    bbb     H2   4759 0.04411300   1.008000   ; qtot -0.407424
 4760         c3    165    bbb     C2   4760 0.10137000  12.010000   ; qtot -0.306054
 4761         h1    165    bbb     H3   4761 0.04411300   1.008000   ; qtot -0.261941
 4762         h1    165    bbb     H4   4762 0.04411300   1.008000   ; qtot -0.217828
 4763         c3    165    bbb     C3   4763 -0.00195300  12.010000   ; qtot -0.219781
 4764         h1    165    bbb     H5   4764 0.05064400   1.008000   ; qtot -0.169137
 4765         h1    165    bbb     H6   4765 0.05064400   1.008000   ; qtot -0.118493
 4766         c3    165    bbb     C4   4766 -0.01612100  12.010000   ; qtot -0.134614
 4767         hc    165    bbb     H7   4767 0.04936100   1.008000   ; qtot -0.085253
 4768         hc    165    bbb     H8   4768 0.04936100   1.008000   ; qtot -0.035892
 4769         c3    165    bbb     C5   4769 0.11363000  12.010000   ; qtot 0.077738
 4770         hc    165    bbb     H9   4770 0.06265900   1.008000   ; qtot 0.140397
 4771         hc    165    bbb    H10   4771 0.06265900   1.008000   ; qtot 0.203056
 4772         c3    165    bbb     C6   4772 0.11363000  12.010000   ; qtot 0.316686
 4773         hc    165    bbb    H11   4773 0.06265900   1.008000   ; qtot 0.379345
 4774         hc    165    bbb    H12   4774 0.06265900   1.008000   ; qtot 0.442004
 4775         c3    165    bbb     C7   4775 0.05858200  12.010000   ; qtot 0.500586
 4776         h1    165    bbb    H13   4776 0.06123400   1.008000   ; qtot 0.561820
 4777         h1    165    bbb    H14   4777 0.06123400   1.008000   ; qtot 0.623054
 4778         c3    165    bbb     C8   4778 -0.72423400  12.010000   ; qtot -0.101180
 4779         h1    165    bbb    H15   4779 0.25637600   1.008000   ; qtot 0.155196
 4780         h1    165    bbb    H16   4780 0.25637600   1.008000   ; qtot 0.411572
 4781         c3    165    bbb     C9   4781 -0.72423400  12.010000   ; qtot -0.312662
 4782         h1    165    bbb    H17   4782 0.25637600   1.008000   ; qtot -0.056286
 4783         h1    165    bbb    H18   4783 0.25637600   1.008000   ; qtot 0.200090
 4784         os    165    bbb     O1   4784 -0.20025300  16.000000   ; qtot -0.000163
; residue  166 bbb rtp bbb q -0.0
 4785         n3    166    bbb     N1   4785 -0.59685800  14.010000   ; qtot -0.597021
 4786         c3    166    bbb     C1   4786 0.10137000  12.010000   ; qtot -0.495651
 4787         h1    166    bbb     H1   4787 0.04411300   1.008000   ; qtot -0.451538
 4788         h1    166    bbb     H2   4788 0.04411300   1.008000   ; qtot -0.407425
 4789         c3    166    bbb     C2   4789 0.10137000  12.010000   ; qtot -0.306055
 4790         h1    166    bbb     H3   4790 0.04411300   1.008000   ; qtot -0.261942
 4791         h1    166    bbb     H4   4791 0.04411300   1.008000   ; qtot -0.217829
 4792         c3    166    bbb     C3   4792 -0.00195300  12.010000   ; qtot -0.219782
 4793         h1    166    bbb     H5   4793 0.05064400   1.008000   ; qtot -0.169138
 4794         h1    166    bbb     H6   4794 0.05064400   1.008000   ; qtot -0.118494
 4795         c3    166    bbb     C4   4795 -0.01612100  12.010000   ; qtot -0.134615
 4796         hc    166    bbb     H7   4796 0.04936100   1.008000   ; qtot -0.085254
 4797         hc    166    bbb     H8   4797 0.04936100   1.008000   ; qtot -0.035893
 4798         c3    166    bbb     C5   4798 0.11363000  12.010000   ; qtot 0.077737
 4799         hc    166    bbb     H9   4799 0.06265900   1.008000   ; qtot 0.140396
 4800         hc    166    bbb    H10   4800 0.06265900   1.008000   ; qtot 0.203055
 4801         c3    166    bbb     C6   4801 0.11363000  12.010000   ; qtot 0.316685
 4802         hc    166    bbb    H11   4802 0.06265900   1.008000   ; qtot 0.379344
 4803         hc    166    bbb    H12   4803 0.06265900   1.008000   ; qtot 0.442003
 4804         c3    166    bbb     C7   4804 0.05858200  12.010000   ; qtot 0.500585
 4805         h1    166    bbb    H13   4805 0.06123400   1.008000   ; qtot 0.561819
 4806         h1    166    bbb    H14   4806 0.06123400   1.008000   ; qtot 0.623053
 4807         c3    166    bbb     C8   4807 -0.72423400  12.010000   ; qtot -0.101181
 4808         h1    166    bbb    H15   4808 0.25637600   1.008000   ; qtot 0.155195
 4809         h1    166    bbb    H16   4809 0.25637600   1.008000   ; qtot 0.411571
 4810         c3    166    bbb     C9   4810 -0.72423400  12.010000   ; qtot -0.312663
 4811         h1    166    bbb    H17   4811 0.25637600   1.008000   ; qtot -0.056287
 4812         h1    166    bbb    H18   4812 0.25637600   1.008000   ; qtot 0.200089
 4813         os    166    bbb     O1   4813 -0.20025300  16.000000   ; qtot -0.000164
; residue  167 bbb rtp bbb q -0.0
 4814         n3    167    bbb     N1   4814 -0.59685800  14.010000   ; qtot -0.597022
 4815         c3    167    bbb     C1   4815 0.10137000  12.010000   ; qtot -0.495652
 4816         h1    167    bbb     H1   4816 0.04411300   1.008000   ; qtot -0.451539
 4817         h1    167    bbb     H2   4817 0.04411300   1.008000   ; qtot -0.407426
 4818         c3    167    bbb     C2   4818 0.10137000  12.010000   ; qtot -0.306056
 4819         h1    167    bbb     H3   4819 0.04411300   1.008000   ; qtot -0.261943
 4820         h1    167    bbb     H4   4820 0.04411300   1.008000   ; qtot -0.217830
 4821         c3    167    bbb     C3   4821 -0.00195300  12.010000   ; qtot -0.219783
 4822         h1    167    bbb     H5   4822 0.05064400   1.008000   ; qtot -0.169139
 4823         h1    167    bbb     H6   4823 0.05064400   1.008000   ; qtot -0.118495
 4824         c3    167    bbb     C4   4824 -0.01612100  12.010000   ; qtot -0.134616
 4825         hc    167    bbb     H7   4825 0.04936100   1.008000   ; qtot -0.085255
 4826         hc    167    bbb     H8   4826 0.04936100   1.008000   ; qtot -0.035894
 4827         c3    167    bbb     C5   4827 0.11363000  12.010000   ; qtot 0.077736
 4828         hc    167    bbb     H9   4828 0.06265900   1.008000   ; qtot 0.140395
 4829         hc    167    bbb    H10   4829 0.06265900   1.008000   ; qtot 0.203054
 4830         c3    167    bbb     C6   4830 0.11363000  12.010000   ; qtot 0.316684
 4831         hc    167    bbb    H11   4831 0.06265900   1.008000   ; qtot 0.379343
 4832         hc    167    bbb    H12   4832 0.06265900   1.008000   ; qtot 0.442002
 4833         c3    167    bbb     C7   4833 0.05858200  12.010000   ; qtot 0.500584
 4834         h1    167    bbb    H13   4834 0.06123400   1.008000   ; qtot 0.561818
 4835         h1    167    bbb    H14   4835 0.06123400   1.008000   ; qtot 0.623052
 4836         c3    167    bbb     C8   4836 -0.72423400  12.010000   ; qtot -0.101182
 4837         h1    167    bbb    H15   4837 0.25637600   1.008000   ; qtot 0.155194
 4838         h1    167    bbb    H16   4838 0.25637600   1.008000   ; qtot 0.411570
 4839         c3    167    bbb     C9   4839 -0.72423400  12.010000   ; qtot -0.312664
 4840         h1    167    bbb    H17   4840 0.25637600   1.008000   ; qtot -0.056288
 4841         h1    167    bbb    H18   4841 0.25637600   1.008000   ; qtot 0.200088
 4842         os    167    bbb     O1   4842 -0.20025300  16.000000   ; qtot -0.000165
; residue  168 bbb rtp bbb q -0.0
 4843         n3    168    bbb     N1   4843 -0.59685800  14.010000   ; qtot -0.597023
 4844         c3    168    bbb     C1   4844 0.10137000  12.010000   ; qtot -0.495653
 4845         h1    168    bbb     H1   4845 0.04411300   1.008000   ; qtot -0.451540
 4846         h1    168    bbb     H2   4846 0.04411300   1.008000   ; qtot -0.407427
 4847         c3    168    bbb     C2   4847 0.10137000  12.010000   ; qtot -0.306057
 4848         h1    168    bbb     H3   4848 0.04411300   1.008000   ; qtot -0.261944
 4849         h1    168    bbb     H4   4849 0.04411300   1.008000   ; qtot -0.217831
 4850         c3    168    bbb     C3   4850 -0.00195300  12.010000   ; qtot -0.219784
 4851         h1    168    bbb     H5   4851 0.05064400   1.008000   ; qtot -0.169140
 4852         h1    168    bbb     H6   4852 0.05064400   1.008000   ; qtot -0.118496
 4853         c3    168    bbb     C4   4853 -0.01612100  12.010000   ; qtot -0.134617
 4854         hc    168    bbb     H7   4854 0.04936100   1.008000   ; qtot -0.085256
 4855         hc    168    bbb     H8   4855 0.04936100   1.008000   ; qtot -0.035895
 4856         c3    168    bbb     C5   4856 0.11363000  12.010000   ; qtot 0.077735
 4857         hc    168    bbb     H9   4857 0.06265900   1.008000   ; qtot 0.140394
 4858         hc    168    bbb    H10   4858 0.06265900   1.008000   ; qtot 0.203053
 4859         c3    168    bbb     C6   4859 0.11363000  12.010000   ; qtot 0.316683
 4860         hc    168    bbb    H11   4860 0.06265900   1.008000   ; qtot 0.379342
 4861         hc    168    bbb    H12   4861 0.06265900   1.008000   ; qtot 0.442001
 4862         c3    168    bbb     C7   4862 0.05858200  12.010000   ; qtot 0.500583
 4863         h1    168    bbb    H13   4863 0.06123400   1.008000   ; qtot 0.561817
 4864         h1    168    bbb    H14   4864 0.06123400   1.008000   ; qtot 0.623051
 4865         c3    168    bbb     C8   4865 -0.72423400  12.010000   ; qtot -0.101183
 4866         h1    168    bbb    H15   4866 0.25637600   1.008000   ; qtot 0.155193
 4867         h1    168    bbb    H16   4867 0.25637600   1.008000   ; qtot 0.411569
 4868         c3    168    bbb     C9   4868 -0.72423400  12.010000   ; qtot -0.312665
 4869         h1    168    bbb    H17   4869 0.25637600   1.008000   ; qtot -0.056289
 4870         h1    168    bbb    H18   4870 0.25637600   1.008000   ; qtot 0.200087
 4871         os    168    bbb     O1   4871 -0.20025300  16.000000   ; qtot -0.000166
; residue  169 bbb rtp bbb q -0.0
 4872         n3    169    bbb     N1   4872 -0.59685800  14.010000   ; qtot -0.597024
 4873         c3    169    bbb     C1   4873 0.10137000  12.010000   ; qtot -0.495654
 4874         h1    169    bbb     H1   4874 0.04411300   1.008000   ; qtot -0.451541
 4875         h1    169    bbb     H2   4875 0.04411300   1.008000   ; qtot -0.407428
 4876         c3    169    bbb     C2   4876 0.10137000  12.010000   ; qtot -0.306058
 4877         h1    169    bbb     H3   4877 0.04411300   1.008000   ; qtot -0.261945
 4878         h1    169    bbb     H4   4878 0.04411300   1.008000   ; qtot -0.217832
 4879         c3    169    bbb     C3   4879 -0.00195300  12.010000   ; qtot -0.219785
 4880         h1    169    bbb     H5   4880 0.05064400   1.008000   ; qtot -0.169141
 4881         h1    169    bbb     H6   4881 0.05064400   1.008000   ; qtot -0.118497
 4882         c3    169    bbb     C4   4882 -0.01612100  12.010000   ; qtot -0.134618
 4883         hc    169    bbb     H7   4883 0.04936100   1.008000   ; qtot -0.085257
 4884         hc    169    bbb     H8   4884 0.04936100   1.008000   ; qtot -0.035896
 4885         c3    169    bbb     C5   4885 0.11363000  12.010000   ; qtot 0.077734
 4886         hc    169    bbb     H9   4886 0.06265900   1.008000   ; qtot 0.140393
 4887         hc    169    bbb    H10   4887 0.06265900   1.008000   ; qtot 0.203052
 4888         c3    169    bbb     C6   4888 0.11363000  12.010000   ; qtot 0.316682
 4889         hc    169    bbb    H11   4889 0.06265900   1.008000   ; qtot 0.379341
 4890         hc    169    bbb    H12   4890 0.06265900   1.008000   ; qtot 0.442000
 4891         c3    169    bbb     C7   4891 0.05858200  12.010000   ; qtot 0.500582
 4892         h1    169    bbb    H13   4892 0.06123400   1.008000   ; qtot 0.561816
 4893         h1    169    bbb    H14   4893 0.06123400   1.008000   ; qtot 0.623050
 4894         c3    169    bbb     C8   4894 -0.72423400  12.010000   ; qtot -0.101184
 4895         h1    169    bbb    H15   4895 0.25637600   1.008000   ; qtot 0.155192
 4896         h1    169    bbb    H16   4896 0.25637600   1.008000   ; qtot 0.411568
 4897         c3    169    bbb     C9   4897 -0.72423400  12.010000   ; qtot -0.312666
 4898         h1    169    bbb    H17   4898 0.25637600   1.008000   ; qtot -0.056290
 4899         h1    169    bbb    H18   4899 0.25637600   1.008000   ; qtot 0.200086
 4900         os    169    bbb     O1   4900 -0.20025300  16.000000   ; qtot -0.000167
; residue  170 bbb rtp bbb q -0.0
 4901         n3    170    bbb     N1   4901 -0.59685800  14.010000   ; qtot -0.597025
 4902         c3    170    bbb     C1   4902 0.10137000  12.010000   ; qtot -0.495655
 4903         h1    170    bbb     H1   4903 0.04411300   1.008000   ; qtot -0.451542
 4904         h1    170    bbb     H2   4904 0.04411300   1.008000   ; qtot -0.407429
 4905         c3    170    bbb     C2   4905 0.10137000  12.010000   ; qtot -0.306059
 4906         h1    170    bbb     H3   4906 0.04411300   1.008000   ; qtot -0.261946
 4907         h1    170    bbb     H4   4907 0.04411300   1.008000   ; qtot -0.217833
 4908         c3    170    bbb     C3   4908 -0.00195300  12.010000   ; qtot -0.219786
 4909         h1    170    bbb     H5   4909 0.05064400   1.008000   ; qtot -0.169142
 4910         h1    170    bbb     H6   4910 0.05064400   1.008000   ; qtot -0.118498
 4911         c3    170    bbb     C4   4911 -0.01612100  12.010000   ; qtot -0.134619
 4912         hc    170    bbb     H7   4912 0.04936100   1.008000   ; qtot -0.085258
 4913         hc    170    bbb     H8   4913 0.04936100   1.008000   ; qtot -0.035897
 4914         c3    170    bbb     C5   4914 0.11363000  12.010000   ; qtot 0.077733
 4915         hc    170    bbb     H9   4915 0.06265900   1.008000   ; qtot 0.140392
 4916         hc    170    bbb    H10   4916 0.06265900   1.008000   ; qtot 0.203051
 4917         c3    170    bbb     C6   4917 0.11363000  12.010000   ; qtot 0.316681
 4918         hc    170    bbb    H11   4918 0.06265900   1.008000   ; qtot 0.379340
 4919         hc    170    bbb    H12   4919 0.06265900   1.008000   ; qtot 0.441999
 4920         c3    170    bbb     C7   4920 0.05858200  12.010000   ; qtot 0.500581
 4921         h1    170    bbb    H13   4921 0.06123400   1.008000   ; qtot 0.561815
 4922         h1    170    bbb    H14   4922 0.06123400   1.008000   ; qtot 0.623049
 4923         c3    170    bbb     C8   4923 -0.72423400  12.010000   ; qtot -0.101185
 4924         h1    170    bbb    H15   4924 0.25637600   1.008000   ; qtot 0.155191
 4925         h1    170    bbb    H16   4925 0.25637600   1.008000   ; qtot 0.411567
 4926         c3    170    bbb     C9   4926 -0.72423400  12.010000   ; qtot -0.312667
 4927         h1    170    bbb    H17   4927 0.25637600   1.008000   ; qtot -0.056291
 4928         h1    170    bbb    H18   4928 0.25637600   1.008000   ; qtot 0.200085
 4929         os    170    bbb     O1   4929 -0.20025300  16.000000   ; qtot -0.000168
; residue  171 bbb rtp bbb q -0.0
 4930         n3    171    bbb     N1   4930 -0.59685800  14.010000   ; qtot -0.597026
 4931         c3    171    bbb     C1   4931 0.10137000  12.010000   ; qtot -0.495656
 4932         h1    171    bbb     H1   4932 0.04411300   1.008000   ; qtot -0.451543
 4933         h1    171    bbb     H2   4933 0.04411300   1.008000   ; qtot -0.407430
 4934         c3    171    bbb     C2   4934 0.10137000  12.010000   ; qtot -0.306060
 4935         h1    171    bbb     H3   4935 0.04411300   1.008000   ; qtot -0.261947
 4936         h1    171    bbb     H4   4936 0.04411300   1.008000   ; qtot -0.217834
 4937         c3    171    bbb     C3   4937 -0.00195300  12.010000   ; qtot -0.219787
 4938         h1    171    bbb     H5   4938 0.05064400   1.008000   ; qtot -0.169143
 4939         h1    171    bbb     H6   4939 0.05064400   1.008000   ; qtot -0.118499
 4940         c3    171    bbb     C4   4940 -0.01612100  12.010000   ; qtot -0.134620
 4941         hc    171    bbb     H7   4941 0.04936100   1.008000   ; qtot -0.085259
 4942         hc    171    bbb     H8   4942 0.04936100   1.008000   ; qtot -0.035898
 4943         c3    171    bbb     C5   4943 0.11363000  12.010000   ; qtot 0.077732
 4944         hc    171    bbb     H9   4944 0.06265900   1.008000   ; qtot 0.140391
 4945         hc    171    bbb    H10   4945 0.06265900   1.008000   ; qtot 0.203050
 4946         c3    171    bbb     C6   4946 0.11363000  12.010000   ; qtot 0.316680
 4947         hc    171    bbb    H11   4947 0.06265900   1.008000   ; qtot 0.379339
 4948         hc    171    bbb    H12   4948 0.06265900   1.008000   ; qtot 0.441998
 4949         c3    171    bbb     C7   4949 0.05858200  12.010000   ; qtot 0.500580
 4950         h1    171    bbb    H13   4950 0.06123400   1.008000   ; qtot 0.561814
 4951         h1    171    bbb    H14   4951 0.06123400   1.008000   ; qtot 0.623048
 4952         c3    171    bbb     C8   4952 -0.72423400  12.010000   ; qtot -0.101186
 4953         h1    171    bbb    H15   4953 0.25637600   1.008000   ; qtot 0.155190
 4954         h1    171    bbb    H16   4954 0.25637600   1.008000   ; qtot 0.411566
 4955         c3    171    bbb     C9   4955 -0.72423400  12.010000   ; qtot -0.312668
 4956         h1    171    bbb    H17   4956 0.25637600   1.008000   ; qtot -0.056292
 4957         h1    171    bbb    H18   4957 0.25637600   1.008000   ; qtot 0.200084
 4958         os    171    bbb     O1   4958 -0.20025300  16.000000   ; qtot -0.000169
; residue  172 bbb rtp bbb q -0.0
 4959         n3    172    bbb     N1   4959 -0.59685800  14.010000   ; qtot -0.597027
 4960         c3    172    bbb     C1   4960 0.10137000  12.010000   ; qtot -0.495657
 4961         h1    172    bbb     H1   4961 0.04411300   1.008000   ; qtot -0.451544
 4962         h1    172    bbb     H2   4962 0.04411300   1.008000   ; qtot -0.407431
 4963         c3    172    bbb     C2   4963 0.10137000  12.010000   ; qtot -0.306061
 4964         h1    172    bbb     H3   4964 0.04411300   1.008000   ; qtot -0.261948
 4965         h1    172    bbb     H4   4965 0.04411300   1.008000   ; qtot -0.217835
 4966         c3    172    bbb     C3   4966 -0.00195300  12.010000   ; qtot -0.219788
 4967         h1    172    bbb     H5   4967 0.05064400   1.008000   ; qtot -0.169144
 4968         h1    172    bbb     H6   4968 0.05064400   1.008000   ; qtot -0.118500
 4969         c3    172    bbb     C4   4969 -0.01612100  12.010000   ; qtot -0.134621
 4970         hc    172    bbb     H7   4970 0.04936100   1.008000   ; qtot -0.085260
 4971         hc    172    bbb     H8   4971 0.04936100   1.008000   ; qtot -0.035899
 4972         c3    172    bbb     C5   4972 0.11363000  12.010000   ; qtot 0.077731
 4973         hc    172    bbb     H9   4973 0.06265900   1.008000   ; qtot 0.140390
 4974         hc    172    bbb    H10   4974 0.06265900   1.008000   ; qtot 0.203049
 4975         c3    172    bbb     C6   4975 0.11363000  12.010000   ; qtot 0.316679
 4976         hc    172    bbb    H11   4976 0.06265900   1.008000   ; qtot 0.379338
 4977         hc    172    bbb    H12   4977 0.06265900   1.008000   ; qtot 0.441997
 4978         c3    172    bbb     C7   4978 0.05858200  12.010000   ; qtot 0.500579
 4979         h1    172    bbb    H13   4979 0.06123400   1.008000   ; qtot 0.561813
 4980         h1    172    bbb    H14   4980 0.06123400   1.008000   ; qtot 0.623047
 4981         c3    172    bbb     C8   4981 -0.72423400  12.010000   ; qtot -0.101187
 4982         h1    172    bbb    H15   4982 0.25637600   1.008000   ; qtot 0.155189
 4983         h1    172    bbb    H16   4983 0.25637600   1.008000   ; qtot 0.411565
 4984         c3    172    bbb     C9   4984 -0.72423400  12.010000   ; qtot -0.312669
 4985         h1    172    bbb    H17   4985 0.25637600   1.008000   ; qtot -0.056293
 4986         h1    172    bbb    H18   4986 0.25637600   1.008000   ; qtot 0.200083
 4987         os    172    bbb     O1   4987 -0.20025300  16.000000   ; qtot -0.000170
; residue  173 bbb rtp bbb q -0.0
 4988         n3    173    bbb     N1   4988 -0.59685800  14.010000   ; qtot -0.597028
 4989         c3    173    bbb     C1   4989 0.10137000  12.010000   ; qtot -0.495658
 4990         h1    173    bbb     H1   4990 0.04411300   1.008000   ; qtot -0.451545
 4991         h1    173    bbb     H2   4991 0.04411300   1.008000   ; qtot -0.407432
 4992         c3    173    bbb     C2   4992 0.10137000  12.010000   ; qtot -0.306062
 4993         h1    173    bbb     H3   4993 0.04411300   1.008000   ; qtot -0.261949
 4994         h1    173    bbb     H4   4994 0.04411300   1.008000   ; qtot -0.217836
 4995         c3    173    bbb     C3   4995 -0.00195300  12.010000   ; qtot -0.219789
 4996         h1    173    bbb     H5   4996 0.05064400   1.008000   ; qtot -0.169145
 4997         h1    173    bbb     H6   4997 0.05064400   1.008000   ; qtot -0.118501
 4998         c3    173    bbb     C4   4998 -0.01612100  12.010000   ; qtot -0.134622
 4999         hc    173    bbb     H7   4999 0.04936100   1.008000   ; qtot -0.085261
 5000         hc    173    bbb     H8   5000 0.04936100   1.008000   ; qtot -0.035900
 5001         c3    173    bbb     C5   5001 0.11363000  12.010000   ; qtot 0.077730
 5002         hc    173    bbb     H9   5002 0.06265900   1.008000   ; qtot 0.140389
 5003         hc    173    bbb    H10   5003 0.06265900   1.008000   ; qtot 0.203048
 5004         c3    173    bbb     C6   5004 0.11363000  12.010000   ; qtot 0.316678
 5005         hc    173    bbb    H11   5005 0.06265900   1.008000   ; qtot 0.379337
 5006         hc    173    bbb    H12   5006 0.06265900   1.008000   ; qtot 0.441996
 5007         c3    173    bbb     C7   5007 0.05858200  12.010000   ; qtot 0.500578
 5008         h1    173    bbb    H13   5008 0.06123400   1.008000   ; qtot 0.561812
 5009         h1    173    bbb    H14   5009 0.06123400   1.008000   ; qtot 0.623046
 5010         c3    173    bbb     C8   5010 -0.72423400  12.010000   ; qtot -0.101188
 5011         h1    173    bbb    H15   5011 0.25637600   1.008000   ; qtot 0.155188
 5012         h1    173    bbb    H16   5012 0.25637600   1.008000   ; qtot 0.411564
 5013         c3    173    bbb     C9   5013 -0.72423400  12.010000   ; qtot -0.312670
 5014         h1    173    bbb    H17   5014 0.25637600   1.008000   ; qtot -0.056294
 5015         h1    173    bbb    H18   5015 0.25637600   1.008000   ; qtot 0.200082
 5016         os    173    bbb     O1   5016 -0.20025300  16.000000   ; qtot -0.000171
; residue  174 bbb rtp bbb q -0.0
 5017         n3    174    bbb     N1   5017 -0.59685800  14.010000   ; qtot -0.597029
 5018         c3    174    bbb     C1   5018 0.10137000  12.010000   ; qtot -0.495659
 5019         h1    174    bbb     H1   5019 0.04411300   1.008000   ; qtot -0.451546
 5020         h1    174    bbb     H2   5020 0.04411300   1.008000   ; qtot -0.407433
 5021         c3    174    bbb     C2   5021 0.10137000  12.010000   ; qtot -0.306063
 5022         h1    174    bbb     H3   5022 0.04411300   1.008000   ; qtot -0.261950
 5023         h1    174    bbb     H4   5023 0.04411300   1.008000   ; qtot -0.217837
 5024         c3    174    bbb     C3   5024 -0.00195300  12.010000   ; qtot -0.219790
 5025         h1    174    bbb     H5   5025 0.05064400   1.008000   ; qtot -0.169146
 5026         h1    174    bbb     H6   5026 0.05064400   1.008000   ; qtot -0.118502
 5027         c3    174    bbb     C4   5027 -0.01612100  12.010000   ; qtot -0.134623
 5028         hc    174    bbb     H7   5028 0.04936100   1.008000   ; qtot -0.085262
 5029         hc    174    bbb     H8   5029 0.04936100   1.008000   ; qtot -0.035901
 5030         c3    174    bbb     C5   5030 0.11363000  12.010000   ; qtot 0.077729
 5031         hc    174    bbb     H9   5031 0.06265900   1.008000   ; qtot 0.140388
 5032         hc    174    bbb    H10   5032 0.06265900   1.008000   ; qtot 0.203047
 5033         c3    174    bbb     C6   5033 0.11363000  12.010000   ; qtot 0.316677
 5034         hc    174    bbb    H11   5034 0.06265900   1.008000   ; qtot 0.379336
 5035         hc    174    bbb    H12   5035 0.06265900   1.008000   ; qtot 0.441995
 5036         c3    174    bbb     C7   5036 0.05858200  12.010000   ; qtot 0.500577
 5037         h1    174    bbb    H13   5037 0.06123400   1.008000   ; qtot 0.561811
 5038         h1    174    bbb    H14   5038 0.06123400   1.008000   ; qtot 0.623045
 5039         c3    174    bbb     C8   5039 -0.72423400  12.010000   ; qtot -0.101189
 5040         h1    174    bbb    H15   5040 0.25637600   1.008000   ; qtot 0.155187
 5041         h1    174    bbb    H16   5041 0.25637600   1.008000   ; qtot 0.411563
 5042         c3    174    bbb     C9   5042 -0.72423400  12.010000   ; qtot -0.312671
 5043         h1    174    bbb    H17   5043 0.25637600   1.008000   ; qtot -0.056295
 5044         h1    174    bbb    H18   5044 0.25637600   1.008000   ; qtot 0.200081
 5045         os    174    bbb     O1   5045 -0.20025300  16.000000   ; qtot -0.000172
; residue  175 bbb rtp bbb q -0.0
 5046         n3    175    bbb     N1   5046 -0.59685800  14.010000   ; qtot -0.597030
 5047         c3    175    bbb     C1   5047 0.10137000  12.010000   ; qtot -0.495660
 5048         h1    175    bbb     H1   5048 0.04411300   1.008000   ; qtot -0.451547
 5049         h1    175    bbb     H2   5049 0.04411300   1.008000   ; qtot -0.407434
 5050         c3    175    bbb     C2   5050 0.10137000  12.010000   ; qtot -0.306064
 5051         h1    175    bbb     H3   5051 0.04411300   1.008000   ; qtot -0.261951
 5052         h1    175    bbb     H4   5052 0.04411300   1.008000   ; qtot -0.217838
 5053         c3    175    bbb     C3   5053 -0.00195300  12.010000   ; qtot -0.219791
 5054         h1    175    bbb     H5   5054 0.05064400   1.008000   ; qtot -0.169147
 5055         h1    175    bbb     H6   5055 0.05064400   1.008000   ; qtot -0.118503
 5056         c3    175    bbb     C4   5056 -0.01612100  12.010000   ; qtot -0.134624
 5057         hc    175    bbb     H7   5057 0.04936100   1.008000   ; qtot -0.085263
 5058         hc    175    bbb     H8   5058 0.04936100   1.008000   ; qtot -0.035902
 5059         c3    175    bbb     C5   5059 0.11363000  12.010000   ; qtot 0.077728
 5060         hc    175    bbb     H9   5060 0.06265900   1.008000   ; qtot 0.140387
 5061         hc    175    bbb    H10   5061 0.06265900   1.008000   ; qtot 0.203046
 5062         c3    175    bbb     C6   5062 0.11363000  12.010000   ; qtot 0.316676
 5063         hc    175    bbb    H11   5063 0.06265900   1.008000   ; qtot 0.379335
 5064         hc    175    bbb    H12   5064 0.06265900   1.008000   ; qtot 0.441994
 5065         c3    175    bbb     C7   5065 0.05858200  12.010000   ; qtot 0.500576
 5066         h1    175    bbb    H13   5066 0.06123400   1.008000   ; qtot 0.561810
 5067         h1    175    bbb    H14   5067 0.06123400   1.008000   ; qtot 0.623044
 5068         c3    175    bbb     C8   5068 -0.72423400  12.010000   ; qtot -0.101190
 5069         h1    175    bbb    H15   5069 0.25637600   1.008000   ; qtot 0.155186
 5070         h1    175    bbb    H16   5070 0.25637600   1.008000   ; qtot 0.411562
 5071         c3    175    bbb     C9   5071 -0.72423400  12.010000   ; qtot -0.312672
 5072         h1    175    bbb    H17   5072 0.25637600   1.008000   ; qtot -0.056296
 5073         h1    175    bbb    H18   5073 0.25637600   1.008000   ; qtot 0.200080
 5074         os    175    bbb     O1   5074 -0.20025300  16.000000   ; qtot -0.000173
; residue  176 bbb rtp bbb q -0.0
 5075         n3    176    bbb     N1   5075 -0.59685800  14.010000   ; qtot -0.597031
 5076         c3    176    bbb     C1   5076 0.10137000  12.010000   ; qtot -0.495661
 5077         h1    176    bbb     H1   5077 0.04411300   1.008000   ; qtot -0.451548
 5078         h1    176    bbb     H2   5078 0.04411300   1.008000   ; qtot -0.407435
 5079         c3    176    bbb     C2   5079 0.10137000  12.010000   ; qtot -0.306065
 5080         h1    176    bbb     H3   5080 0.04411300   1.008000   ; qtot -0.261952
 5081         h1    176    bbb     H4   5081 0.04411300   1.008000   ; qtot -0.217839
 5082         c3    176    bbb     C3   5082 -0.00195300  12.010000   ; qtot -0.219792
 5083         h1    176    bbb     H5   5083 0.05064400   1.008000   ; qtot -0.169148
 5084         h1    176    bbb     H6   5084 0.05064400   1.008000   ; qtot -0.118504
 5085         c3    176    bbb     C4   5085 -0.01612100  12.010000   ; qtot -0.134625
 5086         hc    176    bbb     H7   5086 0.04936100   1.008000   ; qtot -0.085264
 5087         hc    176    bbb     H8   5087 0.04936100   1.008000   ; qtot -0.035903
 5088         c3    176    bbb     C5   5088 0.11363000  12.010000   ; qtot 0.077727
 5089         hc    176    bbb     H9   5089 0.06265900   1.008000   ; qtot 0.140386
 5090         hc    176    bbb    H10   5090 0.06265900   1.008000   ; qtot 0.203045
 5091         c3    176    bbb     C6   5091 0.11363000  12.010000   ; qtot 0.316675
 5092         hc    176    bbb    H11   5092 0.06265900   1.008000   ; qtot 0.379334
 5093         hc    176    bbb    H12   5093 0.06265900   1.008000   ; qtot 0.441993
 5094         c3    176    bbb     C7   5094 0.05858200  12.010000   ; qtot 0.500575
 5095         h1    176    bbb    H13   5095 0.06123400   1.008000   ; qtot 0.561809
 5096         h1    176    bbb    H14   5096 0.06123400   1.008000   ; qtot 0.623043
 5097         c3    176    bbb     C8   5097 -0.72423400  12.010000   ; qtot -0.101191
 5098         h1    176    bbb    H15   5098 0.25637600   1.008000   ; qtot 0.155185
 5099         h1    176    bbb    H16   5099 0.25637600   1.008000   ; qtot 0.411561
 5100         c3    176    bbb     C9   5100 -0.72423400  12.010000   ; qtot -0.312673
 5101         h1    176    bbb    H17   5101 0.25637600   1.008000   ; qtot -0.056297
 5102         h1    176    bbb    H18   5102 0.25637600   1.008000   ; qtot 0.200079
 5103         os    176    bbb     O1   5103 -0.20025300  16.000000   ; qtot -0.000174
; residue  177 bbb rtp bbb q -0.0
 5104         n3    177    bbb     N1   5104 -0.59685800  14.010000   ; qtot -0.597032
 5105         c3    177    bbb     C1   5105 0.10137000  12.010000   ; qtot -0.495662
 5106         h1    177    bbb     H1   5106 0.04411300   1.008000   ; qtot -0.451549
 5107         h1    177    bbb     H2   5107 0.04411300   1.008000   ; qtot -0.407436
 5108         c3    177    bbb     C2   5108 0.10137000  12.010000   ; qtot -0.306066
 5109         h1    177    bbb     H3   5109 0.04411300   1.008000   ; qtot -0.261953
 5110         h1    177    bbb     H4   5110 0.04411300   1.008000   ; qtot -0.217840
 5111         c3    177    bbb     C3   5111 -0.00195300  12.010000   ; qtot -0.219793
 5112         h1    177    bbb     H5   5112 0.05064400   1.008000   ; qtot -0.169149
 5113         h1    177    bbb     H6   5113 0.05064400   1.008000   ; qtot -0.118505
 5114         c3    177    bbb     C4   5114 -0.01612100  12.010000   ; qtot -0.134626
 5115         hc    177    bbb     H7   5115 0.04936100   1.008000   ; qtot -0.085265
 5116         hc    177    bbb     H8   5116 0.04936100   1.008000   ; qtot -0.035904
 5117         c3    177    bbb     C5   5117 0.11363000  12.010000   ; qtot 0.077726
 5118         hc    177    bbb     H9   5118 0.06265900   1.008000   ; qtot 0.140385
 5119         hc    177    bbb    H10   5119 0.06265900   1.008000   ; qtot 0.203044
 5120         c3    177    bbb     C6   5120 0.11363000  12.010000   ; qtot 0.316674
 5121         hc    177    bbb    H11   5121 0.06265900   1.008000   ; qtot 0.379333
 5122         hc    177    bbb    H12   5122 0.06265900   1.008000   ; qtot 0.441992
 5123         c3    177    bbb     C7   5123 0.05858200  12.010000   ; qtot 0.500574
 5124         h1    177    bbb    H13   5124 0.06123400   1.008000   ; qtot 0.561808
 5125         h1    177    bbb    H14   5125 0.06123400   1.008000   ; qtot 0.623042
 5126         c3    177    bbb     C8   5126 -0.72423400  12.010000   ; qtot -0.101192
 5127         h1    177    bbb    H15   5127 0.25637600   1.008000   ; qtot 0.155184
 5128         h1    177    bbb    H16   5128 0.25637600   1.008000   ; qtot 0.411560
 5129         c3    177    bbb     C9   5129 -0.72423400  12.010000   ; qtot -0.312674
 5130         h1    177    bbb    H17   5130 0.25637600   1.008000   ; qtot -0.056298
 5131         h1    177    bbb    H18   5131 0.25637600   1.008000   ; qtot 0.200078
 5132         os    177    bbb     O1   5132 -0.20025300  16.000000   ; qtot -0.000175
; residue  178 bbb rtp bbb q -0.0
 5133         n3    178    bbb     N1   5133 -0.59685800  14.010000   ; qtot -0.597033
 5134         c3    178    bbb     C1   5134 0.10137000  12.010000   ; qtot -0.495663
 5135         h1    178    bbb     H1   5135 0.04411300   1.008000   ; qtot -0.451550
 5136         h1    178    bbb     H2   5136 0.04411300   1.008000   ; qtot -0.407437
 5137         c3    178    bbb     C2   5137 0.10137000  12.010000   ; qtot -0.306067
 5138         h1    178    bbb     H3   5138 0.04411300   1.008000   ; qtot -0.261954
 5139         h1    178    bbb     H4   5139 0.04411300   1.008000   ; qtot -0.217841
 5140         c3    178    bbb     C3   5140 -0.00195300  12.010000   ; qtot -0.219794
 5141         h1    178    bbb     H5   5141 0.05064400   1.008000   ; qtot -0.169150
 5142         h1    178    bbb     H6   5142 0.05064400   1.008000   ; qtot -0.118506
 5143         c3    178    bbb     C4   5143 -0.01612100  12.010000   ; qtot -0.134627
 5144         hc    178    bbb     H7   5144 0.04936100   1.008000   ; qtot -0.085266
 5145         hc    178    bbb     H8   5145 0.04936100   1.008000   ; qtot -0.035905
 5146         c3    178    bbb     C5   5146 0.11363000  12.010000   ; qtot 0.077725
 5147         hc    178    bbb     H9   5147 0.06265900   1.008000   ; qtot 0.140384
 5148         hc    178    bbb    H10   5148 0.06265900   1.008000   ; qtot 0.203043
 5149         c3    178    bbb     C6   5149 0.11363000  12.010000   ; qtot 0.316673
 5150         hc    178    bbb    H11   5150 0.06265900   1.008000   ; qtot 0.379332
 5151         hc    178    bbb    H12   5151 0.06265900   1.008000   ; qtot 0.441991
 5152         c3    178    bbb     C7   5152 0.05858200  12.010000   ; qtot 0.500573
 5153         h1    178    bbb    H13   5153 0.06123400   1.008000   ; qtot 0.561807
 5154         h1    178    bbb    H14   5154 0.06123400   1.008000   ; qtot 0.623041
 5155         c3    178    bbb     C8   5155 -0.72423400  12.010000   ; qtot -0.101193
 5156         h1    178    bbb    H15   5156 0.25637600   1.008000   ; qtot 0.155183
 5157         h1    178    bbb    H16   5157 0.25637600   1.008000   ; qtot 0.411559
 5158         c3    178    bbb     C9   5158 -0.72423400  12.010000   ; qtot -0.312675
 5159         h1    178    bbb    H17   5159 0.25637600   1.008000   ; qtot -0.056299
 5160         h1    178    bbb    H18   5160 0.25637600   1.008000   ; qtot 0.200077
 5161         os    178    bbb     O1   5161 -0.20025300  16.000000   ; qtot -0.000176
; residue  179 bbb rtp bbb q -0.0
 5162         n3    179    bbb     N1   5162 -0.59685800  14.010000   ; qtot -0.597034
 5163         c3    179    bbb     C1   5163 0.10137000  12.010000   ; qtot -0.495664
 5164         h1    179    bbb     H1   5164 0.04411300   1.008000   ; qtot -0.451551
 5165         h1    179    bbb     H2   5165 0.04411300   1.008000   ; qtot -0.407438
 5166         c3    179    bbb     C2   5166 0.10137000  12.010000   ; qtot -0.306068
 5167         h1    179    bbb     H3   5167 0.04411300   1.008000   ; qtot -0.261955
 5168         h1    179    bbb     H4   5168 0.04411300   1.008000   ; qtot -0.217842
 5169         c3    179    bbb     C3   5169 -0.00195300  12.010000   ; qtot -0.219795
 5170         h1    179    bbb     H5   5170 0.05064400   1.008000   ; qtot -0.169151
 5171         h1    179    bbb     H6   5171 0.05064400   1.008000   ; qtot -0.118507
 5172         c3    179    bbb     C4   5172 -0.01612100  12.010000   ; qtot -0.134628
 5173         hc    179    bbb     H7   5173 0.04936100   1.008000   ; qtot -0.085267
 5174         hc    179    bbb     H8   5174 0.04936100   1.008000   ; qtot -0.035906
 5175         c3    179    bbb     C5   5175 0.11363000  12.010000   ; qtot 0.077724
 5176         hc    179    bbb     H9   5176 0.06265900   1.008000   ; qtot 0.140383
 5177         hc    179    bbb    H10   5177 0.06265900   1.008000   ; qtot 0.203042
 5178         c3    179    bbb     C6   5178 0.11363000  12.010000   ; qtot 0.316672
 5179         hc    179    bbb    H11   5179 0.06265900   1.008000   ; qtot 0.379331
 5180         hc    179    bbb    H12   5180 0.06265900   1.008000   ; qtot 0.441990
 5181         c3    179    bbb     C7   5181 0.05858200  12.010000   ; qtot 0.500572
 5182         h1    179    bbb    H13   5182 0.06123400   1.008000   ; qtot 0.561806
 5183         h1    179    bbb    H14   5183 0.06123400   1.008000   ; qtot 0.623040
 5184         c3    179    bbb     C8   5184 -0.72423400  12.010000   ; qtot -0.101194
 5185         h1    179    bbb    H15   5185 0.25637600   1.008000   ; qtot 0.155182
 5186         h1    179    bbb    H16   5186 0.25637600   1.008000   ; qtot 0.411558
 5187         c3    179    bbb     C9   5187 -0.72423400  12.010000   ; qtot -0.312676
 5188         h1    179    bbb    H17   5188 0.25637600   1.008000   ; qtot -0.056300
 5189         h1    179    bbb    H18   5189 0.25637600   1.008000   ; qtot 0.200076
 5190         os    179    bbb     O1   5190 -0.20025300  16.000000   ; qtot -0.000177
; residue  180 bbb rtp bbb q -0.0
 5191         n3    180    bbb     N1   5191 -0.59685800  14.010000   ; qtot -0.597035
 5192         c3    180    bbb     C1   5192 0.10137000  12.010000   ; qtot -0.495665
 5193         h1    180    bbb     H1   5193 0.04411300   1.008000   ; qtot -0.451552
 5194         h1    180    bbb     H2   5194 0.04411300   1.008000   ; qtot -0.407439
 5195         c3    180    bbb     C2   5195 0.10137000  12.010000   ; qtot -0.306069
 5196         h1    180    bbb     H3   5196 0.04411300   1.008000   ; qtot -0.261956
 5197         h1    180    bbb     H4   5197 0.04411300   1.008000   ; qtot -0.217843
 5198         c3    180    bbb     C3   5198 -0.00195300  12.010000   ; qtot -0.219796
 5199         h1    180    bbb     H5   5199 0.05064400   1.008000   ; qtot -0.169152
 5200         h1    180    bbb     H6   5200 0.05064400   1.008000   ; qtot -0.118508
 5201         c3    180    bbb     C4   5201 -0.01612100  12.010000   ; qtot -0.134629
 5202         hc    180    bbb     H7   5202 0.04936100   1.008000   ; qtot -0.085268
 5203         hc    180    bbb     H8   5203 0.04936100   1.008000   ; qtot -0.035907
 5204         c3    180    bbb     C5   5204 0.11363000  12.010000   ; qtot 0.077723
 5205         hc    180    bbb     H9   5205 0.06265900   1.008000   ; qtot 0.140382
 5206         hc    180    bbb    H10   5206 0.06265900   1.008000   ; qtot 0.203041
 5207         c3    180    bbb     C6   5207 0.11363000  12.010000   ; qtot 0.316671
 5208         hc    180    bbb    H11   5208 0.06265900   1.008000   ; qtot 0.379330
 5209         hc    180    bbb    H12   5209 0.06265900   1.008000   ; qtot 0.441989
 5210         c3    180    bbb     C7   5210 0.05858200  12.010000   ; qtot 0.500571
 5211         h1    180    bbb    H13   5211 0.06123400   1.008000   ; qtot 0.561805
 5212         h1    180    bbb    H14   5212 0.06123400   1.008000   ; qtot 0.623039
 5213         c3    180    bbb     C8   5213 -0.72423400  12.010000   ; qtot -0.101195
 5214         h1    180    bbb    H15   5214 0.25637600   1.008000   ; qtot 0.155181
 5215         h1    180    bbb    H16   5215 0.25637600   1.008000   ; qtot 0.411557
 5216         c3    180    bbb     C9   5216 -0.72423400  12.010000   ; qtot -0.312677
 5217         h1    180    bbb    H17   5217 0.25637600   1.008000   ; qtot -0.056301
 5218         h1    180    bbb    H18   5218 0.25637600   1.008000   ; qtot 0.200075
 5219         os    180    bbb     O1   5219 -0.20025300  16.000000   ; qtot -0.000178
; residue  181 bbb rtp bbb q -0.0
 5220         n3    181    bbb     N1   5220 -0.59685800  14.010000   ; qtot -0.597036
 5221         c3    181    bbb     C1   5221 0.10137000  12.010000   ; qtot -0.495666
 5222         h1    181    bbb     H1   5222 0.04411300   1.008000   ; qtot -0.451553
 5223         h1    181    bbb     H2   5223 0.04411300   1.008000   ; qtot -0.407440
 5224         c3    181    bbb     C2   5224 0.10137000  12.010000   ; qtot -0.306070
 5225         h1    181    bbb     H3   5225 0.04411300   1.008000   ; qtot -0.261957
 5226         h1    181    bbb     H4   5226 0.04411300   1.008000   ; qtot -0.217844
 5227         c3    181    bbb     C3   5227 -0.00195300  12.010000   ; qtot -0.219797
 5228         h1    181    bbb     H5   5228 0.05064400   1.008000   ; qtot -0.169153
 5229         h1    181    bbb     H6   5229 0.05064400   1.008000   ; qtot -0.118509
 5230         c3    181    bbb     C4   5230 -0.01612100  12.010000   ; qtot -0.134630
 5231         hc    181    bbb     H7   5231 0.04936100   1.008000   ; qtot -0.085269
 5232         hc    181    bbb     H8   5232 0.04936100   1.008000   ; qtot -0.035908
 5233         c3    181    bbb     C5   5233 0.11363000  12.010000   ; qtot 0.077722
 5234         hc    181    bbb     H9   5234 0.06265900   1.008000   ; qtot 0.140381
 5235         hc    181    bbb    H10   5235 0.06265900   1.008000   ; qtot 0.203040
 5236         c3    181    bbb     C6   5236 0.11363000  12.010000   ; qtot 0.316670
 5237         hc    181    bbb    H11   5237 0.06265900   1.008000   ; qtot 0.379329
 5238         hc    181    bbb    H12   5238 0.06265900   1.008000   ; qtot 0.441988
 5239         c3    181    bbb     C7   5239 0.05858200  12.010000   ; qtot 0.500570
 5240         h1    181    bbb    H13   5240 0.06123400   1.008000   ; qtot 0.561804
 5241         h1    181    bbb    H14   5241 0.06123400   1.008000   ; qtot 0.623038
 5242         c3    181    bbb     C8   5242 -0.72423400  12.010000   ; qtot -0.101196
 5243         h1    181    bbb    H15   5243 0.25637600   1.008000   ; qtot 0.155180
 5244         h1    181    bbb    H16   5244 0.25637600   1.008000   ; qtot 0.411556
 5245         c3    181    bbb     C9   5245 -0.72423400  12.010000   ; qtot -0.312678
 5246         h1    181    bbb    H17   5246 0.25637600   1.008000   ; qtot -0.056302
 5247         h1    181    bbb    H18   5247 0.25637600   1.008000   ; qtot 0.200074
 5248         os    181    bbb     O1   5248 -0.20025300  16.000000   ; qtot -0.000179
; residue  182 bbb rtp bbb q -0.0
 5249         n3    182    bbb     N1   5249 -0.59685800  14.010000   ; qtot -0.597037
 5250         c3    182    bbb     C1   5250 0.10137000  12.010000   ; qtot -0.495667
 5251         h1    182    bbb     H1   5251 0.04411300   1.008000   ; qtot -0.451554
 5252         h1    182    bbb     H2   5252 0.04411300   1.008000   ; qtot -0.407441
 5253         c3    182    bbb     C2   5253 0.10137000  12.010000   ; qtot -0.306071
 5254         h1    182    bbb     H3   5254 0.04411300   1.008000   ; qtot -0.261958
 5255         h1    182    bbb     H4   5255 0.04411300   1.008000   ; qtot -0.217845
 5256         c3    182    bbb     C3   5256 -0.00195300  12.010000   ; qtot -0.219798
 5257         h1    182    bbb     H5   5257 0.05064400   1.008000   ; qtot -0.169154
 5258         h1    182    bbb     H6   5258 0.05064400   1.008000   ; qtot -0.118510
 5259         c3    182    bbb     C4   5259 -0.01612100  12.010000   ; qtot -0.134631
 5260         hc    182    bbb     H7   5260 0.04936100   1.008000   ; qtot -0.085270
 5261         hc    182    bbb     H8   5261 0.04936100   1.008000   ; qtot -0.035909
 5262         c3    182    bbb     C5   5262 0.11363000  12.010000   ; qtot 0.077721
 5263         hc    182    bbb     H9   5263 0.06265900   1.008000   ; qtot 0.140380
 5264         hc    182    bbb    H10   5264 0.06265900   1.008000   ; qtot 0.203039
 5265         c3    182    bbb     C6   5265 0.11363000  12.010000   ; qtot 0.316669
 5266         hc    182    bbb    H11   5266 0.06265900   1.008000   ; qtot 0.379328
 5267         hc    182    bbb    H12   5267 0.06265900   1.008000   ; qtot 0.441987
 5268         c3    182    bbb     C7   5268 0.05858200  12.010000   ; qtot 0.500569
 5269         h1    182    bbb    H13   5269 0.06123400   1.008000   ; qtot 0.561803
 5270         h1    182    bbb    H14   5270 0.06123400   1.008000   ; qtot 0.623037
 5271         c3    182    bbb     C8   5271 -0.72423400  12.010000   ; qtot -0.101197
 5272         h1    182    bbb    H15   5272 0.25637600   1.008000   ; qtot 0.155179
 5273         h1    182    bbb    H16   5273 0.25637600   1.008000   ; qtot 0.411555
 5274         c3    182    bbb     C9   5274 -0.72423400  12.010000   ; qtot -0.312679
 5275         h1    182    bbb    H17   5275 0.25637600   1.008000   ; qtot -0.056303
 5276         h1    182    bbb    H18   5276 0.25637600   1.008000   ; qtot 0.200073
 5277         os    182    bbb     O1   5277 -0.20025300  16.000000   ; qtot -0.000180
; residue  183 bbb rtp bbb q -0.0
 5278         n3    183    bbb     N1   5278 -0.59685800  14.010000   ; qtot -0.597038
 5279         c3    183    bbb     C1   5279 0.10137000  12.010000   ; qtot -0.495668
 5280         h1    183    bbb     H1   5280 0.04411300   1.008000   ; qtot -0.451555
 5281         h1    183    bbb     H2   5281 0.04411300   1.008000   ; qtot -0.407442
 5282         c3    183    bbb     C2   5282 0.10137000  12.010000   ; qtot -0.306072
 5283         h1    183    bbb     H3   5283 0.04411300   1.008000   ; qtot -0.261959
 5284         h1    183    bbb     H4   5284 0.04411300   1.008000   ; qtot -0.217846
 5285         c3    183    bbb     C3   5285 -0.00195300  12.010000   ; qtot -0.219799
 5286         h1    183    bbb     H5   5286 0.05064400   1.008000   ; qtot -0.169155
 5287         h1    183    bbb     H6   5287 0.05064400   1.008000   ; qtot -0.118511
 5288         c3    183    bbb     C4   5288 -0.01612100  12.010000   ; qtot -0.134632
 5289         hc    183    bbb     H7   5289 0.04936100   1.008000   ; qtot -0.085271
 5290         hc    183    bbb     H8   5290 0.04936100   1.008000   ; qtot -0.035910
 5291         c3    183    bbb     C5   5291 0.11363000  12.010000   ; qtot 0.077720
 5292         hc    183    bbb     H9   5292 0.06265900   1.008000   ; qtot 0.140379
 5293         hc    183    bbb    H10   5293 0.06265900   1.008000   ; qtot 0.203038
 5294         c3    183    bbb     C6   5294 0.11363000  12.010000   ; qtot 0.316668
 5295         hc    183    bbb    H11   5295 0.06265900   1.008000   ; qtot 0.379327
 5296         hc    183    bbb    H12   5296 0.06265900   1.008000   ; qtot 0.441986
 5297         c3    183    bbb     C7   5297 0.05858200  12.010000   ; qtot 0.500568
 5298         h1    183    bbb    H13   5298 0.06123400   1.008000   ; qtot 0.561802
 5299         h1    183    bbb    H14   5299 0.06123400   1.008000   ; qtot 0.623036
 5300         c3    183    bbb     C8   5300 -0.72423400  12.010000   ; qtot -0.101198
 5301         h1    183    bbb    H15   5301 0.25637600   1.008000   ; qtot 0.155178
 5302         h1    183    bbb    H16   5302 0.25637600   1.008000   ; qtot 0.411554
 5303         c3    183    bbb     C9   5303 -0.72423400  12.010000   ; qtot -0.312680
 5304         h1    183    bbb    H17   5304 0.25637600   1.008000   ; qtot -0.056304
 5305         h1    183    bbb    H18   5305 0.25637600   1.008000   ; qtot 0.200072
 5306         os    183    bbb     O1   5306 -0.20025300  16.000000   ; qtot -0.000181
; residue  184 bbb rtp bbb q -0.0
 5307         n3    184    bbb     N1   5307 -0.59685800  14.010000   ; qtot -0.597039
 5308         c3    184    bbb     C1   5308 0.10137000  12.010000   ; qtot -0.495669
 5309         h1    184    bbb     H1   5309 0.04411300   1.008000   ; qtot -0.451556
 5310         h1    184    bbb     H2   5310 0.04411300   1.008000   ; qtot -0.407443
 5311         c3    184    bbb     C2   5311 0.10137000  12.010000   ; qtot -0.306073
 5312         h1    184    bbb     H3   5312 0.04411300   1.008000   ; qtot -0.261960
 5313         h1    184    bbb     H4   5313 0.04411300   1.008000   ; qtot -0.217847
 5314         c3    184    bbb     C3   5314 -0.00195300  12.010000   ; qtot -0.219800
 5315         h1    184    bbb     H5   5315 0.05064400   1.008000   ; qtot -0.169156
 5316         h1    184    bbb     H6   5316 0.05064400   1.008000   ; qtot -0.118512
 5317         c3    184    bbb     C4   5317 -0.01612100  12.010000   ; qtot -0.134633
 5318         hc    184    bbb     H7   5318 0.04936100   1.008000   ; qtot -0.085272
 5319         hc    184    bbb     H8   5319 0.04936100   1.008000   ; qtot -0.035911
 5320         c3    184    bbb     C5   5320 0.11363000  12.010000   ; qtot 0.077719
 5321         hc    184    bbb     H9   5321 0.06265900   1.008000   ; qtot 0.140378
 5322         hc    184    bbb    H10   5322 0.06265900   1.008000   ; qtot 0.203037
 5323         c3    184    bbb     C6   5323 0.11363000  12.010000   ; qtot 0.316667
 5324         hc    184    bbb    H11   5324 0.06265900   1.008000   ; qtot 0.379326
 5325         hc    184    bbb    H12   5325 0.06265900   1.008000   ; qtot 0.441985
 5326         c3    184    bbb     C7   5326 0.05858200  12.010000   ; qtot 0.500567
 5327         h1    184    bbb    H13   5327 0.06123400   1.008000   ; qtot 0.561801
 5328         h1    184    bbb    H14   5328 0.06123400   1.008000   ; qtot 0.623035
 5329         c3    184    bbb     C8   5329 -0.72423400  12.010000   ; qtot -0.101199
 5330         h1    184    bbb    H15   5330 0.25637600   1.008000   ; qtot 0.155177
 5331         h1    184    bbb    H16   5331 0.25637600   1.008000   ; qtot 0.411553
 5332         c3    184    bbb     C9   5332 -0.72423400  12.010000   ; qtot -0.312681
 5333         h1    184    bbb    H17   5333 0.25637600   1.008000   ; qtot -0.056305
 5334         h1    184    bbb    H18   5334 0.25637600   1.008000   ; qtot 0.200071
 5335         os    184    bbb     O1   5335 -0.20025300  16.000000   ; qtot -0.000182
; residue  185 bbb rtp bbb q -0.0
 5336         n3    185    bbb     N1   5336 -0.59685800  14.010000   ; qtot -0.597040
 5337         c3    185    bbb     C1   5337 0.10137000  12.010000   ; qtot -0.495670
 5338         h1    185    bbb     H1   5338 0.04411300   1.008000   ; qtot -0.451557
 5339         h1    185    bbb     H2   5339 0.04411300   1.008000   ; qtot -0.407444
 5340         c3    185    bbb     C2   5340 0.10137000  12.010000   ; qtot -0.306074
 5341         h1    185    bbb     H3   5341 0.04411300   1.008000   ; qtot -0.261961
 5342         h1    185    bbb     H4   5342 0.04411300   1.008000   ; qtot -0.217848
 5343         c3    185    bbb     C3   5343 -0.00195300  12.010000   ; qtot -0.219801
 5344         h1    185    bbb     H5   5344 0.05064400   1.008000   ; qtot -0.169157
 5345         h1    185    bbb     H6   5345 0.05064400   1.008000   ; qtot -0.118513
 5346         c3    185    bbb     C4   5346 -0.01612100  12.010000   ; qtot -0.134634
 5347         hc    185    bbb     H7   5347 0.04936100   1.008000   ; qtot -0.085273
 5348         hc    185    bbb     H8   5348 0.04936100   1.008000   ; qtot -0.035912
 5349         c3    185    bbb     C5   5349 0.11363000  12.010000   ; qtot 0.077718
 5350         hc    185    bbb     H9   5350 0.06265900   1.008000   ; qtot 0.140377
 5351         hc    185    bbb    H10   5351 0.06265900   1.008000   ; qtot 0.203036
 5352         c3    185    bbb     C6   5352 0.11363000  12.010000   ; qtot 0.316666
 5353         hc    185    bbb    H11   5353 0.06265900   1.008000   ; qtot 0.379325
 5354         hc    185    bbb    H12   5354 0.06265900   1.008000   ; qtot 0.441984
 5355         c3    185    bbb     C7   5355 0.05858200  12.010000   ; qtot 0.500566
 5356         h1    185    bbb    H13   5356 0.06123400   1.008000   ; qtot 0.561800
 5357         h1    185    bbb    H14   5357 0.06123400   1.008000   ; qtot 0.623034
 5358         c3    185    bbb     C8   5358 -0.72423400  12.010000   ; qtot -0.101200
 5359         h1    185    bbb    H15   5359 0.25637600   1.008000   ; qtot 0.155176
 5360         h1    185    bbb    H16   5360 0.25637600   1.008000   ; qtot 0.411552
 5361         c3    185    bbb     C9   5361 -0.72423400  12.010000   ; qtot -0.312682
 5362         h1    185    bbb    H17   5362 0.25637600   1.008000   ; qtot -0.056306
 5363         h1    185    bbb    H18   5363 0.25637600   1.008000   ; qtot 0.200070
 5364         os    185    bbb     O1   5364 -0.20025300  16.000000   ; qtot -0.000183
; residue  186 bbb rtp bbb q -0.0
 5365         n3    186    bbb     N1   5365 -0.59685800  14.010000   ; qtot -0.597041
 5366         c3    186    bbb     C1   5366 0.10137000  12.010000   ; qtot -0.495671
 5367         h1    186    bbb     H1   5367 0.04411300   1.008000   ; qtot -0.451558
 5368         h1    186    bbb     H2   5368 0.04411300   1.008000   ; qtot -0.407445
 5369         c3    186    bbb     C2   5369 0.10137000  12.010000   ; qtot -0.306075
 5370         h1    186    bbb     H3   5370 0.04411300   1.008000   ; qtot -0.261962
 5371         h1    186    bbb     H4   5371 0.04411300   1.008000   ; qtot -0.217849
 5372         c3    186    bbb     C3   5372 -0.00195300  12.010000   ; qtot -0.219802
 5373         h1    186    bbb     H5   5373 0.05064400   1.008000   ; qtot -0.169158
 5374         h1    186    bbb     H6   5374 0.05064400   1.008000   ; qtot -0.118514
 5375         c3    186    bbb     C4   5375 -0.01612100  12.010000   ; qtot -0.134635
 5376         hc    186    bbb     H7   5376 0.04936100   1.008000   ; qtot -0.085274
 5377         hc    186    bbb     H8   5377 0.04936100   1.008000   ; qtot -0.035913
 5378         c3    186    bbb     C5   5378 0.11363000  12.010000   ; qtot 0.077717
 5379         hc    186    bbb     H9   5379 0.06265900   1.008000   ; qtot 0.140376
 5380         hc    186    bbb    H10   5380 0.06265900   1.008000   ; qtot 0.203035
 5381         c3    186    bbb     C6   5381 0.11363000  12.010000   ; qtot 0.316665
 5382         hc    186    bbb    H11   5382 0.06265900   1.008000   ; qtot 0.379324
 5383         hc    186    bbb    H12   5383 0.06265900   1.008000   ; qtot 0.441983
 5384         c3    186    bbb     C7   5384 0.05858200  12.010000   ; qtot 0.500565
 5385         h1    186    bbb    H13   5385 0.06123400   1.008000   ; qtot 0.561799
 5386         h1    186    bbb    H14   5386 0.06123400   1.008000   ; qtot 0.623033
 5387         c3    186    bbb     C8   5387 -0.72423400  12.010000   ; qtot -0.101201
 5388         h1    186    bbb    H15   5388 0.25637600   1.008000   ; qtot 0.155175
 5389         h1    186    bbb    H16   5389 0.25637600   1.008000   ; qtot 0.411551
 5390         c3    186    bbb     C9   5390 -0.72423400  12.010000   ; qtot -0.312683
 5391         h1    186    bbb    H17   5391 0.25637600   1.008000   ; qtot -0.056307
 5392         h1    186    bbb    H18   5392 0.25637600   1.008000   ; qtot 0.200069
 5393         os    186    bbb     O1   5393 -0.20025300  16.000000   ; qtot -0.000184
; residue  187 bbb rtp bbb q -0.0
 5394         n3    187    bbb     N1   5394 -0.59685800  14.010000   ; qtot -0.597042
 5395         c3    187    bbb     C1   5395 0.10137000  12.010000   ; qtot -0.495672
 5396         h1    187    bbb     H1   5396 0.04411300   1.008000   ; qtot -0.451559
 5397         h1    187    bbb     H2   5397 0.04411300   1.008000   ; qtot -0.407446
 5398         c3    187    bbb     C2   5398 0.10137000  12.010000   ; qtot -0.306076
 5399         h1    187    bbb     H3   5399 0.04411300   1.008000   ; qtot -0.261963
 5400         h1    187    bbb     H4   5400 0.04411300   1.008000   ; qtot -0.217850
 5401         c3    187    bbb     C3   5401 -0.00195300  12.010000   ; qtot -0.219803
 5402         h1    187    bbb     H5   5402 0.05064400   1.008000   ; qtot -0.169159
 5403         h1    187    bbb     H6   5403 0.05064400   1.008000   ; qtot -0.118515
 5404         c3    187    bbb     C4   5404 -0.01612100  12.010000   ; qtot -0.134636
 5405         hc    187    bbb     H7   5405 0.04936100   1.008000   ; qtot -0.085275
 5406         hc    187    bbb     H8   5406 0.04936100   1.008000   ; qtot -0.035914
 5407         c3    187    bbb     C5   5407 0.11363000  12.010000   ; qtot 0.077716
 5408         hc    187    bbb     H9   5408 0.06265900   1.008000   ; qtot 0.140375
 5409         hc    187    bbb    H10   5409 0.06265900   1.008000   ; qtot 0.203034
 5410         c3    187    bbb     C6   5410 0.11363000  12.010000   ; qtot 0.316664
 5411         hc    187    bbb    H11   5411 0.06265900   1.008000   ; qtot 0.379323
 5412         hc    187    bbb    H12   5412 0.06265900   1.008000   ; qtot 0.441982
 5413         c3    187    bbb     C7   5413 0.05858200  12.010000   ; qtot 0.500564
 5414         h1    187    bbb    H13   5414 0.06123400   1.008000   ; qtot 0.561798
 5415         h1    187    bbb    H14   5415 0.06123400   1.008000   ; qtot 0.623032
 5416         c3    187    bbb     C8   5416 -0.72423400  12.010000   ; qtot -0.101202
 5417         h1    187    bbb    H15   5417 0.25637600   1.008000   ; qtot 0.155174
 5418         h1    187    bbb    H16   5418 0.25637600   1.008000   ; qtot 0.411550
 5419         c3    187    bbb     C9   5419 -0.72423400  12.010000   ; qtot -0.312684
 5420         h1    187    bbb    H17   5420 0.25637600   1.008000   ; qtot -0.056308
 5421         h1    187    bbb    H18   5421 0.25637600   1.008000   ; qtot 0.200068
 5422         os    187    bbb     O1   5422 -0.20025300  16.000000   ; qtot -0.000185
; residue  188 bbb rtp bbb q -0.0
 5423         n3    188    bbb     N1   5423 -0.59685800  14.010000   ; qtot -0.597043
 5424         c3    188    bbb     C1   5424 0.10137000  12.010000   ; qtot -0.495673
 5425         h1    188    bbb     H1   5425 0.04411300   1.008000   ; qtot -0.451560
 5426         h1    188    bbb     H2   5426 0.04411300   1.008000   ; qtot -0.407447
 5427         c3    188    bbb     C2   5427 0.10137000  12.010000   ; qtot -0.306077
 5428         h1    188    bbb     H3   5428 0.04411300   1.008000   ; qtot -0.261964
 5429         h1    188    bbb     H4   5429 0.04411300   1.008000   ; qtot -0.217851
 5430         c3    188    bbb     C3   5430 -0.00195300  12.010000   ; qtot -0.219804
 5431         h1    188    bbb     H5   5431 0.05064400   1.008000   ; qtot -0.169160
 5432         h1    188    bbb     H6   5432 0.05064400   1.008000   ; qtot -0.118516
 5433         c3    188    bbb     C4   5433 -0.01612100  12.010000   ; qtot -0.134637
 5434         hc    188    bbb     H7   5434 0.04936100   1.008000   ; qtot -0.085276
 5435         hc    188    bbb     H8   5435 0.04936100   1.008000   ; qtot -0.035915
 5436         c3    188    bbb     C5   5436 0.11363000  12.010000   ; qtot 0.077715
 5437         hc    188    bbb     H9   5437 0.06265900   1.008000   ; qtot 0.140374
 5438         hc    188    bbb    H10   5438 0.06265900   1.008000   ; qtot 0.203033
 5439         c3    188    bbb     C6   5439 0.11363000  12.010000   ; qtot 0.316663
 5440         hc    188    bbb    H11   5440 0.06265900   1.008000   ; qtot 0.379322
 5441         hc    188    bbb    H12   5441 0.06265900   1.008000   ; qtot 0.441981
 5442         c3    188    bbb     C7   5442 0.05858200  12.010000   ; qtot 0.500563
 5443         h1    188    bbb    H13   5443 0.06123400   1.008000   ; qtot 0.561797
 5444         h1    188    bbb    H14   5444 0.06123400   1.008000   ; qtot 0.623031
 5445         c3    188    bbb     C8   5445 -0.72423400  12.010000   ; qtot -0.101203
 5446         h1    188    bbb    H15   5446 0.25637600   1.008000   ; qtot 0.155173
 5447         h1    188    bbb    H16   5447 0.25637600   1.008000   ; qtot 0.411549
 5448         c3    188    bbb     C9   5448 -0.72423400  12.010000   ; qtot -0.312685
 5449         h1    188    bbb    H17   5449 0.25637600   1.008000   ; qtot -0.056309
 5450         h1    188    bbb    H18   5450 0.25637600   1.008000   ; qtot 0.200067
 5451         os    188    bbb     O1   5451 -0.20025300  16.000000   ; qtot -0.000186
; residue  189 bbb rtp bbb q -0.0
 5452         n3    189    bbb     N1   5452 -0.59685800  14.010000   ; qtot -0.597044
 5453         c3    189    bbb     C1   5453 0.10137000  12.010000   ; qtot -0.495674
 5454         h1    189    bbb     H1   5454 0.04411300   1.008000   ; qtot -0.451561
 5455         h1    189    bbb     H2   5455 0.04411300   1.008000   ; qtot -0.407448
 5456         c3    189    bbb     C2   5456 0.10137000  12.010000   ; qtot -0.306078
 5457         h1    189    bbb     H3   5457 0.04411300   1.008000   ; qtot -0.261965
 5458         h1    189    bbb     H4   5458 0.04411300   1.008000   ; qtot -0.217852
 5459         c3    189    bbb     C3   5459 -0.00195300  12.010000   ; qtot -0.219805
 5460         h1    189    bbb     H5   5460 0.05064400   1.008000   ; qtot -0.169161
 5461         h1    189    bbb     H6   5461 0.05064400   1.008000   ; qtot -0.118517
 5462         c3    189    bbb     C4   5462 -0.01612100  12.010000   ; qtot -0.134638
 5463         hc    189    bbb     H7   5463 0.04936100   1.008000   ; qtot -0.085277
 5464         hc    189    bbb     H8   5464 0.04936100   1.008000   ; qtot -0.035916
 5465         c3    189    bbb     C5   5465 0.11363000  12.010000   ; qtot 0.077714
 5466         hc    189    bbb     H9   5466 0.06265900   1.008000   ; qtot 0.140373
 5467         hc    189    bbb    H10   5467 0.06265900   1.008000   ; qtot 0.203032
 5468         c3    189    bbb     C6   5468 0.11363000  12.010000   ; qtot 0.316662
 5469         hc    189    bbb    H11   5469 0.06265900   1.008000   ; qtot 0.379321
 5470         hc    189    bbb    H12   5470 0.06265900   1.008000   ; qtot 0.441980
 5471         c3    189    bbb     C7   5471 0.05858200  12.010000   ; qtot 0.500562
 5472         h1    189    bbb    H13   5472 0.06123400   1.008000   ; qtot 0.561796
 5473         h1    189    bbb    H14   5473 0.06123400   1.008000   ; qtot 0.623030
 5474         c3    189    bbb     C8   5474 -0.72423400  12.010000   ; qtot -0.101204
 5475         h1    189    bbb    H15   5475 0.25637600   1.008000   ; qtot 0.155172
 5476         h1    189    bbb    H16   5476 0.25637600   1.008000   ; qtot 0.411548
 5477         c3    189    bbb     C9   5477 -0.72423400  12.010000   ; qtot -0.312686
 5478         h1    189    bbb    H17   5478 0.25637600   1.008000   ; qtot -0.056310
 5479         h1    189    bbb    H18   5479 0.25637600   1.008000   ; qtot 0.200066
 5480         os    189    bbb     O1   5480 -0.20025300  16.000000   ; qtot -0.000187
; residue  190 bbb rtp bbb q -0.0
 5481         n3    190    bbb     N1   5481 -0.59685800  14.010000   ; qtot -0.597045
 5482         c3    190    bbb     C1   5482 0.10137000  12.010000   ; qtot -0.495675
 5483         h1    190    bbb     H1   5483 0.04411300   1.008000   ; qtot -0.451562
 5484         h1    190    bbb     H2   5484 0.04411300   1.008000   ; qtot -0.407449
 5485         c3    190    bbb     C2   5485 0.10137000  12.010000   ; qtot -0.306079
 5486         h1    190    bbb     H3   5486 0.04411300   1.008000   ; qtot -0.261966
 5487         h1    190    bbb     H4   5487 0.04411300   1.008000   ; qtot -0.217853
 5488         c3    190    bbb     C3   5488 -0.00195300  12.010000   ; qtot -0.219806
 5489         h1    190    bbb     H5   5489 0.05064400   1.008000   ; qtot -0.169162
 5490         h1    190    bbb     H6   5490 0.05064400   1.008000   ; qtot -0.118518
 5491         c3    190    bbb     C4   5491 -0.01612100  12.010000   ; qtot -0.134639
 5492         hc    190    bbb     H7   5492 0.04936100   1.008000   ; qtot -0.085278
 5493         hc    190    bbb     H8   5493 0.04936100   1.008000   ; qtot -0.035917
 5494         c3    190    bbb     C5   5494 0.11363000  12.010000   ; qtot 0.077713
 5495         hc    190    bbb     H9   5495 0.06265900   1.008000   ; qtot 0.140372
 5496         hc    190    bbb    H10   5496 0.06265900   1.008000   ; qtot 0.203031
 5497         c3    190    bbb     C6   5497 0.11363000  12.010000   ; qtot 0.316661
 5498         hc    190    bbb    H11   5498 0.06265900   1.008000   ; qtot 0.379320
 5499         hc    190    bbb    H12   5499 0.06265900   1.008000   ; qtot 0.441979
 5500         c3    190    bbb     C7   5500 0.05858200  12.010000   ; qtot 0.500561
 5501         h1    190    bbb    H13   5501 0.06123400   1.008000   ; qtot 0.561795
 5502         h1    190    bbb    H14   5502 0.06123400   1.008000   ; qtot 0.623029
 5503         c3    190    bbb     C8   5503 -0.72423400  12.010000   ; qtot -0.101205
 5504         h1    190    bbb    H15   5504 0.25637600   1.008000   ; qtot 0.155171
 5505         h1    190    bbb    H16   5505 0.25637600   1.008000   ; qtot 0.411547
 5506         c3    190    bbb     C9   5506 -0.72423400  12.010000   ; qtot -0.312687
 5507         h1    190    bbb    H17   5507 0.25637600   1.008000   ; qtot -0.056311
 5508         h1    190    bbb    H18   5508 0.25637600   1.008000   ; qtot 0.200065
 5509         os    190    bbb     O1   5509 -0.20025300  16.000000   ; qtot -0.000188
; residue  191 ccc rtp ccc q 0.0
 5510         c3    191    ccc     C1   5510 -0.33178800  12.010000   ; qtot -0.331976
 5511         c3    191    ccc     C2   5511 0.30606500  12.010000   ; qtot -0.025911
 5512         h1    191    ccc     H1   5512 0.11662300   1.008000   ; qtot 0.090712
 5513         h1    191    ccc     H2   5513 0.11526800   1.008000   ; qtot 0.205980
 5514         c3    191    ccc     C3   5514 0.15592700  12.010000   ; qtot 0.361907
 5515         c3    191    ccc     C4   5515 0.28383300  12.010000   ; qtot 0.645740
 5516         c3    191    ccc     C5   5516 0.32403300  12.010000   ; qtot 0.969773
 5517         h1    191    ccc     H3   5517 0.13386900   1.008000   ; qtot 1.103642
 5518         h1    191    ccc     H4   5518 0.10146700   1.008000   ; qtot 1.205109
 5519         h2    191    ccc     H5   5519 0.10960400   1.008000   ; qtot 1.314713
 5520         os    191    ccc     O1   5520 -0.28650000  16.000000   ; qtot 1.028213
 5521         oh    191    ccc     O2   5521 -0.86012500  16.000000   ; qtot 0.168088
 5522         oh    191    ccc     O3   5522 -0.83772800  16.000000   ; qtot -0.669640
 5523         oh    191    ccc     O4   5523 -0.77449700  16.000000   ; qtot -1.444137
 5524         c3    191    ccc     C6   5524 0.37576500  12.010000   ; qtot -1.068372
 5525         ho    191    ccc     H6   5525 0.53656000   1.008000   ; qtot -0.531812
 5526         ho    191    ccc     H7   5526 0.49492100   1.008000   ; qtot -0.036891
 5527         ho    191    ccc     H8   5527 0.51297200   1.008000   ; qtot 0.476081
 5528         h1    191    ccc     H9   5528 0.05653400   1.008000   ; qtot 0.532615
 5529         h1    191    ccc    H10   5529 0.05653400   1.008000   ; qtot 0.589149
 5530         oh    191    ccc     O5   5530 -0.84113600  16.000000   ; qtot -0.251987
 5531         ho    191    ccc    H11   5531 0.51201600   1.008000   ; qtot 0.260029
 5532         os    191    ccc     O6   5532 -0.26013600  16.000000   ; qtot -0.000107
; residue  192 ccc rtp ccc q 0.0
 5533         c3    192    ccc     C1   5533 -0.33178800  12.010000   ; qtot -0.331895
 5534         c3    192    ccc     C2   5534 0.30606500  12.010000   ; qtot -0.025830
 5535         h1    192    ccc     H1   5535 0.11662300   1.008000   ; qtot 0.090793
 5536         h1    192    ccc     H2   5536 0.11526800   1.008000   ; qtot 0.206061
 5537         c3    192    ccc     C3   5537 0.15592700  12.010000   ; qtot 0.361988
 5538         c3    192    ccc     C4   5538 0.28383300  12.010000   ; qtot 0.645821
 5539         c3    192    ccc     C5   5539 0.32403300  12.010000   ; qtot 0.969854
 5540         h1    192    ccc     H3   5540 0.13386900   1.008000   ; qtot 1.103723
 5541         h1    192    ccc     H4   5541 0.10146700   1.008000   ; qtot 1.205190
 5542         h2    192    ccc     H5   5542 0.10960400   1.008000   ; qtot 1.314794
 5543         os    192    ccc     O1   5543 -0.28650000  16.000000   ; qtot 1.028294
 5544         oh    192    ccc     O2   5544 -0.86012500  16.000000   ; qtot 0.168169
 5545         oh    192    ccc     O3   5545 -0.83772800  16.000000   ; qtot -0.669559
 5546         oh    192    ccc     O4   5546 -0.77449700  16.000000   ; qtot -1.444056
 5547         c3    192    ccc     C6   5547 0.37576500  12.010000   ; qtot -1.068291
 5548         ho    192    ccc     H6   5548 0.53656000   1.008000   ; qtot -0.531731
 5549         ho    192    ccc     H7   5549 0.49492100   1.008000   ; qtot -0.036810
 5550         ho    192    ccc     H8   5550 0.51297200   1.008000   ; qtot 0.476162
 5551         h1    192    ccc     H9   5551 0.05653400   1.008000   ; qtot 0.532696
 5552         h1    192    ccc    H10   5552 0.05653400   1.008000   ; qtot 0.589230
 5553         oh    192    ccc     O5   5553 -0.84113600  16.000000   ; qtot -0.251906
 5554         ho    192    ccc    H11   5554 0.51201600   1.008000   ; qtot 0.260110
 5555         os    192    ccc     O6   5555 -0.26013600  16.000000   ; qtot -0.000026
; residue  193 ccc rtp ccc q 0.0
 5556         c3    193    ccc     C1   5556 -0.33178800  12.010000   ; qtot -0.331814
 5557         c3    193    ccc     C2   5557 0.30606500  12.010000   ; qtot -0.025749
 5558         h1    193    ccc     H1   5558 0.11662300   1.008000   ; qtot 0.090874
 5559         h1    193    ccc     H2   5559 0.11526800   1.008000   ; qtot 0.206142
 5560         c3    193    ccc     C3   5560 0.15592700  12.010000   ; qtot 0.362069
 5561         c3    193    ccc     C4   5561 0.28383300  12.010000   ; qtot 0.645902
 5562         c3    193    ccc     C5   5562 0.32403300  12.010000   ; qtot 0.969935
 5563         h1    193    ccc     H3   5563 0.13386900   1.008000   ; qtot 1.103804
 5564         h1    193    ccc     H4   5564 0.10146700   1.008000   ; qtot 1.205271
 5565         h2    193    ccc     H5   5565 0.10960400   1.008000   ; qtot 1.314875
 5566         os    193    ccc     O1   5566 -0.28650000  16.000000   ; qtot 1.028375
 5567         oh    193    ccc     O2   5567 -0.86012500  16.000000   ; qtot 0.168250
 5568         oh    193    ccc     O3   5568 -0.83772800  16.000000   ; qtot -0.669478
 5569         oh    193    ccc     O4   5569 -0.77449700  16.000000   ; qtot -1.443975
 5570         c3    193    ccc     C6   5570 0.37576500  12.010000   ; qtot -1.068210
 5571         ho    193    ccc     H6   5571 0.53656000   1.008000   ; qtot -0.531650
 5572         ho    193    ccc     H7   5572 0.49492100   1.008000   ; qtot -0.036729
 5573         ho    193    ccc     H8   5573 0.51297200   1.008000   ; qtot 0.476243
 5574         h1    193    ccc     H9   5574 0.05653400   1.008000   ; qtot 0.532777
 5575         h1    193    ccc    H10   5575 0.05653400   1.008000   ; qtot 0.589311
 5576         oh    193    ccc     O5   5576 -0.84113600  16.000000   ; qtot -0.251825
 5577         ho    193    ccc    H11   5577 0.51201600   1.008000   ; qtot 0.260191
 5578         os    193    ccc     O6   5578 -0.26013600  16.000000   ; qtot 0.000055
; residue  194 ccc rtp ccc q 0.0
 5579         c3    194    ccc     C1   5579 -0.33178800  12.010000   ; qtot -0.331733
 5580         c3    194    ccc     C2   5580 0.30606500  12.010000   ; qtot -0.025668
 5581         h1    194    ccc     H1   5581 0.11662300   1.008000   ; qtot 0.090955
 5582         h1    194    ccc     H2   5582 0.11526800   1.008000   ; qtot 0.206223
 5583         c3    194    ccc     C3   5583 0.15592700  12.010000   ; qtot 0.362150
 5584         c3    194    ccc     C4   5584 0.28383300  12.010000   ; qtot 0.645983
 5585         c3    194    ccc     C5   5585 0.32403300  12.010000   ; qtot 0.970016
 5586         h1    194    ccc     H3   5586 0.13386900   1.008000   ; qtot 1.103885
 5587         h1    194    ccc     H4   5587 0.10146700   1.008000   ; qtot 1.205352
 5588         h2    194    ccc     H5   5588 0.10960400   1.008000   ; qtot 1.314956
 5589         os    194    ccc     O1   5589 -0.28650000  16.000000   ; qtot 1.028456
 5590         oh    194    ccc     O2   5590 -0.86012500  16.000000   ; qtot 0.168331
 5591         oh    194    ccc     O3   5591 -0.83772800  16.000000   ; qtot -0.669397
 5592         oh    194    ccc     O4   5592 -0.77449700  16.000000   ; qtot -1.443894
 5593         c3    194    ccc     C6   5593 0.37576500  12.010000   ; qtot -1.068129
 5594         ho    194    ccc     H6   5594 0.53656000   1.008000   ; qtot -0.531569
 5595         ho    194    ccc     H7   5595 0.49492100   1.008000   ; qtot -0.036648
 5596         ho    194    ccc     H8   5596 0.51297200   1.008000   ; qtot 0.476324
 5597         h1    194    ccc     H9   5597 0.05653400   1.008000   ; qtot 0.532858
 5598         h1    194    ccc    H10   5598 0.05653400   1.008000   ; qtot 0.589392
 5599         oh    194    ccc     O5   5599 -0.84113600  16.000000   ; qtot -0.251744
 5600         ho    194    ccc    H11   5600 0.51201600   1.008000   ; qtot 0.260272
 5601         os    194    ccc     O6   5601 -0.26013600  16.000000   ; qtot 0.000136
; residue  195 ccc rtp ccc q 0.0
 5602         c3    195    ccc     C1   5602 -0.33178800  12.010000   ; qtot -0.331652
 5603         c3    195    ccc     C2   5603 0.30606500  12.010000   ; qtot -0.025587
 5604         h1    195    ccc     H1   5604 0.11662300   1.008000   ; qtot 0.091036
 5605         h1    195    ccc     H2   5605 0.11526800   1.008000   ; qtot 0.206304
 5606         c3    195    ccc     C3   5606 0.15592700  12.010000   ; qtot 0.362231
 5607         c3    195    ccc     C4   5607 0.28383300  12.010000   ; qtot 0.646064
 5608         c3    195    ccc     C5   5608 0.32403300  12.010000   ; qtot 0.970097
 5609         h1    195    ccc     H3   5609 0.13386900   1.008000   ; qtot 1.103966
 5610         h1    195    ccc     H4   5610 0.10146700   1.008000   ; qtot 1.205433
 5611         h2    195    ccc     H5   5611 0.10960400   1.008000   ; qtot 1.315037
 5612         os    195    ccc     O1   5612 -0.28650000  16.000000   ; qtot 1.028537
 5613         oh    195    ccc     O2   5613 -0.86012500  16.000000   ; qtot 0.168412
 5614         oh    195    ccc     O3   5614 -0.83772800  16.000000   ; qtot -0.669316
 5615         oh    195    ccc     O4   5615 -0.77449700  16.000000   ; qtot -1.443813
 5616         c3    195    ccc     C6   5616 0.37576500  12.010000   ; qtot -1.068048
 5617         ho    195    ccc     H6   5617 0.53656000   1.008000   ; qtot -0.531488
 5618         ho    195    ccc     H7   5618 0.49492100   1.008000   ; qtot -0.036567
 5619         ho    195    ccc     H8   5619 0.51297200   1.008000   ; qtot 0.476405
 5620         h1    195    ccc     H9   5620 0.05653400   1.008000   ; qtot 0.532939
 5621         h1    195    ccc    H10   5621 0.05653400   1.008000   ; qtot 0.589473
 5622         oh    195    ccc     O5   5622 -0.84113600  16.000000   ; qtot -0.251663
 5623         ho    195    ccc    H11   5623 0.51201600   1.008000   ; qtot 0.260353
 5624         os    195    ccc     O6   5624 -0.26013600  16.000000   ; qtot 0.000217
; residue  196 ccc rtp ccc q 0.0
 5625         c3    196    ccc     C1   5625 -0.33178800  12.010000   ; qtot -0.331571
 5626         c3    196    ccc     C2   5626 0.30606500  12.010000   ; qtot -0.025506
 5627         h1    196    ccc     H1   5627 0.11662300   1.008000   ; qtot 0.091117
 5628         h1    196    ccc     H2   5628 0.11526800   1.008000   ; qtot 0.206385
 5629         c3    196    ccc     C3   5629 0.15592700  12.010000   ; qtot 0.362312
 5630         c3    196    ccc     C4   5630 0.28383300  12.010000   ; qtot 0.646145
 5631         c3    196    ccc     C5   5631 0.32403300  12.010000   ; qtot 0.970178
 5632         h1    196    ccc     H3   5632 0.13386900   1.008000   ; qtot 1.104047
 5633         h1    196    ccc     H4   5633 0.10146700   1.008000   ; qtot 1.205514
 5634         h2    196    ccc     H5   5634 0.10960400   1.008000   ; qtot 1.315118
 5635         os    196    ccc     O1   5635 -0.28650000  16.000000   ; qtot 1.028618
 5636         oh    196    ccc     O2   5636 -0.86012500  16.000000   ; qtot 0.168493
 5637         oh    196    ccc     O3   5637 -0.83772800  16.000000   ; qtot -0.669235
 5638         oh    196    ccc     O4   5638 -0.77449700  16.000000   ; qtot -1.443732
 5639         c3    196    ccc     C6   5639 0.37576500  12.010000   ; qtot -1.067967
 5640         ho    196    ccc     H6   5640 0.53656000   1.008000   ; qtot -0.531407
 5641         ho    196    ccc     H7   5641 0.49492100   1.008000   ; qtot -0.036486
 5642         ho    196    ccc     H8   5642 0.51297200   1.008000   ; qtot 0.476486
 5643         h1    196    ccc     H9   5643 0.05653400   1.008000   ; qtot 0.533020
 5644         h1    196    ccc    H10   5644 0.05653400   1.008000   ; qtot 0.589554
 5645         oh    196    ccc     O5   5645 -0.84113600  16.000000   ; qtot -0.251582
 5646         ho    196    ccc    H11   5646 0.51201600   1.008000   ; qtot 0.260434
 5647         os    196    ccc     O6   5647 -0.26013600  16.000000   ; qtot 0.000298
; residue  197 ccc rtp ccc q 0.0
 5648         c3    197    ccc     C1   5648 -0.33178800  12.010000   ; qtot -0.331490
 5649         c3    197    ccc     C2   5649 0.30606500  12.010000   ; qtot -0.025425
 5650         h1    197    ccc     H1   5650 0.11662300   1.008000   ; qtot 0.091198
 5651         h1    197    ccc     H2   5651 0.11526800   1.008000   ; qtot 0.206466
 5652         c3    197    ccc     C3   5652 0.15592700  12.010000   ; qtot 0.362393
 5653         c3    197    ccc     C4   5653 0.28383300  12.010000   ; qtot 0.646226
 5654         c3    197    ccc     C5   5654 0.32403300  12.010000   ; qtot 0.970259
 5655         h1    197    ccc     H3   5655 0.13386900   1.008000   ; qtot 1.104128
 5656         h1    197    ccc     H4   5656 0.10146700   1.008000   ; qtot 1.205595
 5657         h2    197    ccc     H5   5657 0.10960400   1.008000   ; qtot 1.315199
 5658         os    197    ccc     O1   5658 -0.28650000  16.000000   ; qtot 1.028699
 5659         oh    197    ccc     O2   5659 -0.86012500  16.000000   ; qtot 0.168574
 5660         oh    197    ccc     O3   5660 -0.83772800  16.000000   ; qtot -0.669154
 5661         oh    197    ccc     O4   5661 -0.77449700  16.000000   ; qtot -1.443651
 5662         c3    197    ccc     C6   5662 0.37576500  12.010000   ; qtot -1.067886
 5663         ho    197    ccc     H6   5663 0.53656000   1.008000   ; qtot -0.531326
 5664         ho    197    ccc     H7   5664 0.49492100   1.008000   ; qtot -0.036405
 5665         ho    197    ccc     H8   5665 0.51297200   1.008000   ; qtot 0.476567
 5666         h1    197    ccc     H9   5666 0.05653400   1.008000   ; qtot 0.533101
 5667         h1    197    ccc    H10   5667 0.05653400   1.008000   ; qtot 0.589635
 5668         oh    197    ccc     O5   5668 -0.84113600  16.000000   ; qtot -0.251501
 5669         ho    197    ccc    H11   5669 0.51201600   1.008000   ; qtot 0.260515
 5670         os    197    ccc     O6   5670 -0.26013600  16.000000   ; qtot 0.000379
; residue  198 ccc rtp ccc q 0.0
 5671         c3    198    ccc     C1   5671 -0.33178800  12.010000   ; qtot -0.331409
 5672         c3    198    ccc     C2   5672 0.30606500  12.010000   ; qtot -0.025344
 5673         h1    198    ccc     H1   5673 0.11662300   1.008000   ; qtot 0.091279
 5674         h1    198    ccc     H2   5674 0.11526800   1.008000   ; qtot 0.206547
 5675         c3    198    ccc     C3   5675 0.15592700  12.010000   ; qtot 0.362474
 5676         c3    198    ccc     C4   5676 0.28383300  12.010000   ; qtot 0.646307
 5677         c3    198    ccc     C5   5677 0.32403300  12.010000   ; qtot 0.970340
 5678         h1    198    ccc     H3   5678 0.13386900   1.008000   ; qtot 1.104209
 5679         h1    198    ccc     H4   5679 0.10146700   1.008000   ; qtot 1.205676
 5680         h2    198    ccc     H5   5680 0.10960400   1.008000   ; qtot 1.315280
 5681         os    198    ccc     O1   5681 -0.28650000  16.000000   ; qtot 1.028780
 5682         oh    198    ccc     O2   5682 -0.86012500  16.000000   ; qtot 0.168655
 5683         oh    198    ccc     O3   5683 -0.83772800  16.000000   ; qtot -0.669073
 5684         oh    198    ccc     O4   5684 -0.77449700  16.000000   ; qtot -1.443570
 5685         c3    198    ccc     C6   5685 0.37576500  12.010000   ; qtot -1.067805
 5686         ho    198    ccc     H6   5686 0.53656000   1.008000   ; qtot -0.531245
 5687         ho    198    ccc     H7   5687 0.49492100   1.008000   ; qtot -0.036324
 5688         ho    198    ccc     H8   5688 0.51297200   1.008000   ; qtot 0.476648
 5689         h1    198    ccc     H9   5689 0.05653400   1.008000   ; qtot 0.533182
 5690         h1    198    ccc    H10   5690 0.05653400   1.008000   ; qtot 0.589716
 5691         oh    198    ccc     O5   5691 -0.84113600  16.000000   ; qtot -0.251420
 5692         ho    198    ccc    H11   5692 0.51201600   1.008000   ; qtot 0.260596
 5693         os    198    ccc     O6   5693 -0.26013600  16.000000   ; qtot 0.000460
; residue  199 ccc rtp ccc q 0.0
 5694         c3    199    ccc     C1   5694 -0.33178800  12.010000   ; qtot -0.331328
 5695         c3    199    ccc     C2   5695 0.30606500  12.010000   ; qtot -0.025263
 5696         h1    199    ccc     H1   5696 0.11662300   1.008000   ; qtot 0.091360
 5697         h1    199    ccc     H2   5697 0.11526800   1.008000   ; qtot 0.206628
 5698         c3    199    ccc     C3   5698 0.15592700  12.010000   ; qtot 0.362555
 5699         c3    199    ccc     C4   5699 0.28383300  12.010000   ; qtot 0.646388
 5700         c3    199    ccc     C5   5700 0.32403300  12.010000   ; qtot 0.970421
 5701         h1    199    ccc     H3   5701 0.13386900   1.008000   ; qtot 1.104290
 5702         h1    199    ccc     H4   5702 0.10146700   1.008000   ; qtot 1.205757
 5703         h2    199    ccc     H5   5703 0.10960400   1.008000   ; qtot 1.315361
 5704         os    199    ccc     O1   5704 -0.28650000  16.000000   ; qtot 1.028861
 5705         oh    199    ccc     O2   5705 -0.86012500  16.000000   ; qtot 0.168736
 5706         oh    199    ccc     O3   5706 -0.83772800  16.000000   ; qtot -0.668992
 5707         oh    199    ccc     O4   5707 -0.77449700  16.000000   ; qtot -1.443489
 5708         c3    199    ccc     C6   5708 0.37576500  12.010000   ; qtot -1.067724
 5709         ho    199    ccc     H6   5709 0.53656000   1.008000   ; qtot -0.531164
 5710         ho    199    ccc     H7   5710 0.49492100   1.008000   ; qtot -0.036243
 5711         ho    199    ccc     H8   5711 0.51297200   1.008000   ; qtot 0.476729
 5712         h1    199    ccc     H9   5712 0.05653400   1.008000   ; qtot 0.533263
 5713         h1    199    ccc    H10   5713 0.05653400   1.008000   ; qtot 0.589797
 5714         oh    199    ccc     O5   5714 -0.84113600  16.000000   ; qtot -0.251339
 5715         ho    199    ccc    H11   5715 0.51201600   1.008000   ; qtot 0.260677
 5716         os    199    ccc     O6   5716 -0.26013600  16.000000   ; qtot 0.000541
; residue  200 ccc rtp ccc q 0.0
 5717         c3    200    ccc     C1   5717 -0.33178800  12.010000   ; qtot -0.331247
 5718         c3    200    ccc     C2   5718 0.30606500  12.010000   ; qtot -0.025182
 5719         h1    200    ccc     H1   5719 0.11662300   1.008000   ; qtot 0.091441
 5720         h1    200    ccc     H2   5720 0.11526800   1.008000   ; qtot 0.206709
 5721         c3    200    ccc     C3   5721 0.15592700  12.010000   ; qtot 0.362636
 5722         c3    200    ccc     C4   5722 0.28383300  12.010000   ; qtot 0.646469
 5723         c3    200    ccc     C5   5723 0.32403300  12.010000   ; qtot 0.970502
 5724         h1    200    ccc     H3   5724 0.13386900   1.008000   ; qtot 1.104371
 5725         h1    200    ccc     H4   5725 0.10146700   1.008000   ; qtot 1.205838
 5726         h2    200    ccc     H5   5726 0.10960400   1.008000   ; qtot 1.315442
 5727         os    200    ccc     O1   5727 -0.28650000  16.000000   ; qtot 1.028942
 5728         oh    200    ccc     O2   5728 -0.86012500  16.000000   ; qtot 0.168817
 5729         oh    200    ccc     O3   5729 -0.83772800  16.000000   ; qtot -0.668911
 5730         oh    200    ccc     O4   5730 -0.77449700  16.000000   ; qtot -1.443408
 5731         c3    200    ccc     C6   5731 0.37576500  12.010000   ; qtot -1.067643
 5732         ho    200    ccc     H6   5732 0.53656000   1.008000   ; qtot -0.531083
 5733         ho    200    ccc     H7   5733 0.49492100   1.008000   ; qtot -0.036162
 5734         ho    200    ccc     H8   5734 0.51297200   1.008000   ; qtot 0.476810
 5735         h1    200    ccc     H9   5735 0.05653400   1.008000   ; qtot 0.533344
 5736         h1    200    ccc    H10   5736 0.05653400   1.008000   ; qtot 0.589878
 5737         oh    200    ccc     O5   5737 -0.84113600  16.000000   ; qtot -0.251258
 5738         ho    200    ccc    H11   5738 0.51201600   1.008000   ; qtot 0.260758
 5739         os    200    ccc     O6   5739 -0.26013600  16.000000   ; qtot 0.000622
; residue  201 ccc rtp ccc q 0.0
 5740         c3    201    ccc     C1   5740 -0.33178800  12.010000   ; qtot -0.331166
 5741         c3    201    ccc     C2   5741 0.30606500  12.010000   ; qtot -0.025101
 5742         h1    201    ccc     H1   5742 0.11662300   1.008000   ; qtot 0.091522
 5743         h1    201    ccc     H2   5743 0.11526800   1.008000   ; qtot 0.206790
 5744         c3    201    ccc     C3   5744 0.15592700  12.010000   ; qtot 0.362717
 5745         c3    201    ccc     C4   5745 0.28383300  12.010000   ; qtot 0.646550
 5746         c3    201    ccc     C5   5746 0.32403300  12.010000   ; qtot 0.970583
 5747         h1    201    ccc     H3   5747 0.13386900   1.008000   ; qtot 1.104452
 5748         h1    201    ccc     H4   5748 0.10146700   1.008000   ; qtot 1.205919
 5749         h2    201    ccc     H5   5749 0.10960400   1.008000   ; qtot 1.315523
 5750         os    201    ccc     O1   5750 -0.28650000  16.000000   ; qtot 1.029023
 5751         oh    201    ccc     O2   5751 -0.86012500  16.000000   ; qtot 0.168898
 5752         oh    201    ccc     O3   5752 -0.83772800  16.000000   ; qtot -0.668830
 5753         oh    201    ccc     O4   5753 -0.77449700  16.000000   ; qtot -1.443327
 5754         c3    201    ccc     C6   5754 0.37576500  12.010000   ; qtot -1.067562
 5755         ho    201    ccc     H6   5755 0.53656000   1.008000   ; qtot -0.531002
 5756         ho    201    ccc     H7   5756 0.49492100   1.008000   ; qtot -0.036081
 5757         ho    201    ccc     H8   5757 0.51297200   1.008000   ; qtot 0.476891
 5758         h1    201    ccc     H9   5758 0.05653400   1.008000   ; qtot 0.533425
 5759         h1    201    ccc    H10   5759 0.05653400   1.008000   ; qtot 0.589959
 5760         oh    201    ccc     O5   5760 -0.84113600  16.000000   ; qtot -0.251177
 5761         ho    201    ccc    H11   5761 0.51201600   1.008000   ; qtot 0.260839
 5762         os    201    ccc     O6   5762 -0.26013600  16.000000   ; qtot 0.000703
; residue  202 ccc rtp ccc q 0.0
 5763         c3    202    ccc     C1   5763 -0.33178800  12.010000   ; qtot -0.331085
 5764         c3    202    ccc     C2   5764 0.30606500  12.010000   ; qtot -0.025020
 5765         h1    202    ccc     H1   5765 0.11662300   1.008000   ; qtot 0.091603
 5766         h1    202    ccc     H2   5766 0.11526800   1.008000   ; qtot 0.206871
 5767         c3    202    ccc     C3   5767 0.15592700  12.010000   ; qtot 0.362798
 5768         c3    202    ccc     C4   5768 0.28383300  12.010000   ; qtot 0.646631
 5769         c3    202    ccc     C5   5769 0.32403300  12.010000   ; qtot 0.970664
 5770         h1    202    ccc     H3   5770 0.13386900   1.008000   ; qtot 1.104533
 5771         h1    202    ccc     H4   5771 0.10146700   1.008000   ; qtot 1.206000
 5772         h2    202    ccc     H5   5772 0.10960400   1.008000   ; qtot 1.315604
 5773         os    202    ccc     O1   5773 -0.28650000  16.000000   ; qtot 1.029104
 5774         oh    202    ccc     O2   5774 -0.86012500  16.000000   ; qtot 0.168979
 5775         oh    202    ccc     O3   5775 -0.83772800  16.000000   ; qtot -0.668749
 5776         oh    202    ccc     O4   5776 -0.77449700  16.000000   ; qtot -1.443246
 5777         c3    202    ccc     C6   5777 0.37576500  12.010000   ; qtot -1.067481
 5778         ho    202    ccc     H6   5778 0.53656000   1.008000   ; qtot -0.530921
 5779         ho    202    ccc     H7   5779 0.49492100   1.008000   ; qtot -0.036000
 5780         ho    202    ccc     H8   5780 0.51297200   1.008000   ; qtot 0.476972
 5781         h1    202    ccc     H9   5781 0.05653400   1.008000   ; qtot 0.533506
 5782         h1    202    ccc    H10   5782 0.05653400   1.008000   ; qtot 0.590040
 5783         oh    202    ccc     O5   5783 -0.84113600  16.000000   ; qtot -0.251096
 5784         ho    202    ccc    H11   5784 0.51201600   1.008000   ; qtot 0.260920
 5785         os    202    ccc     O6   5785 -0.26013600  16.000000   ; qtot 0.000784
; residue  203 ccc rtp ccc q 0.0
 5786         c3    203    ccc     C1   5786 -0.33178800  12.010000   ; qtot -0.331004
 5787         c3    203    ccc     C2   5787 0.30606500  12.010000   ; qtot -0.024939
 5788         h1    203    ccc     H1   5788 0.11662300   1.008000   ; qtot 0.091684
 5789         h1    203    ccc     H2   5789 0.11526800   1.008000   ; qtot 0.206952
 5790         c3    203    ccc     C3   5790 0.15592700  12.010000   ; qtot 0.362879
 5791         c3    203    ccc     C4   5791 0.28383300  12.010000   ; qtot 0.646712
 5792         c3    203    ccc     C5   5792 0.32403300  12.010000   ; qtot 0.970745
 5793         h1    203    ccc     H3   5793 0.13386900   1.008000   ; qtot 1.104614
 5794         h1    203    ccc     H4   5794 0.10146700   1.008000   ; qtot 1.206081
 5795         h2    203    ccc     H5   5795 0.10960400   1.008000   ; qtot 1.315685
 5796         os    203    ccc     O1   5796 -0.28650000  16.000000   ; qtot 1.029185
 5797         oh    203    ccc     O2   5797 -0.86012500  16.000000   ; qtot 0.169060
 5798         oh    203    ccc     O3   5798 -0.83772800  16.000000   ; qtot -0.668668
 5799         oh    203    ccc     O4   5799 -0.77449700  16.000000   ; qtot -1.443165
 5800         c3    203    ccc     C6   5800 0.37576500  12.010000   ; qtot -1.067400
 5801         ho    203    ccc     H6   5801 0.53656000   1.008000   ; qtot -0.530840
 5802         ho    203    ccc     H7   5802 0.49492100   1.008000   ; qtot -0.035919
 5803         ho    203    ccc     H8   5803 0.51297200   1.008000   ; qtot 0.477053
 5804         h1    203    ccc     H9   5804 0.05653400   1.008000   ; qtot 0.533587
 5805         h1    203    ccc    H10   5805 0.05653400   1.008000   ; qtot 0.590121
 5806         oh    203    ccc     O5   5806 -0.84113600  16.000000   ; qtot -0.251015
 5807         ho    203    ccc    H11   5807 0.51201600   1.008000   ; qtot 0.261001
 5808         os    203    ccc     O6   5808 -0.26013600  16.000000   ; qtot 0.000865
; residue  204 ccc rtp ccc q 0.0
 5809         c3    204    ccc     C1   5809 -0.33178800  12.010000   ; qtot -0.330923
 5810         c3    204    ccc     C2   5810 0.30606500  12.010000   ; qtot -0.024858
 5811         h1    204    ccc     H1   5811 0.11662300   1.008000   ; qtot 0.091765
 5812         h1    204    ccc     H2   5812 0.11526800   1.008000   ; qtot 0.207033
 5813         c3    204    ccc     C3   5813 0.15592700  12.010000   ; qtot 0.362960
 5814         c3    204    ccc     C4   5814 0.28383300  12.010000   ; qtot 0.646793
 5815         c3    204    ccc     C5   5815 0.32403300  12.010000   ; qtot 0.970826
 5816         h1    204    ccc     H3   5816 0.13386900   1.008000   ; qtot 1.104695
 5817         h1    204    ccc     H4   5817 0.10146700   1.008000   ; qtot 1.206162
 5818         h2    204    ccc     H5   5818 0.10960400   1.008000   ; qtot 1.315766
 5819         os    204    ccc     O1   5819 -0.28650000  16.000000   ; qtot 1.029266
 5820         oh    204    ccc     O2   5820 -0.86012500  16.000000   ; qtot 0.169141
 5821         oh    204    ccc     O3   5821 -0.83772800  16.000000   ; qtot -0.668587
 5822         oh    204    ccc     O4   5822 -0.77449700  16.000000   ; qtot -1.443084
 5823         c3    204    ccc     C6   5823 0.37576500  12.010000   ; qtot -1.067319
 5824         ho    204    ccc     H6   5824 0.53656000   1.008000   ; qtot -0.530759
 5825         ho    204    ccc     H7   5825 0.49492100   1.008000   ; qtot -0.035838
 5826         ho    204    ccc     H8   5826 0.51297200   1.008000   ; qtot 0.477134
 5827         h1    204    ccc     H9   5827 0.05653400   1.008000   ; qtot 0.533668
 5828         h1    204    ccc    H10   5828 0.05653400   1.008000   ; qtot 0.590202
 5829         oh    204    ccc     O5   5829 -0.84113600  16.000000   ; qtot -0.250934
 5830         ho    204    ccc    H11   5830 0.51201600   1.008000   ; qtot 0.261082
 5831         os    204    ccc     O6   5831 -0.26013600  16.000000   ; qtot 0.000946
; residue  205 ccc rtp ccc q 0.0
 5832         c3    205    ccc     C1   5832 -0.33178800  12.010000   ; qtot -0.330842
 5833         c3    205    ccc     C2   5833 0.30606500  12.010000   ; qtot -0.024777
 5834         h1    205    ccc     H1   5834 0.11662300   1.008000   ; qtot 0.091846
 5835         h1    205    ccc     H2   5835 0.11526800   1.008000   ; qtot 0.207114
 5836         c3    205    ccc     C3   5836 0.15592700  12.010000   ; qtot 0.363041
 5837         c3    205    ccc     C4   5837 0.28383300  12.010000   ; qtot 0.646874
 5838         c3    205    ccc     C5   5838 0.32403300  12.010000   ; qtot 0.970907
 5839         h1    205    ccc     H3   5839 0.13386900   1.008000   ; qtot 1.104776
 5840         h1    205    ccc     H4   5840 0.10146700   1.008000   ; qtot 1.206243
 5841         h2    205    ccc     H5   5841 0.10960400   1.008000   ; qtot 1.315847
 5842         os    205    ccc     O1   5842 -0.28650000  16.000000   ; qtot 1.029347
 5843         oh    205    ccc     O2   5843 -0.86012500  16.000000   ; qtot 0.169222
 5844         oh    205    ccc     O3   5844 -0.83772800  16.000000   ; qtot -0.668506
 5845         oh    205    ccc     O4   5845 -0.77449700  16.000000   ; qtot -1.443003
 5846         c3    205    ccc     C6   5846 0.37576500  12.010000   ; qtot -1.067238
 5847         ho    205    ccc     H6   5847 0.53656000   1.008000   ; qtot -0.530678
 5848         ho    205    ccc     H7   5848 0.49492100   1.008000   ; qtot -0.035757
 5849         ho    205    ccc     H8   5849 0.51297200   1.008000   ; qtot 0.477215
 5850         h1    205    ccc     H9   5850 0.05653400   1.008000   ; qtot 0.533749
 5851         h1    205    ccc    H10   5851 0.05653400   1.008000   ; qtot 0.590283
 5852         oh    205    ccc     O5   5852 -0.84113600  16.000000   ; qtot -0.250853
 5853         ho    205    ccc    H11   5853 0.51201600   1.008000   ; qtot 0.261163
 5854         os    205    ccc     O6   5854 -0.26013600  16.000000   ; qtot 0.001027
; residue  206 ccc rtp ccc q 0.0
 5855         c3    206    ccc     C1   5855 -0.33178800  12.010000   ; qtot -0.330761
 5856         c3    206    ccc     C2   5856 0.30606500  12.010000   ; qtot -0.024696
 5857         h1    206    ccc     H1   5857 0.11662300   1.008000   ; qtot 0.091927
 5858         h1    206    ccc     H2   5858 0.11526800   1.008000   ; qtot 0.207195
 5859         c3    206    ccc     C3   5859 0.15592700  12.010000   ; qtot 0.363122
 5860         c3    206    ccc     C4   5860 0.28383300  12.010000   ; qtot 0.646955
 5861         c3    206    ccc     C5   5861 0.32403300  12.010000   ; qtot 0.970988
 5862         h1    206    ccc     H3   5862 0.13386900   1.008000   ; qtot 1.104857
 5863         h1    206    ccc     H4   5863 0.10146700   1.008000   ; qtot 1.206324
 5864         h2    206    ccc     H5   5864 0.10960400   1.008000   ; qtot 1.315928
 5865         os    206    ccc     O1   5865 -0.28650000  16.000000   ; qtot 1.029428
 5866         oh    206    ccc     O2   5866 -0.86012500  16.000000   ; qtot 0.169303
 5867         oh    206    ccc     O3   5867 -0.83772800  16.000000   ; qtot -0.668425
 5868         oh    206    ccc     O4   5868 -0.77449700  16.000000   ; qtot -1.442922
 5869         c3    206    ccc     C6   5869 0.37576500  12.010000   ; qtot -1.067157
 5870         ho    206    ccc     H6   5870 0.53656000   1.008000   ; qtot -0.530597
 5871         ho    206    ccc     H7   5871 0.49492100   1.008000   ; qtot -0.035676
 5872         ho    206    ccc     H8   5872 0.51297200   1.008000   ; qtot 0.477296
 5873         h1    206    ccc     H9   5873 0.05653400   1.008000   ; qtot 0.533830
 5874         h1    206    ccc    H10   5874 0.05653400   1.008000   ; qtot 0.590364
 5875         oh    206    ccc     O5   5875 -0.84113600  16.000000   ; qtot -0.250772
 5876         ho    206    ccc    H11   5876 0.51201600   1.008000   ; qtot 0.261244
 5877         os    206    ccc     O6   5877 -0.26013600  16.000000   ; qtot 0.001108
; residue  207 ccc rtp ccc q 0.0
 5878         c3    207    ccc     C1   5878 -0.33178800  12.010000   ; qtot -0.330680
 5879         c3    207    ccc     C2   5879 0.30606500  12.010000   ; qtot -0.024615
 5880         h1    207    ccc     H1   5880 0.11662300   1.008000   ; qtot 0.092008
 5881         h1    207    ccc     H2   5881 0.11526800   1.008000   ; qtot 0.207276
 5882         c3    207    ccc     C3   5882 0.15592700  12.010000   ; qtot 0.363203
 5883         c3    207    ccc     C4   5883 0.28383300  12.010000   ; qtot 0.647036
 5884         c3    207    ccc     C5   5884 0.32403300  12.010000   ; qtot 0.971069
 5885         h1    207    ccc     H3   5885 0.13386900   1.008000   ; qtot 1.104938
 5886         h1    207    ccc     H4   5886 0.10146700   1.008000   ; qtot 1.206405
 5887         h2    207    ccc     H5   5887 0.10960400   1.008000   ; qtot 1.316009
 5888         os    207    ccc     O1   5888 -0.28650000  16.000000   ; qtot 1.029509
 5889         oh    207    ccc     O2   5889 -0.86012500  16.000000   ; qtot 0.169384
 5890         oh    207    ccc     O3   5890 -0.83772800  16.000000   ; qtot -0.668344
 5891         oh    207    ccc     O4   5891 -0.77449700  16.000000   ; qtot -1.442841
 5892         c3    207    ccc     C6   5892 0.37576500  12.010000   ; qtot -1.067076
 5893         ho    207    ccc     H6   5893 0.53656000   1.008000   ; qtot -0.530516
 5894         ho    207    ccc     H7   5894 0.49492100   1.008000   ; qtot -0.035595
 5895         ho    207    ccc     H8   5895 0.51297200   1.008000   ; qtot 0.477377
 5896         h1    207    ccc     H9   5896 0.05653400   1.008000   ; qtot 0.533911
 5897         h1    207    ccc    H10   5897 0.05653400   1.008000   ; qtot 0.590445
 5898         oh    207    ccc     O5   5898 -0.84113600  16.000000   ; qtot -0.250691
 5899         ho    207    ccc    H11   5899 0.51201600   1.008000   ; qtot 0.261325
 5900         os    207    ccc     O6   5900 -0.26013600  16.000000   ; qtot 0.001189
; residue  208 ccc rtp ccc q 0.0
 5901         c3    208    ccc     C1   5901 -0.33178800  12.010000   ; qtot -0.330599
 5902         c3    208    ccc     C2   5902 0.30606500  12.010000   ; qtot -0.024534
 5903         h1    208    ccc     H1   5903 0.11662300   1.008000   ; qtot 0.092089
 5904         h1    208    ccc     H2   5904 0.11526800   1.008000   ; qtot 0.207357
 5905         c3    208    ccc     C3   5905 0.15592700  12.010000   ; qtot 0.363284
 5906         c3    208    ccc     C4   5906 0.28383300  12.010000   ; qtot 0.647117
 5907         c3    208    ccc     C5   5907 0.32403300  12.010000   ; qtot 0.971150
 5908         h1    208    ccc     H3   5908 0.13386900   1.008000   ; qtot 1.105019
 5909         h1    208    ccc     H4   5909 0.10146700   1.008000   ; qtot 1.206486
 5910         h2    208    ccc     H5   5910 0.10960400   1.008000   ; qtot 1.316090
 5911         os    208    ccc     O1   5911 -0.28650000  16.000000   ; qtot 1.029590
 5912         oh    208    ccc     O2   5912 -0.86012500  16.000000   ; qtot 0.169465
 5913         oh    208    ccc     O3   5913 -0.83772800  16.000000   ; qtot -0.668263
 5914         oh    208    ccc     O4   5914 -0.77449700  16.000000   ; qtot -1.442760
 5915         c3    208    ccc     C6   5915 0.37576500  12.010000   ; qtot -1.066995
 5916         ho    208    ccc     H6   5916 0.53656000   1.008000   ; qtot -0.530435
 5917         ho    208    ccc     H7   5917 0.49492100   1.008000   ; qtot -0.035514
 5918         ho    208    ccc     H8   5918 0.51297200   1.008000   ; qtot 0.477458
 5919         h1    208    ccc     H9   5919 0.05653400   1.008000   ; qtot 0.533992
 5920         h1    208    ccc    H10   5920 0.05653400   1.008000   ; qtot 0.590526
 5921         oh    208    ccc     O5   5921 -0.84113600  16.000000   ; qtot -0.250610
 5922         ho    208    ccc    H11   5922 0.51201600   1.008000   ; qtot 0.261406
 5923         os    208    ccc     O6   5923 -0.26013600  16.000000   ; qtot 0.001270
; residue  209 ccc rtp ccc q 0.0
 5924         c3    209    ccc     C1   5924 -0.33178800  12.010000   ; qtot -0.330518
 5925         c3    209    ccc     C2   5925 0.30606500  12.010000   ; qtot -0.024453
 5926         h1    209    ccc     H1   5926 0.11662300   1.008000   ; qtot 0.092170
 5927         h1    209    ccc     H2   5927 0.11526800   1.008000   ; qtot 0.207438
 5928         c3    209    ccc     C3   5928 0.15592700  12.010000   ; qtot 0.363365
 5929         c3    209    ccc     C4   5929 0.28383300  12.010000   ; qtot 0.647198
 5930         c3    209    ccc     C5   5930 0.32403300  12.010000   ; qtot 0.971231
 5931         h1    209    ccc     H3   5931 0.13386900   1.008000   ; qtot 1.105100
 5932         h1    209    ccc     H4   5932 0.10146700   1.008000   ; qtot 1.206567
 5933         h2    209    ccc     H5   5933 0.10960400   1.008000   ; qtot 1.316171
 5934         os    209    ccc     O1   5934 -0.28650000  16.000000   ; qtot 1.029671
 5935         oh    209    ccc     O2   5935 -0.86012500  16.000000   ; qtot 0.169546
 5936         oh    209    ccc     O3   5936 -0.83772800  16.000000   ; qtot -0.668182
 5937         oh    209    ccc     O4   5937 -0.77449700  16.000000   ; qtot -1.442679
 5938         c3    209    ccc     C6   5938 0.37576500  12.010000   ; qtot -1.066914
 5939         ho    209    ccc     H6   5939 0.53656000   1.008000   ; qtot -0.530354
 5940         ho    209    ccc     H7   5940 0.49492100   1.008000   ; qtot -0.035433
 5941         ho    209    ccc     H8   5941 0.51297200   1.008000   ; qtot 0.477539
 5942         h1    209    ccc     H9   5942 0.05653400   1.008000   ; qtot 0.534073
 5943         h1    209    ccc    H10   5943 0.05653400   1.008000   ; qtot 0.590607
 5944         oh    209    ccc     O5   5944 -0.84113600  16.000000   ; qtot -0.250529
 5945         ho    209    ccc    H11   5945 0.51201600   1.008000   ; qtot 0.261487
 5946         os    209    ccc     O6   5946 -0.26013600  16.000000   ; qtot 0.001351
; residue  210 ccc rtp ccc q 0.0
 5947         c3    210    ccc     C1   5947 -0.33178800  12.010000   ; qtot -0.330437
 5948         c3    210    ccc     C2   5948 0.30606500  12.010000   ; qtot -0.024372
 5949         h1    210    ccc     H1   5949 0.11662300   1.008000   ; qtot 0.092251
 5950         h1    210    ccc     H2   5950 0.11526800   1.008000   ; qtot 0.207519
 5951         c3    210    ccc     C3   5951 0.15592700  12.010000   ; qtot 0.363446
 5952         c3    210    ccc     C4   5952 0.28383300  12.010000   ; qtot 0.647279
 5953         c3    210    ccc     C5   5953 0.32403300  12.010000   ; qtot 0.971312
 5954         h1    210    ccc     H3   5954 0.13386900   1.008000   ; qtot 1.105181
 5955         h1    210    ccc     H4   5955 0.10146700   1.008000   ; qtot 1.206648
 5956         h2    210    ccc     H5   5956 0.10960400   1.008000   ; qtot 1.316252
 5957         os    210    ccc     O1   5957 -0.28650000  16.000000   ; qtot 1.029752
 5958         oh    210    ccc     O2   5958 -0.86012500  16.000000   ; qtot 0.169627
 5959         oh    210    ccc     O3   5959 -0.83772800  16.000000   ; qtot -0.668101
 5960         oh    210    ccc     O4   5960 -0.77449700  16.000000   ; qtot -1.442598
 5961         c3    210    ccc     C6   5961 0.37576500  12.010000   ; qtot -1.066833
 5962         ho    210    ccc     H6   5962 0.53656000   1.008000   ; qtot -0.530273
 5963         ho    210    ccc     H7   5963 0.49492100   1.008000   ; qtot -0.035352
 5964         ho    210    ccc     H8   5964 0.51297200   1.008000   ; qtot 0.477620
 5965         h1    210    ccc     H9   5965 0.05653400   1.008000   ; qtot 0.534154
 5966         h1    210    ccc    H10   5966 0.05653400   1.008000   ; qtot 0.590688
 5967         oh    210    ccc     O5   5967 -0.84113600  16.000000   ; qtot -0.250448
 5968         ho    210    ccc    H11   5968 0.51201600   1.008000   ; qtot 0.261568
 5969         os    210    ccc     O6   5969 -0.26013600  16.000000   ; qtot 0.001432
; residue  211 ccc rtp ccc q 0.0
 5970         c3    211    ccc     C1   5970 -0.33178800  12.010000   ; qtot -0.330356
 5971         c3    211    ccc     C2   5971 0.30606500  12.010000   ; qtot -0.024291
 5972         h1    211    ccc     H1   5972 0.11662300   1.008000   ; qtot 0.092332
 5973         h1    211    ccc     H2   5973 0.11526800   1.008000   ; qtot 0.207600
 5974         c3    211    ccc     C3   5974 0.15592700  12.010000   ; qtot 0.363527
 5975         c3    211    ccc     C4   5975 0.28383300  12.010000   ; qtot 0.647360
 5976         c3    211    ccc     C5   5976 0.32403300  12.010000   ; qtot 0.971393
 5977         h1    211    ccc     H3   5977 0.13386900   1.008000   ; qtot 1.105262
 5978         h1    211    ccc     H4   5978 0.10146700   1.008000   ; qtot 1.206729
 5979         h2    211    ccc     H5   5979 0.10960400   1.008000   ; qtot 1.316333
 5980         os    211    ccc     O1   5980 -0.28650000  16.000000   ; qtot 1.029833
 5981         oh    211    ccc     O2   5981 -0.86012500  16.000000   ; qtot 0.169708
 5982         oh    211    ccc     O3   5982 -0.83772800  16.000000   ; qtot -0.668020
 5983         oh    211    ccc     O4   5983 -0.77449700  16.000000   ; qtot -1.442517
 5984         c3    211    ccc     C6   5984 0.37576500  12.010000   ; qtot -1.066752
 5985         ho    211    ccc     H6   5985 0.53656000   1.008000   ; qtot -0.530192
 5986         ho    211    ccc     H7   5986 0.49492100   1.008000   ; qtot -0.035271
 5987         ho    211    ccc     H8   5987 0.51297200   1.008000   ; qtot 0.477701
 5988         h1    211    ccc     H9   5988 0.05653400   1.008000   ; qtot 0.534235
 5989         h1    211    ccc    H10   5989 0.05653400   1.008000   ; qtot 0.590769
 5990         oh    211    ccc     O5   5990 -0.84113600  16.000000   ; qtot -0.250367
 5991         ho    211    ccc    H11   5991 0.51201600   1.008000   ; qtot 0.261649
 5992         os    211    ccc     O6   5992 -0.26013600  16.000000   ; qtot 0.001513
; residue  212 ccc rtp ccc q 0.0
 5993         c3    212    ccc     C1   5993 -0.33178800  12.010000   ; qtot -0.330275
 5994         c3    212    ccc     C2   5994 0.30606500  12.010000   ; qtot -0.024210
 5995         h1    212    ccc     H1   5995 0.11662300   1.008000   ; qtot 0.092413
 5996         h1    212    ccc     H2   5996 0.11526800   1.008000   ; qtot 0.207681
 5997         c3    212    ccc     C3   5997 0.15592700  12.010000   ; qtot 0.363608
 5998         c3    212    ccc     C4   5998 0.28383300  12.010000   ; qtot 0.647441
 5999         c3    212    ccc     C5   5999 0.32403300  12.010000   ; qtot 0.971474
 6000         h1    212    ccc     H3   6000 0.13386900   1.008000   ; qtot 1.105343
 6001         h1    212    ccc     H4   6001 0.10146700   1.008000   ; qtot 1.206810
 6002         h2    212    ccc     H5   6002 0.10960400   1.008000   ; qtot 1.316414
 6003         os    212    ccc     O1   6003 -0.28650000  16.000000   ; qtot 1.029914
 6004         oh    212    ccc     O2   6004 -0.86012500  16.000000   ; qtot 0.169789
 6005         oh    212    ccc     O3   6005 -0.83772800  16.000000   ; qtot -0.667939
 6006         oh    212    ccc     O4   6006 -0.77449700  16.000000   ; qtot -1.442436
 6007         c3    212    ccc     C6   6007 0.37576500  12.010000   ; qtot -1.066671
 6008         ho    212    ccc     H6   6008 0.53656000   1.008000   ; qtot -0.530111
 6009         ho    212    ccc     H7   6009 0.49492100   1.008000   ; qtot -0.035190
 6010         ho    212    ccc     H8   6010 0.51297200   1.008000   ; qtot 0.477782
 6011         h1    212    ccc     H9   6011 0.05653400   1.008000   ; qtot 0.534316
 6012         h1    212    ccc    H10   6012 0.05653400   1.008000   ; qtot 0.590850
 6013         oh    212    ccc     O5   6013 -0.84113600  16.000000   ; qtot -0.250286
 6014         ho    212    ccc    H11   6014 0.51201600   1.008000   ; qtot 0.261730
 6015         os    212    ccc     O6   6015 -0.26013600  16.000000   ; qtot 0.001594
; residue  213 ccc rtp ccc q 0.0
 6016         c3    213    ccc     C1   6016 -0.33178800  12.010000   ; qtot -0.330194
 6017         c3    213    ccc     C2   6017 0.30606500  12.010000   ; qtot -0.024129
 6018         h1    213    ccc     H1   6018 0.11662300   1.008000   ; qtot 0.092494
 6019         h1    213    ccc     H2   6019 0.11526800   1.008000   ; qtot 0.207762
 6020         c3    213    ccc     C3   6020 0.15592700  12.010000   ; qtot 0.363689
 6021         c3    213    ccc     C4   6021 0.28383300  12.010000   ; qtot 0.647522
 6022         c3    213    ccc     C5   6022 0.32403300  12.010000   ; qtot 0.971555
 6023         h1    213    ccc     H3   6023 0.13386900   1.008000   ; qtot 1.105424
 6024         h1    213    ccc     H4   6024 0.10146700   1.008000   ; qtot 1.206891
 6025         h2    213    ccc     H5   6025 0.10960400   1.008000   ; qtot 1.316495
 6026         os    213    ccc     O1   6026 -0.28650000  16.000000   ; qtot 1.029995
 6027         oh    213    ccc     O2   6027 -0.86012500  16.000000   ; qtot 0.169870
 6028         oh    213    ccc     O3   6028 -0.83772800  16.000000   ; qtot -0.667858
 6029         oh    213    ccc     O4   6029 -0.77449700  16.000000   ; qtot -1.442355
 6030         c3    213    ccc     C6   6030 0.37576500  12.010000   ; qtot -1.066590
 6031         ho    213    ccc     H6   6031 0.53656000   1.008000   ; qtot -0.530030
 6032         ho    213    ccc     H7   6032 0.49492100   1.008000   ; qtot -0.035109
 6033         ho    213    ccc     H8   6033 0.51297200   1.008000   ; qtot 0.477863
 6034         h1    213    ccc     H9   6034 0.05653400   1.008000   ; qtot 0.534397
 6035         h1    213    ccc    H10   6035 0.05653400   1.008000   ; qtot 0.590931
 6036         oh    213    ccc     O5   6036 -0.84113600  16.000000   ; qtot -0.250205
 6037         ho    213    ccc    H11   6037 0.51201600   1.008000   ; qtot 0.261811
 6038         os    213    ccc     O6   6038 -0.26013600  16.000000   ; qtot 0.001675
; residue  214 ccc rtp ccc q 0.0
 6039         c3    214    ccc     C1   6039 -0.33178800  12.010000   ; qtot -0.330113
 6040         c3    214    ccc     C2   6040 0.30606500  12.010000   ; qtot -0.024048
 6041         h1    214    ccc     H1   6041 0.11662300   1.008000   ; qtot 0.092575
 6042         h1    214    ccc     H2   6042 0.11526800   1.008000   ; qtot 0.207843
 6043         c3    214    ccc     C3   6043 0.15592700  12.010000   ; qtot 0.363770
 6044         c3    214    ccc     C4   6044 0.28383300  12.010000   ; qtot 0.647603
 6045         c3    214    ccc     C5   6045 0.32403300  12.010000   ; qtot 0.971636
 6046         h1    214    ccc     H3   6046 0.13386900   1.008000   ; qtot 1.105505
 6047         h1    214    ccc     H4   6047 0.10146700   1.008000   ; qtot 1.206972
 6048         h2    214    ccc     H5   6048 0.10960400   1.008000   ; qtot 1.316576
 6049         os    214    ccc     O1   6049 -0.28650000  16.000000   ; qtot 1.030076
 6050         oh    214    ccc     O2   6050 -0.86012500  16.000000   ; qtot 0.169951
 6051         oh    214    ccc     O3   6051 -0.83772800  16.000000   ; qtot -0.667777
 6052         oh    214    ccc     O4   6052 -0.77449700  16.000000   ; qtot -1.442274
 6053         c3    214    ccc     C6   6053 0.37576500  12.010000   ; qtot -1.066509
 6054         ho    214    ccc     H6   6054 0.53656000   1.008000   ; qtot -0.529949
 6055         ho    214    ccc     H7   6055 0.49492100   1.008000   ; qtot -0.035028
 6056         ho    214    ccc     H8   6056 0.51297200   1.008000   ; qtot 0.477944
 6057         h1    214    ccc     H9   6057 0.05653400   1.008000   ; qtot 0.534478
 6058         h1    214    ccc    H10   6058 0.05653400   1.008000   ; qtot 0.591012
 6059         oh    214    ccc     O5   6059 -0.84113600  16.000000   ; qtot -0.250124
 6060         ho    214    ccc    H11   6060 0.51201600   1.008000   ; qtot 0.261892
 6061         os    214    ccc     O6   6061 -0.26013600  16.000000   ; qtot 0.001756
; residue  215 ccc rtp ccc q 0.0
 6062         c3    215    ccc     C1   6062 -0.33178800  12.010000   ; qtot -0.330032
 6063         c3    215    ccc     C2   6063 0.30606500  12.010000   ; qtot -0.023967
 6064         h1    215    ccc     H1   6064 0.11662300   1.008000   ; qtot 0.092656
 6065         h1    215    ccc     H2   6065 0.11526800   1.008000   ; qtot 0.207924
 6066         c3    215    ccc     C3   6066 0.15592700  12.010000   ; qtot 0.363851
 6067         c3    215    ccc     C4   6067 0.28383300  12.010000   ; qtot 0.647684
 6068         c3    215    ccc     C5   6068 0.32403300  12.010000   ; qtot 0.971717
 6069         h1    215    ccc     H3   6069 0.13386900   1.008000   ; qtot 1.105586
 6070         h1    215    ccc     H4   6070 0.10146700   1.008000   ; qtot 1.207053
 6071         h2    215    ccc     H5   6071 0.10960400   1.008000   ; qtot 1.316657
 6072         os    215    ccc     O1   6072 -0.28650000  16.000000   ; qtot 1.030157
 6073         oh    215    ccc     O2   6073 -0.86012500  16.000000   ; qtot 0.170032
 6074         oh    215    ccc     O3   6074 -0.83772800  16.000000   ; qtot -0.667696
 6075         oh    215    ccc     O4   6075 -0.77449700  16.000000   ; qtot -1.442193
 6076         c3    215    ccc     C6   6076 0.37576500  12.010000   ; qtot -1.066428
 6077         ho    215    ccc     H6   6077 0.53656000   1.008000   ; qtot -0.529868
 6078         ho    215    ccc     H7   6078 0.49492100   1.008000   ; qtot -0.034947
 6079         ho    215    ccc     H8   6079 0.51297200   1.008000   ; qtot 0.478025
 6080         h1    215    ccc     H9   6080 0.05653400   1.008000   ; qtot 0.534559
 6081         h1    215    ccc    H10   6081 0.05653400   1.008000   ; qtot 0.591093
 6082         oh    215    ccc     O5   6082 -0.84113600  16.000000   ; qtot -0.250043
 6083         ho    215    ccc    H11   6083 0.51201600   1.008000   ; qtot 0.261973
 6084         os    215    ccc     O6   6084 -0.26013600  16.000000   ; qtot 0.001837
; residue  216 ccc rtp ccc q 0.0
 6085         c3    216    ccc     C1   6085 -0.33178800  12.010000   ; qtot -0.329951
 6086         c3    216    ccc     C2   6086 0.30606500  12.010000   ; qtot -0.023886
 6087         h1    216    ccc     H1   6087 0.11662300   1.008000   ; qtot 0.092737
 6088         h1    216    ccc     H2   6088 0.11526800   1.008000   ; qtot 0.208005
 6089         c3    216    ccc     C3   6089 0.15592700  12.010000   ; qtot 0.363932
 6090         c3    216    ccc     C4   6090 0.28383300  12.010000   ; qtot 0.647765
 6091         c3    216    ccc     C5   6091 0.32403300  12.010000   ; qtot 0.971798
 6092         h1    216    ccc     H3   6092 0.13386900   1.008000   ; qtot 1.105667
 6093         h1    216    ccc     H4   6093 0.10146700   1.008000   ; qtot 1.207134
 6094         h2    216    ccc     H5   6094 0.10960400   1.008000   ; qtot 1.316738
 6095         os    216    ccc     O1   6095 -0.28650000  16.000000   ; qtot 1.030238
 6096         oh    216    ccc     O2   6096 -0.86012500  16.000000   ; qtot 0.170113
 6097         oh    216    ccc     O3   6097 -0.83772800  16.000000   ; qtot -0.667615
 6098         oh    216    ccc     O4   6098 -0.77449700  16.000000   ; qtot -1.442112
 6099         c3    216    ccc     C6   6099 0.37576500  12.010000   ; qtot -1.066347
 6100         ho    216    ccc     H6   6100 0.53656000   1.008000   ; qtot -0.529787
 6101         ho    216    ccc     H7   6101 0.49492100   1.008000   ; qtot -0.034866
 6102         ho    216    ccc     H8   6102 0.51297200   1.008000   ; qtot 0.478106
 6103         h1    216    ccc     H9   6103 0.05653400   1.008000   ; qtot 0.534640
 6104         h1    216    ccc    H10   6104 0.05653400   1.008000   ; qtot 0.591174
 6105         oh    216    ccc     O5   6105 -0.84113600  16.000000   ; qtot -0.249962
 6106         ho    216    ccc    H11   6106 0.51201600   1.008000   ; qtot 0.262054
 6107         os    216    ccc     O6   6107 -0.26013600  16.000000   ; qtot 0.001918
; residue  217 ccc rtp ccc q 0.0
 6108         c3    217    ccc     C1   6108 -0.33178800  12.010000   ; qtot -0.329870
 6109         c3    217    ccc     C2   6109 0.30606500  12.010000   ; qtot -0.023805
 6110         h1    217    ccc     H1   6110 0.11662300   1.008000   ; qtot 0.092818
 6111         h1    217    ccc     H2   6111 0.11526800   1.008000   ; qtot 0.208086
 6112         c3    217    ccc     C3   6112 0.15592700  12.010000   ; qtot 0.364013
 6113         c3    217    ccc     C4   6113 0.28383300  12.010000   ; qtot 0.647846
 6114         c3    217    ccc     C5   6114 0.32403300  12.010000   ; qtot 0.971879
 6115         h1    217    ccc     H3   6115 0.13386900   1.008000   ; qtot 1.105748
 6116         h1    217    ccc     H4   6116 0.10146700   1.008000   ; qtot 1.207215
 6117         h2    217    ccc     H5   6117 0.10960400   1.008000   ; qtot 1.316819
 6118         os    217    ccc     O1   6118 -0.28650000  16.000000   ; qtot 1.030319
 6119         oh    217    ccc     O2   6119 -0.86012500  16.000000   ; qtot 0.170194
 6120         oh    217    ccc     O3   6120 -0.83772800  16.000000   ; qtot -0.667534
 6121         oh    217    ccc     O4   6121 -0.77449700  16.000000   ; qtot -1.442031
 6122         c3    217    ccc     C6   6122 0.37576500  12.010000   ; qtot -1.066266
 6123         ho    217    ccc     H6   6123 0.53656000   1.008000   ; qtot -0.529706
 6124         ho    217    ccc     H7   6124 0.49492100   1.008000   ; qtot -0.034785
 6125         ho    217    ccc     H8   6125 0.51297200   1.008000   ; qtot 0.478187
 6126         h1    217    ccc     H9   6126 0.05653400   1.008000   ; qtot 0.534721
 6127         h1    217    ccc    H10   6127 0.05653400   1.008000   ; qtot 0.591255
 6128         oh    217    ccc     O5   6128 -0.84113600  16.000000   ; qtot -0.249881
 6129         ho    217    ccc    H11   6129 0.51201600   1.008000   ; qtot 0.262135
 6130         os    217    ccc     O6   6130 -0.26013600  16.000000   ; qtot 0.001999
; residue  218 ccc rtp ccc q 0.0
 6131         c3    218    ccc     C1   6131 -0.33178800  12.010000   ; qtot -0.329789
 6132         c3    218    ccc     C2   6132 0.30606500  12.010000   ; qtot -0.023724
 6133         h1    218    ccc     H1   6133 0.11662300   1.008000   ; qtot 0.092899
 6134         h1    218    ccc     H2   6134 0.11526800   1.008000   ; qtot 0.208167
 6135         c3    218    ccc     C3   6135 0.15592700  12.010000   ; qtot 0.364094
 6136         c3    218    ccc     C4   6136 0.28383300  12.010000   ; qtot 0.647927
 6137         c3    218    ccc     C5   6137 0.32403300  12.010000   ; qtot 0.971960
 6138         h1    218    ccc     H3   6138 0.13386900   1.008000   ; qtot 1.105829
 6139         h1    218    ccc     H4   6139 0.10146700   1.008000   ; qtot 1.207296
 6140         h2    218    ccc     H5   6140 0.10960400   1.008000   ; qtot 1.316900
 6141         os    218    ccc     O1   6141 -0.28650000  16.000000   ; qtot 1.030400
 6142         oh    218    ccc     O2   6142 -0.86012500  16.000000   ; qtot 0.170275
 6143         oh    218    ccc     O3   6143 -0.83772800  16.000000   ; qtot -0.667453
 6144         oh    218    ccc     O4   6144 -0.77449700  16.000000   ; qtot -1.441950
 6145         c3    218    ccc     C6   6145 0.37576500  12.010000   ; qtot -1.066185
 6146         ho    218    ccc     H6   6146 0.53656000   1.008000   ; qtot -0.529625
 6147         ho    218    ccc     H7   6147 0.49492100   1.008000   ; qtot -0.034704
 6148         ho    218    ccc     H8   6148 0.51297200   1.008000   ; qtot 0.478268
 6149         h1    218    ccc     H9   6149 0.05653400   1.008000   ; qtot 0.534802
 6150         h1    218    ccc    H10   6150 0.05653400   1.008000   ; qtot 0.591336
 6151         oh    218    ccc     O5   6151 -0.84113600  16.000000   ; qtot -0.249800
 6152         ho    218    ccc    H11   6152 0.51201600   1.008000   ; qtot 0.262216
 6153         os    218    ccc     O6   6153 -0.26013600  16.000000   ; qtot 0.002080
; residue  219 ccc rtp ccc q 0.0
 6154         c3    219    ccc     C1   6154 -0.33178800  12.010000   ; qtot -0.329708
 6155         c3    219    ccc     C2   6155 0.30606500  12.010000   ; qtot -0.023643
 6156         h1    219    ccc     H1   6156 0.11662300   1.008000   ; qtot 0.092980
 6157         h1    219    ccc     H2   6157 0.11526800   1.008000   ; qtot 0.208248
 6158         c3    219    ccc     C3   6158 0.15592700  12.010000   ; qtot 0.364175
 6159         c3    219    ccc     C4   6159 0.28383300  12.010000   ; qtot 0.648008
 6160         c3    219    ccc     C5   6160 0.32403300  12.010000   ; qtot 0.972041
 6161         h1    219    ccc     H3   6161 0.13386900   1.008000   ; qtot 1.105910
 6162         h1    219    ccc     H4   6162 0.10146700   1.008000   ; qtot 1.207377
 6163         h2    219    ccc     H5   6163 0.10960400   1.008000   ; qtot 1.316981
 6164         os    219    ccc     O1   6164 -0.28650000  16.000000   ; qtot 1.030481
 6165         oh    219    ccc     O2   6165 -0.86012500  16.000000   ; qtot 0.170356
 6166         oh    219    ccc     O3   6166 -0.83772800  16.000000   ; qtot -0.667372
 6167         oh    219    ccc     O4   6167 -0.77449700  16.000000   ; qtot -1.441869
 6168         c3    219    ccc     C6   6168 0.37576500  12.010000   ; qtot -1.066104
 6169         ho    219    ccc     H6   6169 0.53656000   1.008000   ; qtot -0.529544
 6170         ho    219    ccc     H7   6170 0.49492100   1.008000   ; qtot -0.034623
 6171         ho    219    ccc     H8   6171 0.51297200   1.008000   ; qtot 0.478349
 6172         h1    219    ccc     H9   6172 0.05653400   1.008000   ; qtot 0.534883
 6173         h1    219    ccc    H10   6173 0.05653400   1.008000   ; qtot 0.591417
 6174         oh    219    ccc     O5   6174 -0.84113600  16.000000   ; qtot -0.249719
 6175         ho    219    ccc    H11   6175 0.51201600   1.008000   ; qtot 0.262297
 6176         os    219    ccc     O6   6176 -0.26013600  16.000000   ; qtot 0.002161
; residue  220 ccc rtp ccc q 0.0
 6177         c3    220    ccc     C1   6177 -0.33178800  12.010000   ; qtot -0.329627
 6178         c3    220    ccc     C2   6178 0.30606500  12.010000   ; qtot -0.023562
 6179         h1    220    ccc     H1   6179 0.11662300   1.008000   ; qtot 0.093061
 6180         h1    220    ccc     H2   6180 0.11526800   1.008000   ; qtot 0.208329
 6181         c3    220    ccc     C3   6181 0.15592700  12.010000   ; qtot 0.364256
 6182         c3    220    ccc     C4   6182 0.28383300  12.010000   ; qtot 0.648089
 6183         c3    220    ccc     C5   6183 0.32403300  12.010000   ; qtot 0.972122
 6184         h1    220    ccc     H3   6184 0.13386900   1.008000   ; qtot 1.105991
 6185         h1    220    ccc     H4   6185 0.10146700   1.008000   ; qtot 1.207458
 6186         h2    220    ccc     H5   6186 0.10960400   1.008000   ; qtot 1.317062
 6187         os    220    ccc     O1   6187 -0.28650000  16.000000   ; qtot 1.030562
 6188         oh    220    ccc     O2   6188 -0.86012500  16.000000   ; qtot 0.170437
 6189         oh    220    ccc     O3   6189 -0.83772800  16.000000   ; qtot -0.667291
 6190         oh    220    ccc     O4   6190 -0.77449700  16.000000   ; qtot -1.441788
 6191         c3    220    ccc     C6   6191 0.37576500  12.010000   ; qtot -1.066023
 6192         ho    220    ccc     H6   6192 0.53656000   1.008000   ; qtot -0.529463
 6193         ho    220    ccc     H7   6193 0.49492100   1.008000   ; qtot -0.034542
 6194         ho    220    ccc     H8   6194 0.51297200   1.008000   ; qtot 0.478430
 6195         h1    220    ccc     H9   6195 0.05653400   1.008000   ; qtot 0.534964
 6196         h1    220    ccc    H10   6196 0.05653400   1.008000   ; qtot 0.591498
 6197         oh    220    ccc     O5   6197 -0.84113600  16.000000   ; qtot -0.249638
 6198         ho    220    ccc    H11   6198 0.51201600   1.008000   ; qtot 0.262378
 6199         os    220    ccc     O6   6199 -0.26013600  16.000000   ; qtot 0.002242
; residue  221 ccc rtp ccc q 0.0
 6200         c3    221    ccc     C1   6200 -0.33178800  12.010000   ; qtot -0.329546
 6201         c3    221    ccc     C2   6201 0.30606500  12.010000   ; qtot -0.023481
 6202         h1    221    ccc     H1   6202 0.11662300   1.008000   ; qtot 0.093142
 6203         h1    221    ccc     H2   6203 0.11526800   1.008000   ; qtot 0.208410
 6204         c3    221    ccc     C3   6204 0.15592700  12.010000   ; qtot 0.364337
 6205         c3    221    ccc     C4   6205 0.28383300  12.010000   ; qtot 0.648170
 6206         c3    221    ccc     C5   6206 0.32403300  12.010000   ; qtot 0.972203
 6207         h1    221    ccc     H3   6207 0.13386900   1.008000   ; qtot 1.106072
 6208         h1    221    ccc     H4   6208 0.10146700   1.008000   ; qtot 1.207539
 6209         h2    221    ccc     H5   6209 0.10960400   1.008000   ; qtot 1.317143
 6210         os    221    ccc     O1   6210 -0.28650000  16.000000   ; qtot 1.030643
 6211         oh    221    ccc     O2   6211 -0.86012500  16.000000   ; qtot 0.170518
 6212         oh    221    ccc     O3   6212 -0.83772800  16.000000   ; qtot -0.667210
 6213         oh    221    ccc     O4   6213 -0.77449700  16.000000   ; qtot -1.441707
 6214         c3    221    ccc     C6   6214 0.37576500  12.010000   ; qtot -1.065942
 6215         ho    221    ccc     H6   6215 0.53656000   1.008000   ; qtot -0.529382
 6216         ho    221    ccc     H7   6216 0.49492100   1.008000   ; qtot -0.034461
 6217         ho    221    ccc     H8   6217 0.51297200   1.008000   ; qtot 0.478511
 6218         h1    221    ccc     H9   6218 0.05653400   1.008000   ; qtot 0.535045
 6219         h1    221    ccc    H10   6219 0.05653400   1.008000   ; qtot 0.591579
 6220         oh    221    ccc     O5   6220 -0.84113600  16.000000   ; qtot -0.249557
 6221         ho    221    ccc    H11   6221 0.51201600   1.008000   ; qtot 0.262459
 6222         os    221    ccc     O6   6222 -0.26013600  16.000000   ; qtot 0.002323
; residue  222 ccc rtp ccc q 0.0
 6223         c3    222    ccc     C1   6223 -0.33178800  12.010000   ; qtot -0.329465
 6224         c3    222    ccc     C2   6224 0.30606500  12.010000   ; qtot -0.023400
 6225         h1    222    ccc     H1   6225 0.11662300   1.008000   ; qtot 0.093223
 6226         h1    222    ccc     H2   6226 0.11526800   1.008000   ; qtot 0.208491
 6227         c3    222    ccc     C3   6227 0.15592700  12.010000   ; qtot 0.364418
 6228         c3    222    ccc     C4   6228 0.28383300  12.010000   ; qtot 0.648251
 6229         c3    222    ccc     C5   6229 0.32403300  12.010000   ; qtot 0.972284
 6230         h1    222    ccc     H3   6230 0.13386900   1.008000   ; qtot 1.106153
 6231         h1    222    ccc     H4   6231 0.10146700   1.008000   ; qtot 1.207620
 6232         h2    222    ccc     H5   6232 0.10960400   1.008000   ; qtot 1.317224
 6233         os    222    ccc     O1   6233 -0.28650000  16.000000   ; qtot 1.030724
 6234         oh    222    ccc     O2   6234 -0.86012500  16.000000   ; qtot 0.170599
 6235         oh    222    ccc     O3   6235 -0.83772800  16.000000   ; qtot -0.667129
 6236         oh    222    ccc     O4   6236 -0.77449700  16.000000   ; qtot -1.441626
 6237         c3    222    ccc     C6   6237 0.37576500  12.010000   ; qtot -1.065861
 6238         ho    222    ccc     H6   6238 0.53656000   1.008000   ; qtot -0.529301
 6239         ho    222    ccc     H7   6239 0.49492100   1.008000   ; qtot -0.034380
 6240         ho    222    ccc     H8   6240 0.51297200   1.008000   ; qtot 0.478592
 6241         h1    222    ccc     H9   6241 0.05653400   1.008000   ; qtot 0.535126
 6242         h1    222    ccc    H10   6242 0.05653400   1.008000   ; qtot 0.591660
 6243         oh    222    ccc     O5   6243 -0.84113600  16.000000   ; qtot -0.249476
 6244         ho    222    ccc    H11   6244 0.51201600   1.008000   ; qtot 0.262540
 6245         os    222    ccc     O6   6245 -0.26013600  16.000000   ; qtot 0.002404
; residue  223 ccc rtp ccc q 0.0
 6246         c3    223    ccc     C1   6246 -0.33178800  12.010000   ; qtot -0.329384
 6247         c3    223    ccc     C2   6247 0.30606500  12.010000   ; qtot -0.023319
 6248         h1    223    ccc     H1   6248 0.11662300   1.008000   ; qtot 0.093304
 6249         h1    223    ccc     H2   6249 0.11526800   1.008000   ; qtot 0.208572
 6250         c3    223    ccc     C3   6250 0.15592700  12.010000   ; qtot 0.364499
 6251         c3    223    ccc     C4   6251 0.28383300  12.010000   ; qtot 0.648332
 6252         c3    223    ccc     C5   6252 0.32403300  12.010000   ; qtot 0.972365
 6253         h1    223    ccc     H3   6253 0.13386900   1.008000   ; qtot 1.106234
 6254         h1    223    ccc     H4   6254 0.10146700   1.008000   ; qtot 1.207701
 6255         h2    223    ccc     H5   6255 0.10960400   1.008000   ; qtot 1.317305
 6256         os    223    ccc     O1   6256 -0.28650000  16.000000   ; qtot 1.030805
 6257         oh    223    ccc     O2   6257 -0.86012500  16.000000   ; qtot 0.170680
 6258         oh    223    ccc     O3   6258 -0.83772800  16.000000   ; qtot -0.667048
 6259         oh    223    ccc     O4   6259 -0.77449700  16.000000   ; qtot -1.441545
 6260         c3    223    ccc     C6   6260 0.37576500  12.010000   ; qtot -1.065780
 6261         ho    223    ccc     H6   6261 0.53656000   1.008000   ; qtot -0.529220
 6262         ho    223    ccc     H7   6262 0.49492100   1.008000   ; qtot -0.034299
 6263         ho    223    ccc     H8   6263 0.51297200   1.008000   ; qtot 0.478673
 6264         h1    223    ccc     H9   6264 0.05653400   1.008000   ; qtot 0.535207
 6265         h1    223    ccc    H10   6265 0.05653400   1.008000   ; qtot 0.591741
 6266         oh    223    ccc     O5   6266 -0.84113600  16.000000   ; qtot -0.249395
 6267         ho    223    ccc    H11   6267 0.51201600   1.008000   ; qtot 0.262621
 6268         os    223    ccc     O6   6268 -0.26013600  16.000000   ; qtot 0.002485
; residue  224 ccc rtp ccc q 0.0
 6269         c3    224    ccc     C1   6269 -0.33178800  12.010000   ; qtot -0.329303
 6270         c3    224    ccc     C2   6270 0.30606500  12.010000   ; qtot -0.023238
 6271         h1    224    ccc     H1   6271 0.11662300   1.008000   ; qtot 0.093385
 6272         h1    224    ccc     H2   6272 0.11526800   1.008000   ; qtot 0.208653
 6273         c3    224    ccc     C3   6273 0.15592700  12.010000   ; qtot 0.364580
 6274         c3    224    ccc     C4   6274 0.28383300  12.010000   ; qtot 0.648413
 6275         c3    224    ccc     C5   6275 0.32403300  12.010000   ; qtot 0.972446
 6276         h1    224    ccc     H3   6276 0.13386900   1.008000   ; qtot 1.106315
 6277         h1    224    ccc     H4   6277 0.10146700   1.008000   ; qtot 1.207782
 6278         h2    224    ccc     H5   6278 0.10960400   1.008000   ; qtot 1.317386
 6279         os    224    ccc     O1   6279 -0.28650000  16.000000   ; qtot 1.030886
 6280         oh    224    ccc     O2   6280 -0.86012500  16.000000   ; qtot 0.170761
 6281         oh    224    ccc     O3   6281 -0.83772800  16.000000   ; qtot -0.666967
 6282         oh    224    ccc     O4   6282 -0.77449700  16.000000   ; qtot -1.441464
 6283         c3    224    ccc     C6   6283 0.37576500  12.010000   ; qtot -1.065699
 6284         ho    224    ccc     H6   6284 0.53656000   1.008000   ; qtot -0.529139
 6285         ho    224    ccc     H7   6285 0.49492100   1.008000   ; qtot -0.034218
 6286         ho    224    ccc     H8   6286 0.51297200   1.008000   ; qtot 0.478754
 6287         h1    224    ccc     H9   6287 0.05653400   1.008000   ; qtot 0.535288
 6288         h1    224    ccc    H10   6288 0.05653400   1.008000   ; qtot 0.591822
 6289         oh    224    ccc     O5   6289 -0.84113600  16.000000   ; qtot -0.249314
 6290         ho    224    ccc    H11   6290 0.51201600   1.008000   ; qtot 0.262702
 6291         os    224    ccc     O6   6291 -0.26013600  16.000000   ; qtot 0.002566
; residue  225 ccc rtp ccc q 0.0
 6292         c3    225    ccc     C1   6292 -0.33178800  12.010000   ; qtot -0.329222
 6293         c3    225    ccc     C2   6293 0.30606500  12.010000   ; qtot -0.023157
 6294         h1    225    ccc     H1   6294 0.11662300   1.008000   ; qtot 0.093466
 6295         h1    225    ccc     H2   6295 0.11526800   1.008000   ; qtot 0.208734
 6296         c3    225    ccc     C3   6296 0.15592700  12.010000   ; qtot 0.364661
 6297         c3    225    ccc     C4   6297 0.28383300  12.010000   ; qtot 0.648494
 6298         c3    225    ccc     C5   6298 0.32403300  12.010000   ; qtot 0.972527
 6299         h1    225    ccc     H3   6299 0.13386900   1.008000   ; qtot 1.106396
 6300         h1    225    ccc     H4   6300 0.10146700   1.008000   ; qtot 1.207863
 6301         h2    225    ccc     H5   6301 0.10960400   1.008000   ; qtot 1.317467
 6302         os    225    ccc     O1   6302 -0.28650000  16.000000   ; qtot 1.030967
 6303         oh    225    ccc     O2   6303 -0.86012500  16.000000   ; qtot 0.170842
 6304         oh    225    ccc     O3   6304 -0.83772800  16.000000   ; qtot -0.666886
 6305         oh    225    ccc     O4   6305 -0.77449700  16.000000   ; qtot -1.441383
 6306         c3    225    ccc     C6   6306 0.37576500  12.010000   ; qtot -1.065618
 6307         ho    225    ccc     H6   6307 0.53656000   1.008000   ; qtot -0.529058
 6308         ho    225    ccc     H7   6308 0.49492100   1.008000   ; qtot -0.034137
 6309         ho    225    ccc     H8   6309 0.51297200   1.008000   ; qtot 0.478835
 6310         h1    225    ccc     H9   6310 0.05653400   1.008000   ; qtot 0.535369
 6311         h1    225    ccc    H10   6311 0.05653400   1.008000   ; qtot 0.591903
 6312         oh    225    ccc     O5   6312 -0.84113600  16.000000   ; qtot -0.249233
 6313         ho    225    ccc    H11   6313 0.51201600   1.008000   ; qtot 0.262783
 6314         os    225    ccc     O6   6314 -0.26013600  16.000000   ; qtot 0.002647
; residue  226 ccc rtp ccc q 0.0
 6315         c3    226    ccc     C1   6315 -0.33178800  12.010000   ; qtot -0.329141
 6316         c3    226    ccc     C2   6316 0.30606500  12.010000   ; qtot -0.023076
 6317         h1    226    ccc     H1   6317 0.11662300   1.008000   ; qtot 0.093547
 6318         h1    226    ccc     H2   6318 0.11526800   1.008000   ; qtot 0.208815
 6319         c3    226    ccc     C3   6319 0.15592700  12.010000   ; qtot 0.364742
 6320         c3    226    ccc     C4   6320 0.28383300  12.010000   ; qtot 0.648575
 6321         c3    226    ccc     C5   6321 0.32403300  12.010000   ; qtot 0.972608
 6322         h1    226    ccc     H3   6322 0.13386900   1.008000   ; qtot 1.106477
 6323         h1    226    ccc     H4   6323 0.10146700   1.008000   ; qtot 1.207944
 6324         h2    226    ccc     H5   6324 0.10960400   1.008000   ; qtot 1.317548
 6325         os    226    ccc     O1   6325 -0.28650000  16.000000   ; qtot 1.031048
 6326         oh    226    ccc     O2   6326 -0.86012500  16.000000   ; qtot 0.170923
 6327         oh    226    ccc     O3   6327 -0.83772800  16.000000   ; qtot -0.666805
 6328         oh    226    ccc     O4   6328 -0.77449700  16.000000   ; qtot -1.441302
 6329         c3    226    ccc     C6   6329 0.37576500  12.010000   ; qtot -1.065537
 6330         ho    226    ccc     H6   6330 0.53656000   1.008000   ; qtot -0.528977
 6331         ho    226    ccc     H7   6331 0.49492100   1.008000   ; qtot -0.034056
 6332         ho    226    ccc     H8   6332 0.51297200   1.008000   ; qtot 0.478916
 6333         h1    226    ccc     H9   6333 0.05653400   1.008000   ; qtot 0.535450
 6334         h1    226    ccc    H10   6334 0.05653400   1.008000   ; qtot 0.591984
 6335         oh    226    ccc     O5   6335 -0.84113600  16.000000   ; qtot -0.249152
 6336         ho    226    ccc    H11   6336 0.51201600   1.008000   ; qtot 0.262864
 6337         os    226    ccc     O6   6337 -0.26013600  16.000000   ; qtot 0.002728
; residue  227 ccc rtp ccc q 0.0
 6338         c3    227    ccc     C1   6338 -0.33178800  12.010000   ; qtot -0.329060
 6339         c3    227    ccc     C2   6339 0.30606500  12.010000   ; qtot -0.022995
 6340         h1    227    ccc     H1   6340 0.11662300   1.008000   ; qtot 0.093628
 6341         h1    227    ccc     H2   6341 0.11526800   1.008000   ; qtot 0.208896
 6342         c3    227    ccc     C3   6342 0.15592700  12.010000   ; qtot 0.364823
 6343         c3    227    ccc     C4   6343 0.28383300  12.010000   ; qtot 0.648656
 6344         c3    227    ccc     C5   6344 0.32403300  12.010000   ; qtot 0.972689
 6345         h1    227    ccc     H3   6345 0.13386900   1.008000   ; qtot 1.106558
 6346         h1    227    ccc     H4   6346 0.10146700   1.008000   ; qtot 1.208025
 6347         h2    227    ccc     H5   6347 0.10960400   1.008000   ; qtot 1.317629
 6348         os    227    ccc     O1   6348 -0.28650000  16.000000   ; qtot 1.031129
 6349         oh    227    ccc     O2   6349 -0.86012500  16.000000   ; qtot 0.171004
 6350         oh    227    ccc     O3   6350 -0.83772800  16.000000   ; qtot -0.666724
 6351         oh    227    ccc     O4   6351 -0.77449700  16.000000   ; qtot -1.441221
 6352         c3    227    ccc     C6   6352 0.37576500  12.010000   ; qtot -1.065456
 6353         ho    227    ccc     H6   6353 0.53656000   1.008000   ; qtot -0.528896
 6354         ho    227    ccc     H7   6354 0.49492100   1.008000   ; qtot -0.033975
 6355         ho    227    ccc     H8   6355 0.51297200   1.008000   ; qtot 0.478997
 6356         h1    227    ccc     H9   6356 0.05653400   1.008000   ; qtot 0.535531
 6357         h1    227    ccc    H10   6357 0.05653400   1.008000   ; qtot 0.592065
 6358         oh    227    ccc     O5   6358 -0.84113600  16.000000   ; qtot -0.249071
 6359         ho    227    ccc    H11   6359 0.51201600   1.008000   ; qtot 0.262945
 6360         os    227    ccc     O6   6360 -0.26013600  16.000000   ; qtot 0.002809
; residue  228 ccc rtp ccc q 0.0
 6361         c3    228    ccc     C1   6361 -0.33178800  12.010000   ; qtot -0.328979
 6362         c3    228    ccc     C2   6362 0.30606500  12.010000   ; qtot -0.022914
 6363         h1    228    ccc     H1   6363 0.11662300   1.008000   ; qtot 0.093709
 6364         h1    228    ccc     H2   6364 0.11526800   1.008000   ; qtot 0.208977
 6365         c3    228    ccc     C3   6365 0.15592700  12.010000   ; qtot 0.364904
 6366         c3    228    ccc     C4   6366 0.28383300  12.010000   ; qtot 0.648737
 6367         c3    228    ccc     C5   6367 0.32403300  12.010000   ; qtot 0.972770
 6368         h1    228    ccc     H3   6368 0.13386900   1.008000   ; qtot 1.106639
 6369         h1    228    ccc     H4   6369 0.10146700   1.008000   ; qtot 1.208106
 6370         h2    228    ccc     H5   6370 0.10960400   1.008000   ; qtot 1.317710
 6371         os    228    ccc     O1   6371 -0.28650000  16.000000   ; qtot 1.031210
 6372         oh    228    ccc     O2   6372 -0.86012500  16.000000   ; qtot 0.171085
 6373         oh    228    ccc     O3   6373 -0.83772800  16.000000   ; qtot -0.666643
 6374         oh    228    ccc     O4   6374 -0.77449700  16.000000   ; qtot -1.441140
 6375         c3    228    ccc     C6   6375 0.37576500  12.010000   ; qtot -1.065375
 6376         ho    228    ccc     H6   6376 0.53656000   1.008000   ; qtot -0.528815
 6377         ho    228    ccc     H7   6377 0.49492100   1.008000   ; qtot -0.033894
 6378         ho    228    ccc     H8   6378 0.51297200   1.008000   ; qtot 0.479078
 6379         h1    228    ccc     H9   6379 0.05653400   1.008000   ; qtot 0.535612
 6380         h1    228    ccc    H10   6380 0.05653400   1.008000   ; qtot 0.592146
 6381         oh    228    ccc     O5   6381 -0.84113600  16.000000   ; qtot -0.248990
 6382         ho    228    ccc    H11   6382 0.51201600   1.008000   ; qtot 0.263026
 6383         os    228    ccc     O6   6383 -0.26013600  16.000000   ; qtot 0.002890
; residue  229 ccc rtp ccc q 0.0
 6384         c3    229    ccc     C1   6384 -0.33178800  12.010000   ; qtot -0.328898
 6385         c3    229    ccc     C2   6385 0.30606500  12.010000   ; qtot -0.022833
 6386         h1    229    ccc     H1   6386 0.11662300   1.008000   ; qtot 0.093790
 6387         h1    229    ccc     H2   6387 0.11526800   1.008000   ; qtot 0.209058
 6388         c3    229    ccc     C3   6388 0.15592700  12.010000   ; qtot 0.364985
 6389         c3    229    ccc     C4   6389 0.28383300  12.010000   ; qtot 0.648818
 6390         c3    229    ccc     C5   6390 0.32403300  12.010000   ; qtot 0.972851
 6391         h1    229    ccc     H3   6391 0.13386900   1.008000   ; qtot 1.106720
 6392         h1    229    ccc     H4   6392 0.10146700   1.008000   ; qtot 1.208187
 6393         h2    229    ccc     H5   6393 0.10960400   1.008000   ; qtot 1.317791
 6394         os    229    ccc     O1   6394 -0.28650000  16.000000   ; qtot 1.031291
 6395         oh    229    ccc     O2   6395 -0.86012500  16.000000   ; qtot 0.171166
 6396         oh    229    ccc     O3   6396 -0.83772800  16.000000   ; qtot -0.666562
 6397         oh    229    ccc     O4   6397 -0.77449700  16.000000   ; qtot -1.441059
 6398         c3    229    ccc     C6   6398 0.37576500  12.010000   ; qtot -1.065294
 6399         ho    229    ccc     H6   6399 0.53656000   1.008000   ; qtot -0.528734
 6400         ho    229    ccc     H7   6400 0.49492100   1.008000   ; qtot -0.033813
 6401         ho    229    ccc     H8   6401 0.51297200   1.008000   ; qtot 0.479159
 6402         h1    229    ccc     H9   6402 0.05653400   1.008000   ; qtot 0.535693
 6403         h1    229    ccc    H10   6403 0.05653400   1.008000   ; qtot 0.592227
 6404         oh    229    ccc     O5   6404 -0.84113600  16.000000   ; qtot -0.248909
 6405         ho    229    ccc    H11   6405 0.51201600   1.008000   ; qtot 0.263107
 6406         os    229    ccc     O6   6406 -0.26013600  16.000000   ; qtot 0.002971
; residue  230 ccc rtp ccc q 0.0
 6407         c3    230    ccc     C1   6407 -0.33178800  12.010000   ; qtot -0.328817
 6408         c3    230    ccc     C2   6408 0.30606500  12.010000   ; qtot -0.022752
 6409         h1    230    ccc     H1   6409 0.11662300   1.008000   ; qtot 0.093871
 6410         h1    230    ccc     H2   6410 0.11526800   1.008000   ; qtot 0.209139
 6411         c3    230    ccc     C3   6411 0.15592700  12.010000   ; qtot 0.365066
 6412         c3    230    ccc     C4   6412 0.28383300  12.010000   ; qtot 0.648899
 6413         c3    230    ccc     C5   6413 0.32403300  12.010000   ; qtot 0.972932
 6414         h1    230    ccc     H3   6414 0.13386900   1.008000   ; qtot 1.106801
 6415         h1    230    ccc     H4   6415 0.10146700   1.008000   ; qtot 1.208268
 6416         h2    230    ccc     H5   6416 0.10960400   1.008000   ; qtot 1.317872
 6417         os    230    ccc     O1   6417 -0.28650000  16.000000   ; qtot 1.031372
 6418         oh    230    ccc     O2   6418 -0.86012500  16.000000   ; qtot 0.171247
 6419         oh    230    ccc     O3   6419 -0.83772800  16.000000   ; qtot -0.666481
 6420         oh    230    ccc     O4   6420 -0.77449700  16.000000   ; qtot -1.440978
 6421         c3    230    ccc     C6   6421 0.37576500  12.010000   ; qtot -1.065213
 6422         ho    230    ccc     H6   6422 0.53656000   1.008000   ; qtot -0.528653
 6423         ho    230    ccc     H7   6423 0.49492100   1.008000   ; qtot -0.033732
 6424         ho    230    ccc     H8   6424 0.51297200   1.008000   ; qtot 0.479240
 6425         h1    230    ccc     H9   6425 0.05653400   1.008000   ; qtot 0.535774
 6426         h1    230    ccc    H10   6426 0.05653400   1.008000   ; qtot 0.592308
 6427         oh    230    ccc     O5   6427 -0.84113600  16.000000   ; qtot -0.248828
 6428         ho    230    ccc    H11   6428 0.51201600   1.008000   ; qtot 0.263188
 6429         os    230    ccc     O6   6429 -0.26013600  16.000000   ; qtot 0.003052
; residue  231 ccc rtp ccc q 0.0
 6430         c3    231    ccc     C1   6430 -0.33178800  12.010000   ; qtot -0.328736
 6431         c3    231    ccc     C2   6431 0.30606500  12.010000   ; qtot -0.022671
 6432         h1    231    ccc     H1   6432 0.11662300   1.008000   ; qtot 0.093952
 6433         h1    231    ccc     H2   6433 0.11526800   1.008000   ; qtot 0.209220
 6434         c3    231    ccc     C3   6434 0.15592700  12.010000   ; qtot 0.365147
 6435         c3    231    ccc     C4   6435 0.28383300  12.010000   ; qtot 0.648980
 6436         c3    231    ccc     C5   6436 0.32403300  12.010000   ; qtot 0.973013
 6437         h1    231    ccc     H3   6437 0.13386900   1.008000   ; qtot 1.106882
 6438         h1    231    ccc     H4   6438 0.10146700   1.008000   ; qtot 1.208349
 6439         h2    231    ccc     H5   6439 0.10960400   1.008000   ; qtot 1.317953
 6440         os    231    ccc     O1   6440 -0.28650000  16.000000   ; qtot 1.031453
 6441         oh    231    ccc     O2   6441 -0.86012500  16.000000   ; qtot 0.171328
 6442         oh    231    ccc     O3   6442 -0.83772800  16.000000   ; qtot -0.666400
 6443         oh    231    ccc     O4   6443 -0.77449700  16.000000   ; qtot -1.440897
 6444         c3    231    ccc     C6   6444 0.37576500  12.010000   ; qtot -1.065132
 6445         ho    231    ccc     H6   6445 0.53656000   1.008000   ; qtot -0.528572
 6446         ho    231    ccc     H7   6446 0.49492100   1.008000   ; qtot -0.033651
 6447         ho    231    ccc     H8   6447 0.51297200   1.008000   ; qtot 0.479321
 6448         h1    231    ccc     H9   6448 0.05653400   1.008000   ; qtot 0.535855
 6449         h1    231    ccc    H10   6449 0.05653400   1.008000   ; qtot 0.592389
 6450         oh    231    ccc     O5   6450 -0.84113600  16.000000   ; qtot -0.248747
 6451         ho    231    ccc    H11   6451 0.51201600   1.008000   ; qtot 0.263269
 6452         os    231    ccc     O6   6452 -0.26013600  16.000000   ; qtot 0.003133
; residue  232 ccc rtp ccc q 0.0
 6453         c3    232    ccc     C1   6453 -0.33178800  12.010000   ; qtot -0.328655
 6454         c3    232    ccc     C2   6454 0.30606500  12.010000   ; qtot -0.022590
 6455         h1    232    ccc     H1   6455 0.11662300   1.008000   ; qtot 0.094033
 6456         h1    232    ccc     H2   6456 0.11526800   1.008000   ; qtot 0.209301
 6457         c3    232    ccc     C3   6457 0.15592700  12.010000   ; qtot 0.365228
 6458         c3    232    ccc     C4   6458 0.28383300  12.010000   ; qtot 0.649061
 6459         c3    232    ccc     C5   6459 0.32403300  12.010000   ; qtot 0.973094
 6460         h1    232    ccc     H3   6460 0.13386900   1.008000   ; qtot 1.106963
 6461         h1    232    ccc     H4   6461 0.10146700   1.008000   ; qtot 1.208430
 6462         h2    232    ccc     H5   6462 0.10960400   1.008000   ; qtot 1.318034
 6463         os    232    ccc     O1   6463 -0.28650000  16.000000   ; qtot 1.031534
 6464         oh    232    ccc     O2   6464 -0.86012500  16.000000   ; qtot 0.171409
 6465         oh    232    ccc     O3   6465 -0.83772800  16.000000   ; qtot -0.666319
 6466         oh    232    ccc     O4   6466 -0.77449700  16.000000   ; qtot -1.440816
 6467         c3    232    ccc     C6   6467 0.37576500  12.010000   ; qtot -1.065051
 6468         ho    232    ccc     H6   6468 0.53656000   1.008000   ; qtot -0.528491
 6469         ho    232    ccc     H7   6469 0.49492100   1.008000   ; qtot -0.033570
 6470         ho    232    ccc     H8   6470 0.51297200   1.008000   ; qtot 0.479402
 6471         h1    232    ccc     H9   6471 0.05653400   1.008000   ; qtot 0.535936
 6472         h1    232    ccc    H10   6472 0.05653400   1.008000   ; qtot 0.592470
 6473         oh    232    ccc     O5   6473 -0.84113600  16.000000   ; qtot -0.248666
 6474         ho    232    ccc    H11   6474 0.51201600   1.008000   ; qtot 0.263350
 6475         os    232    ccc     O6   6475 -0.26013600  16.000000   ; qtot 0.003214
; residue  233 ccc rtp ccc q 0.0
 6476         c3    233    ccc     C1   6476 -0.33178800  12.010000   ; qtot -0.328574
 6477         c3    233    ccc     C2   6477 0.30606500  12.010000   ; qtot -0.022509
 6478         h1    233    ccc     H1   6478 0.11662300   1.008000   ; qtot 0.094114
 6479         h1    233    ccc     H2   6479 0.11526800   1.008000   ; qtot 0.209382
 6480         c3    233    ccc     C3   6480 0.15592700  12.010000   ; qtot 0.365309
 6481         c3    233    ccc     C4   6481 0.28383300  12.010000   ; qtot 0.649142
 6482         c3    233    ccc     C5   6482 0.32403300  12.010000   ; qtot 0.973175
 6483         h1    233    ccc     H3   6483 0.13386900   1.008000   ; qtot 1.107044
 6484         h1    233    ccc     H4   6484 0.10146700   1.008000   ; qtot 1.208511
 6485         h2    233    ccc     H5   6485 0.10960400   1.008000   ; qtot 1.318115
 6486         os    233    ccc     O1   6486 -0.28650000  16.000000   ; qtot 1.031615
 6487         oh    233    ccc     O2   6487 -0.86012500  16.000000   ; qtot 0.171490
 6488         oh    233    ccc     O3   6488 -0.83772800  16.000000   ; qtot -0.666238
 6489         oh    233    ccc     O4   6489 -0.77449700  16.000000   ; qtot -1.440735
 6490         c3    233    ccc     C6   6490 0.37576500  12.010000   ; qtot -1.064970
 6491         ho    233    ccc     H6   6491 0.53656000   1.008000   ; qtot -0.528410
 6492         ho    233    ccc     H7   6492 0.49492100   1.008000   ; qtot -0.033489
 6493         ho    233    ccc     H8   6493 0.51297200   1.008000   ; qtot 0.479483
 6494         h1    233    ccc     H9   6494 0.05653400   1.008000   ; qtot 0.536017
 6495         h1    233    ccc    H10   6495 0.05653400   1.008000   ; qtot 0.592551
 6496         oh    233    ccc     O5   6496 -0.84113600  16.000000   ; qtot -0.248585
 6497         ho    233    ccc    H11   6497 0.51201600   1.008000   ; qtot 0.263431
 6498         os    233    ccc     O6   6498 -0.26013600  16.000000   ; qtot 0.003295
; residue  234 ccc rtp ccc q 0.0
 6499         c3    234    ccc     C1   6499 -0.33178800  12.010000   ; qtot -0.328493
 6500         c3    234    ccc     C2   6500 0.30606500  12.010000   ; qtot -0.022428
 6501         h1    234    ccc     H1   6501 0.11662300   1.008000   ; qtot 0.094195
 6502         h1    234    ccc     H2   6502 0.11526800   1.008000   ; qtot 0.209463
 6503         c3    234    ccc     C3   6503 0.15592700  12.010000   ; qtot 0.365390
 6504         c3    234    ccc     C4   6504 0.28383300  12.010000   ; qtot 0.649223
 6505         c3    234    ccc     C5   6505 0.32403300  12.010000   ; qtot 0.973256
 6506         h1    234    ccc     H3   6506 0.13386900   1.008000   ; qtot 1.107125
 6507         h1    234    ccc     H4   6507 0.10146700   1.008000   ; qtot 1.208592
 6508         h2    234    ccc     H5   6508 0.10960400   1.008000   ; qtot 1.318196
 6509         os    234    ccc     O1   6509 -0.28650000  16.000000   ; qtot 1.031696
 6510         oh    234    ccc     O2   6510 -0.86012500  16.000000   ; qtot 0.171571
 6511         oh    234    ccc     O3   6511 -0.83772800  16.000000   ; qtot -0.666157
 6512         oh    234    ccc     O4   6512 -0.77449700  16.000000   ; qtot -1.440654
 6513         c3    234    ccc     C6   6513 0.37576500  12.010000   ; qtot -1.064889
 6514         ho    234    ccc     H6   6514 0.53656000   1.008000   ; qtot -0.528329
 6515         ho    234    ccc     H7   6515 0.49492100   1.008000   ; qtot -0.033408
 6516         ho    234    ccc     H8   6516 0.51297200   1.008000   ; qtot 0.479564
 6517         h1    234    ccc     H9   6517 0.05653400   1.008000   ; qtot 0.536098
 6518         h1    234    ccc    H10   6518 0.05653400   1.008000   ; qtot 0.592632
 6519         oh    234    ccc     O5   6519 -0.84113600  16.000000   ; qtot -0.248504
 6520         ho    234    ccc    H11   6520 0.51201600   1.008000   ; qtot 0.263512
 6521         os    234    ccc     O6   6521 -0.26013600  16.000000   ; qtot 0.003376
; residue  235 ccc rtp ccc q 0.0
 6522         c3    235    ccc     C1   6522 -0.33178800  12.010000   ; qtot -0.328412
 6523         c3    235    ccc     C2   6523 0.30606500  12.010000   ; qtot -0.022347
 6524         h1    235    ccc     H1   6524 0.11662300   1.008000   ; qtot 0.094276
 6525         h1    235    ccc     H2   6525 0.11526800   1.008000   ; qtot 0.209544
 6526         c3    235    ccc     C3   6526 0.15592700  12.010000   ; qtot 0.365471
 6527         c3    235    ccc     C4   6527 0.28383300  12.010000   ; qtot 0.649304
 6528         c3    235    ccc     C5   6528 0.32403300  12.010000   ; qtot 0.973337
 6529         h1    235    ccc     H3   6529 0.13386900   1.008000   ; qtot 1.107206
 6530         h1    235    ccc     H4   6530 0.10146700   1.008000   ; qtot 1.208673
 6531         h2    235    ccc     H5   6531 0.10960400   1.008000   ; qtot 1.318277
 6532         os    235    ccc     O1   6532 -0.28650000  16.000000   ; qtot 1.031777
 6533         oh    235    ccc     O2   6533 -0.86012500  16.000000   ; qtot 0.171652
 6534         oh    235    ccc     O3   6534 -0.83772800  16.000000   ; qtot -0.666076
 6535         oh    235    ccc     O4   6535 -0.77449700  16.000000   ; qtot -1.440573
 6536         c3    235    ccc     C6   6536 0.37576500  12.010000   ; qtot -1.064808
 6537         ho    235    ccc     H6   6537 0.53656000   1.008000   ; qtot -0.528248
 6538         ho    235    ccc     H7   6538 0.49492100   1.008000   ; qtot -0.033327
 6539         ho    235    ccc     H8   6539 0.51297200   1.008000   ; qtot 0.479645
 6540         h1    235    ccc     H9   6540 0.05653400   1.008000   ; qtot 0.536179
 6541         h1    235    ccc    H10   6541 0.05653400   1.008000   ; qtot 0.592713
 6542         oh    235    ccc     O5   6542 -0.84113600  16.000000   ; qtot -0.248423
 6543         ho    235    ccc    H11   6543 0.51201600   1.008000   ; qtot 0.263593
 6544         os    235    ccc     O6   6544 -0.26013600  16.000000   ; qtot 0.003457
; residue  236 ccc rtp ccc q 0.0
 6545         c3    236    ccc     C1   6545 -0.33178800  12.010000   ; qtot -0.328331
 6546         c3    236    ccc     C2   6546 0.30606500  12.010000   ; qtot -0.022266
 6547         h1    236    ccc     H1   6547 0.11662300   1.008000   ; qtot 0.094357
 6548         h1    236    ccc     H2   6548 0.11526800   1.008000   ; qtot 0.209625
 6549         c3    236    ccc     C3   6549 0.15592700  12.010000   ; qtot 0.365552
 6550         c3    236    ccc     C4   6550 0.28383300  12.010000   ; qtot 0.649385
 6551         c3    236    ccc     C5   6551 0.32403300  12.010000   ; qtot 0.973418
 6552         h1    236    ccc     H3   6552 0.13386900   1.008000   ; qtot 1.107287
 6553         h1    236    ccc     H4   6553 0.10146700   1.008000   ; qtot 1.208754
 6554         h2    236    ccc     H5   6554 0.10960400   1.008000   ; qtot 1.318358
 6555         os    236    ccc     O1   6555 -0.28650000  16.000000   ; qtot 1.031858
 6556         oh    236    ccc     O2   6556 -0.86012500  16.000000   ; qtot 0.171733
 6557         oh    236    ccc     O3   6557 -0.83772800  16.000000   ; qtot -0.665995
 6558         oh    236    ccc     O4   6558 -0.77449700  16.000000   ; qtot -1.440492
 6559         c3    236    ccc     C6   6559 0.37576500  12.010000   ; qtot -1.064727
 6560         ho    236    ccc     H6   6560 0.53656000   1.008000   ; qtot -0.528167
 6561         ho    236    ccc     H7   6561 0.49492100   1.008000   ; qtot -0.033246
 6562         ho    236    ccc     H8   6562 0.51297200   1.008000   ; qtot 0.479726
 6563         h1    236    ccc     H9   6563 0.05653400   1.008000   ; qtot 0.536260
 6564         h1    236    ccc    H10   6564 0.05653400   1.008000   ; qtot 0.592794
 6565         oh    236    ccc     O5   6565 -0.84113600  16.000000   ; qtot -0.248342
 6566         ho    236    ccc    H11   6566 0.51201600   1.008000   ; qtot 0.263674
 6567         os    236    ccc     O6   6567 -0.26013600  16.000000   ; qtot 0.003538
; residue  237 ccc rtp ccc q 0.0
 6568         c3    237    ccc     C1   6568 -0.33178800  12.010000   ; qtot -0.328250
 6569         c3    237    ccc     C2   6569 0.30606500  12.010000   ; qtot -0.022185
 6570         h1    237    ccc     H1   6570 0.11662300   1.008000   ; qtot 0.094438
 6571         h1    237    ccc     H2   6571 0.11526800   1.008000   ; qtot 0.209706
 6572         c3    237    ccc     C3   6572 0.15592700  12.010000   ; qtot 0.365633
 6573         c3    237    ccc     C4   6573 0.28383300  12.010000   ; qtot 0.649466
 6574         c3    237    ccc     C5   6574 0.32403300  12.010000   ; qtot 0.973499
 6575         h1    237    ccc     H3   6575 0.13386900   1.008000   ; qtot 1.107368
 6576         h1    237    ccc     H4   6576 0.10146700   1.008000   ; qtot 1.208835
 6577         h2    237    ccc     H5   6577 0.10960400   1.008000   ; qtot 1.318439
 6578         os    237    ccc     O1   6578 -0.28650000  16.000000   ; qtot 1.031939
 6579         oh    237    ccc     O2   6579 -0.86012500  16.000000   ; qtot 0.171814
 6580         oh    237    ccc     O3   6580 -0.83772800  16.000000   ; qtot -0.665914
 6581         oh    237    ccc     O4   6581 -0.77449700  16.000000   ; qtot -1.440411
 6582         c3    237    ccc     C6   6582 0.37576500  12.010000   ; qtot -1.064646
 6583         ho    237    ccc     H6   6583 0.53656000   1.008000   ; qtot -0.528086
 6584         ho    237    ccc     H7   6584 0.49492100   1.008000   ; qtot -0.033165
 6585         ho    237    ccc     H8   6585 0.51297200   1.008000   ; qtot 0.479807
 6586         h1    237    ccc     H9   6586 0.05653400   1.008000   ; qtot 0.536341
 6587         h1    237    ccc    H10   6587 0.05653400   1.008000   ; qtot 0.592875
 6588         oh    237    ccc     O5   6588 -0.84113600  16.000000   ; qtot -0.248261
 6589         ho    237    ccc    H11   6589 0.51201600   1.008000   ; qtot 0.263755
 6590         os    237    ccc     O6   6590 -0.26013600  16.000000   ; qtot 0.003619
; residue  238 ccc rtp ccc q 0.0
 6591         c3    238    ccc     C1   6591 -0.33178800  12.010000   ; qtot -0.328169
 6592         c3    238    ccc     C2   6592 0.30606500  12.010000   ; qtot -0.022104
 6593         h1    238    ccc     H1   6593 0.11662300   1.008000   ; qtot 0.094519
 6594         h1    238    ccc     H2   6594 0.11526800   1.008000   ; qtot 0.209787
 6595         c3    238    ccc     C3   6595 0.15592700  12.010000   ; qtot 0.365714
 6596         c3    238    ccc     C4   6596 0.28383300  12.010000   ; qtot 0.649547
 6597         c3    238    ccc     C5   6597 0.32403300  12.010000   ; qtot 0.973580
 6598         h1    238    ccc     H3   6598 0.13386900   1.008000   ; qtot 1.107449
 6599         h1    238    ccc     H4   6599 0.10146700   1.008000   ; qtot 1.208916
 6600         h2    238    ccc     H5   6600 0.10960400   1.008000   ; qtot 1.318520
 6601         os    238    ccc     O1   6601 -0.28650000  16.000000   ; qtot 1.032020
 6602         oh    238    ccc     O2   6602 -0.86012500  16.000000   ; qtot 0.171895
 6603         oh    238    ccc     O3   6603 -0.83772800  16.000000   ; qtot -0.665833
 6604         oh    238    ccc     O4   6604 -0.77449700  16.000000   ; qtot -1.440330
 6605         c3    238    ccc     C6   6605 0.37576500  12.010000   ; qtot -1.064565
 6606         ho    238    ccc     H6   6606 0.53656000   1.008000   ; qtot -0.528005
 6607         ho    238    ccc     H7   6607 0.49492100   1.008000   ; qtot -0.033084
 6608         ho    238    ccc     H8   6608 0.51297200   1.008000   ; qtot 0.479888
 6609         h1    238    ccc     H9   6609 0.05653400   1.008000   ; qtot 0.536422
 6610         h1    238    ccc    H10   6610 0.05653400   1.008000   ; qtot 0.592956
 6611         oh    238    ccc     O5   6611 -0.84113600  16.000000   ; qtot -0.248180
 6612         ho    238    ccc    H11   6612 0.51201600   1.008000   ; qtot 0.263836
 6613         os    238    ccc     O6   6613 -0.26013600  16.000000   ; qtot 0.003700
; residue  239 ccc rtp ccc q 0.0
 6614         c3    239    ccc     C1   6614 -0.33178800  12.010000   ; qtot -0.328088
 6615         c3    239    ccc     C2   6615 0.30606500  12.010000   ; qtot -0.022023
 6616         h1    239    ccc     H1   6616 0.11662300   1.008000   ; qtot 0.094600
 6617         h1    239    ccc     H2   6617 0.11526800   1.008000   ; qtot 0.209868
 6618         c3    239    ccc     C3   6618 0.15592700  12.010000   ; qtot 0.365795
 6619         c3    239    ccc     C4   6619 0.28383300  12.010000   ; qtot 0.649628
 6620         c3    239    ccc     C5   6620 0.32403300  12.010000   ; qtot 0.973661
 6621         h1    239    ccc     H3   6621 0.13386900   1.008000   ; qtot 1.107530
 6622         h1    239    ccc     H4   6622 0.10146700   1.008000   ; qtot 1.208997
 6623         h2    239    ccc     H5   6623 0.10960400   1.008000   ; qtot 1.318601
 6624         os    239    ccc     O1   6624 -0.28650000  16.000000   ; qtot 1.032101
 6625         oh    239    ccc     O2   6625 -0.86012500  16.000000   ; qtot 0.171976
 6626         oh    239    ccc     O3   6626 -0.83772800  16.000000   ; qtot -0.665752
 6627         oh    239    ccc     O4   6627 -0.77449700  16.000000   ; qtot -1.440249
 6628         c3    239    ccc     C6   6628 0.37576500  12.010000   ; qtot -1.064484
 6629         ho    239    ccc     H6   6629 0.53656000   1.008000   ; qtot -0.527924
 6630         ho    239    ccc     H7   6630 0.49492100   1.008000   ; qtot -0.033003
 6631         ho    239    ccc     H8   6631 0.51297200   1.008000   ; qtot 0.479969
 6632         h1    239    ccc     H9   6632 0.05653400   1.008000   ; qtot 0.536503
 6633         h1    239    ccc    H10   6633 0.05653400   1.008000   ; qtot 0.593037
 6634         oh    239    ccc     O5   6634 -0.84113600  16.000000   ; qtot -0.248099
 6635         ho    239    ccc    H11   6635 0.51201600   1.008000   ; qtot 0.263917
 6636         os    239    ccc     O6   6636 -0.26013600  16.000000   ; qtot 0.003781
; residue  240 ccc rtp ccc q 0.0
 6637         c3    240    ccc     C1   6637 -0.33178800  12.010000   ; qtot -0.328007
 6638         c3    240    ccc     C2   6638 0.30606500  12.010000   ; qtot -0.021942
 6639         h1    240    ccc     H1   6639 0.11662300   1.008000   ; qtot 0.094681
 6640         h1    240    ccc     H2   6640 0.11526800   1.008000   ; qtot 0.209949
 6641         c3    240    ccc     C3   6641 0.15592700  12.010000   ; qtot 0.365876
 6642         c3    240    ccc     C4   6642 0.28383300  12.010000   ; qtot 0.649709
 6643         c3    240    ccc     C5   6643 0.32403300  12.010000   ; qtot 0.973742
 6644         h1    240    ccc     H3   6644 0.13386900   1.008000   ; qtot 1.107611
 6645         h1    240    ccc     H4   6645 0.10146700   1.008000   ; qtot 1.209078
 6646         h2    240    ccc     H5   6646 0.10960400   1.008000   ; qtot 1.318682
 6647         os    240    ccc     O1   6647 -0.28650000  16.000000   ; qtot 1.032182
 6648         oh    240    ccc     O2   6648 -0.86012500  16.000000   ; qtot 0.172057
 6649         oh    240    ccc     O3   6649 -0.83772800  16.000000   ; qtot -0.665671
 6650         oh    240    ccc     O4   6650 -0.77449700  16.000000   ; qtot -1.440168
 6651         c3    240    ccc     C6   6651 0.37576500  12.010000   ; qtot -1.064403
 6652         ho    240    ccc     H6   6652 0.53656000   1.008000   ; qtot -0.527843
 6653         ho    240    ccc     H7   6653 0.49492100   1.008000   ; qtot -0.032922
 6654         ho    240    ccc     H8   6654 0.51297200   1.008000   ; qtot 0.480050
 6655         h1    240    ccc     H9   6655 0.05653400   1.008000   ; qtot 0.536584
 6656         h1    240    ccc    H10   6656 0.05653400   1.008000   ; qtot 0.593118
 6657         oh    240    ccc     O5   6657 -0.84113600  16.000000   ; qtot -0.248018
 6658         ho    240    ccc    H11   6658 0.51201600   1.008000   ; qtot 0.263998
 6659         os    240    ccc     O6   6659 -0.26013600  16.000000   ; qtot 0.003862
; residue  241 ccc rtp ccc q 0.0
 6660         c3    241    ccc     C1   6660 -0.33178800  12.010000   ; qtot -0.327926
 6661         c3    241    ccc     C2   6661 0.30606500  12.010000   ; qtot -0.021861
 6662         h1    241    ccc     H1   6662 0.11662300   1.008000   ; qtot 0.094762
 6663         h1    241    ccc     H2   6663 0.11526800   1.008000   ; qtot 0.210030
 6664         c3    241    ccc     C3   6664 0.15592700  12.010000   ; qtot 0.365957
 6665         c3    241    ccc     C4   6665 0.28383300  12.010000   ; qtot 0.649790
 6666         c3    241    ccc     C5   6666 0.32403300  12.010000   ; qtot 0.973823
 6667         h1    241    ccc     H3   6667 0.13386900   1.008000   ; qtot 1.107692
 6668         h1    241    ccc     H4   6668 0.10146700   1.008000   ; qtot 1.209159
 6669         h2    241    ccc     H5   6669 0.10960400   1.008000   ; qtot 1.318763
 6670         os    241    ccc     O1   6670 -0.28650000  16.000000   ; qtot 1.032263
 6671         oh    241    ccc     O2   6671 -0.86012500  16.000000   ; qtot 0.172138
 6672         oh    241    ccc     O3   6672 -0.83772800  16.000000   ; qtot -0.665590
 6673         oh    241    ccc     O4   6673 -0.77449700  16.000000   ; qtot -1.440087
 6674         c3    241    ccc     C6   6674 0.37576500  12.010000   ; qtot -1.064322
 6675         ho    241    ccc     H6   6675 0.53656000   1.008000   ; qtot -0.527762
 6676         ho    241    ccc     H7   6676 0.49492100   1.008000   ; qtot -0.032841
 6677         ho    241    ccc     H8   6677 0.51297200   1.008000   ; qtot 0.480131
 6678         h1    241    ccc     H9   6678 0.05653400   1.008000   ; qtot 0.536665
 6679         h1    241    ccc    H10   6679 0.05653400   1.008000   ; qtot 0.593199
 6680         oh    241    ccc     O5   6680 -0.84113600  16.000000   ; qtot -0.247937
 6681         ho    241    ccc    H11   6681 0.51201600   1.008000   ; qtot 0.264079
 6682         os    241    ccc     O6   6682 -0.26013600  16.000000   ; qtot 0.003943
; residue  242 ccc rtp ccc q 0.0
 6683         c3    242    ccc     C1   6683 -0.33178800  12.010000   ; qtot -0.327845
 6684         c3    242    ccc     C2   6684 0.30606500  12.010000   ; qtot -0.021780
 6685         h1    242    ccc     H1   6685 0.11662300   1.008000   ; qtot 0.094843
 6686         h1    242    ccc     H2   6686 0.11526800   1.008000   ; qtot 0.210111
 6687         c3    242    ccc     C3   6687 0.15592700  12.010000   ; qtot 0.366038
 6688         c3    242    ccc     C4   6688 0.28383300  12.010000   ; qtot 0.649871
 6689         c3    242    ccc     C5   6689 0.32403300  12.010000   ; qtot 0.973904
 6690         h1    242    ccc     H3   6690 0.13386900   1.008000   ; qtot 1.107773
 6691         h1    242    ccc     H4   6691 0.10146700   1.008000   ; qtot 1.209240
 6692         h2    242    ccc     H5   6692 0.10960400   1.008000   ; qtot 1.318844
 6693         os    242    ccc     O1   6693 -0.28650000  16.000000   ; qtot 1.032344
 6694         oh    242    ccc     O2   6694 -0.86012500  16.000000   ; qtot 0.172219
 6695         oh    242    ccc     O3   6695 -0.83772800  16.000000   ; qtot -0.665509
 6696         oh    242    ccc     O4   6696 -0.77449700  16.000000   ; qtot -1.440006
 6697         c3    242    ccc     C6   6697 0.37576500  12.010000   ; qtot -1.064241
 6698         ho    242    ccc     H6   6698 0.53656000   1.008000   ; qtot -0.527681
 6699         ho    242    ccc     H7   6699 0.49492100   1.008000   ; qtot -0.032760
 6700         ho    242    ccc     H8   6700 0.51297200   1.008000   ; qtot 0.480212
 6701         h1    242    ccc     H9   6701 0.05653400   1.008000   ; qtot 0.536746
 6702         h1    242    ccc    H10   6702 0.05653400   1.008000   ; qtot 0.593280
 6703         oh    242    ccc     O5   6703 -0.84113600  16.000000   ; qtot -0.247856
 6704         ho    242    ccc    H11   6704 0.51201600   1.008000   ; qtot 0.264160
 6705         os    242    ccc     O6   6705 -0.26013600  16.000000   ; qtot 0.004024
; residue  243 ccc rtp ccc q 0.0
 6706         c3    243    ccc     C1   6706 -0.33178800  12.010000   ; qtot -0.327764
 6707         c3    243    ccc     C2   6707 0.30606500  12.010000   ; qtot -0.021699
 6708         h1    243    ccc     H1   6708 0.11662300   1.008000   ; qtot 0.094924
 6709         h1    243    ccc     H2   6709 0.11526800   1.008000   ; qtot 0.210192
 6710         c3    243    ccc     C3   6710 0.15592700  12.010000   ; qtot 0.366119
 6711         c3    243    ccc     C4   6711 0.28383300  12.010000   ; qtot 0.649952
 6712         c3    243    ccc     C5   6712 0.32403300  12.010000   ; qtot 0.973985
 6713         h1    243    ccc     H3   6713 0.13386900   1.008000   ; qtot 1.107854
 6714         h1    243    ccc     H4   6714 0.10146700   1.008000   ; qtot 1.209321
 6715         h2    243    ccc     H5   6715 0.10960400   1.008000   ; qtot 1.318925
 6716         os    243    ccc     O1   6716 -0.28650000  16.000000   ; qtot 1.032425
 6717         oh    243    ccc     O2   6717 -0.86012500  16.000000   ; qtot 0.172300
 6718         oh    243    ccc     O3   6718 -0.83772800  16.000000   ; qtot -0.665428
 6719         oh    243    ccc     O4   6719 -0.77449700  16.000000   ; qtot -1.439925
 6720         c3    243    ccc     C6   6720 0.37576500  12.010000   ; qtot -1.064160
 6721         ho    243    ccc     H6   6721 0.53656000   1.008000   ; qtot -0.527600
 6722         ho    243    ccc     H7   6722 0.49492100   1.008000   ; qtot -0.032679
 6723         ho    243    ccc     H8   6723 0.51297200   1.008000   ; qtot 0.480293
 6724         h1    243    ccc     H9   6724 0.05653400   1.008000   ; qtot 0.536827
 6725         h1    243    ccc    H10   6725 0.05653400   1.008000   ; qtot 0.593361
 6726         oh    243    ccc     O5   6726 -0.84113600  16.000000   ; qtot -0.247775
 6727         ho    243    ccc    H11   6727 0.51201600   1.008000   ; qtot 0.264241
 6728         os    243    ccc     O6   6728 -0.26013600  16.000000   ; qtot 0.004105
; residue  244 ccc rtp ccc q 0.0
 6729         c3    244    ccc     C1   6729 -0.33178800  12.010000   ; qtot -0.327683
 6730         c3    244    ccc     C2   6730 0.30606500  12.010000   ; qtot -0.021618
 6731         h1    244    ccc     H1   6731 0.11662300   1.008000   ; qtot 0.095005
 6732         h1    244    ccc     H2   6732 0.11526800   1.008000   ; qtot 0.210273
 6733         c3    244    ccc     C3   6733 0.15592700  12.010000   ; qtot 0.366200
 6734         c3    244    ccc     C4   6734 0.28383300  12.010000   ; qtot 0.650033
 6735         c3    244    ccc     C5   6735 0.32403300  12.010000   ; qtot 0.974066
 6736         h1    244    ccc     H3   6736 0.13386900   1.008000   ; qtot 1.107935
 6737         h1    244    ccc     H4   6737 0.10146700   1.008000   ; qtot 1.209402
 6738         h2    244    ccc     H5   6738 0.10960400   1.008000   ; qtot 1.319006
 6739         os    244    ccc     O1   6739 -0.28650000  16.000000   ; qtot 1.032506
 6740         oh    244    ccc     O2   6740 -0.86012500  16.000000   ; qtot 0.172381
 6741         oh    244    ccc     O3   6741 -0.83772800  16.000000   ; qtot -0.665347
 6742         oh    244    ccc     O4   6742 -0.77449700  16.000000   ; qtot -1.439844
 6743         c3    244    ccc     C6   6743 0.37576500  12.010000   ; qtot -1.064079
 6744         ho    244    ccc     H6   6744 0.53656000   1.008000   ; qtot -0.527519
 6745         ho    244    ccc     H7   6745 0.49492100   1.008000   ; qtot -0.032598
 6746         ho    244    ccc     H8   6746 0.51297200   1.008000   ; qtot 0.480374
 6747         h1    244    ccc     H9   6747 0.05653400   1.008000   ; qtot 0.536908
 6748         h1    244    ccc    H10   6748 0.05653400   1.008000   ; qtot 0.593442
 6749         oh    244    ccc     O5   6749 -0.84113600  16.000000   ; qtot -0.247694
 6750         ho    244    ccc    H11   6750 0.51201600   1.008000   ; qtot 0.264322
 6751         os    244    ccc     O6   6751 -0.26013600  16.000000   ; qtot 0.004186
; residue  245 ccc rtp ccc q 0.0
 6752         c3    245    ccc     C1   6752 -0.33178800  12.010000   ; qtot -0.327602
 6753         c3    245    ccc     C2   6753 0.30606500  12.010000   ; qtot -0.021537
 6754         h1    245    ccc     H1   6754 0.11662300   1.008000   ; qtot 0.095086
 6755         h1    245    ccc     H2   6755 0.11526800   1.008000   ; qtot 0.210354
 6756         c3    245    ccc     C3   6756 0.15592700  12.010000   ; qtot 0.366281
 6757         c3    245    ccc     C4   6757 0.28383300  12.010000   ; qtot 0.650114
 6758         c3    245    ccc     C5   6758 0.32403300  12.010000   ; qtot 0.974147
 6759         h1    245    ccc     H3   6759 0.13386900   1.008000   ; qtot 1.108016
 6760         h1    245    ccc     H4   6760 0.10146700   1.008000   ; qtot 1.209483
 6761         h2    245    ccc     H5   6761 0.10960400   1.008000   ; qtot 1.319087
 6762         os    245    ccc     O1   6762 -0.28650000  16.000000   ; qtot 1.032587
 6763         oh    245    ccc     O2   6763 -0.86012500  16.000000   ; qtot 0.172462
 6764         oh    245    ccc     O3   6764 -0.83772800  16.000000   ; qtot -0.665266
 6765         oh    245    ccc     O4   6765 -0.77449700  16.000000   ; qtot -1.439763
 6766         c3    245    ccc     C6   6766 0.37576500  12.010000   ; qtot -1.063998
 6767         ho    245    ccc     H6   6767 0.53656000   1.008000   ; qtot -0.527438
 6768         ho    245    ccc     H7   6768 0.49492100   1.008000   ; qtot -0.032517
 6769         ho    245    ccc     H8   6769 0.51297200   1.008000   ; qtot 0.480455
 6770         h1    245    ccc     H9   6770 0.05653400   1.008000   ; qtot 0.536989
 6771         h1    245    ccc    H10   6771 0.05653400   1.008000   ; qtot 0.593523
 6772         oh    245    ccc     O5   6772 -0.84113600  16.000000   ; qtot -0.247613
 6773         ho    245    ccc    H11   6773 0.51201600   1.008000   ; qtot 0.264403
 6774         os    245    ccc     O6   6774 -0.26013600  16.000000   ; qtot 0.004267
; residue  246 ccc rtp ccc q 0.0
 6775         c3    246    ccc     C1   6775 -0.33178800  12.010000   ; qtot -0.327521
 6776         c3    246    ccc     C2   6776 0.30606500  12.010000   ; qtot -0.021456
 6777         h1    246    ccc     H1   6777 0.11662300   1.008000   ; qtot 0.095167
 6778         h1    246    ccc     H2   6778 0.11526800   1.008000   ; qtot 0.210435
 6779         c3    246    ccc     C3   6779 0.15592700  12.010000   ; qtot 0.366362
 6780         c3    246    ccc     C4   6780 0.28383300  12.010000   ; qtot 0.650195
 6781         c3    246    ccc     C5   6781 0.32403300  12.010000   ; qtot 0.974228
 6782         h1    246    ccc     H3   6782 0.13386900   1.008000   ; qtot 1.108097
 6783         h1    246    ccc     H4   6783 0.10146700   1.008000   ; qtot 1.209564
 6784         h2    246    ccc     H5   6784 0.10960400   1.008000   ; qtot 1.319168
 6785         os    246    ccc     O1   6785 -0.28650000  16.000000   ; qtot 1.032668
 6786         oh    246    ccc     O2   6786 -0.86012500  16.000000   ; qtot 0.172543
 6787         oh    246    ccc     O3   6787 -0.83772800  16.000000   ; qtot -0.665185
 6788         oh    246    ccc     O4   6788 -0.77449700  16.000000   ; qtot -1.439682
 6789         c3    246    ccc     C6   6789 0.37576500  12.010000   ; qtot -1.063917
 6790         ho    246    ccc     H6   6790 0.53656000   1.008000   ; qtot -0.527357
 6791         ho    246    ccc     H7   6791 0.49492100   1.008000   ; qtot -0.032436
 6792         ho    246    ccc     H8   6792 0.51297200   1.008000   ; qtot 0.480536
 6793         h1    246    ccc     H9   6793 0.05653400   1.008000   ; qtot 0.537070
 6794         h1    246    ccc    H10   6794 0.05653400   1.008000   ; qtot 0.593604
 6795         oh    246    ccc     O5   6795 -0.84113600  16.000000   ; qtot -0.247532
 6796         ho    246    ccc    H11   6796 0.51201600   1.008000   ; qtot 0.264484
 6797         os    246    ccc     O6   6797 -0.26013600  16.000000   ; qtot 0.004348
; residue  247 ccc rtp ccc q 0.0
 6798         c3    247    ccc     C1   6798 -0.33178800  12.010000   ; qtot -0.327440
 6799         c3    247    ccc     C2   6799 0.30606500  12.010000   ; qtot -0.021375
 6800         h1    247    ccc     H1   6800 0.11662300   1.008000   ; qtot 0.095248
 6801         h1    247    ccc     H2   6801 0.11526800   1.008000   ; qtot 0.210516
 6802         c3    247    ccc     C3   6802 0.15592700  12.010000   ; qtot 0.366443
 6803         c3    247    ccc     C4   6803 0.28383300  12.010000   ; qtot 0.650276
 6804         c3    247    ccc     C5   6804 0.32403300  12.010000   ; qtot 0.974309
 6805         h1    247    ccc     H3   6805 0.13386900   1.008000   ; qtot 1.108178
 6806         h1    247    ccc     H4   6806 0.10146700   1.008000   ; qtot 1.209645
 6807         h2    247    ccc     H5   6807 0.10960400   1.008000   ; qtot 1.319249
 6808         os    247    ccc     O1   6808 -0.28650000  16.000000   ; qtot 1.032749
 6809         oh    247    ccc     O2   6809 -0.86012500  16.000000   ; qtot 0.172624
 6810         oh    247    ccc     O3   6810 -0.83772800  16.000000   ; qtot -0.665104
 6811         oh    247    ccc     O4   6811 -0.77449700  16.000000   ; qtot -1.439601
 6812         c3    247    ccc     C6   6812 0.37576500  12.010000   ; qtot -1.063836
 6813         ho    247    ccc     H6   6813 0.53656000   1.008000   ; qtot -0.527276
 6814         ho    247    ccc     H7   6814 0.49492100   1.008000   ; qtot -0.032355
 6815         ho    247    ccc     H8   6815 0.51297200   1.008000   ; qtot 0.480617
 6816         h1    247    ccc     H9   6816 0.05653400   1.008000   ; qtot 0.537151
 6817         h1    247    ccc    H10   6817 0.05653400   1.008000   ; qtot 0.593685
 6818         oh    247    ccc     O5   6818 -0.84113600  16.000000   ; qtot -0.247451
 6819         ho    247    ccc    H11   6819 0.51201600   1.008000   ; qtot 0.264565
 6820         os    247    ccc     O6   6820 -0.26013600  16.000000   ; qtot 0.004429
; residue  248 ccc rtp ccc q 0.0
 6821         c3    248    ccc     C1   6821 -0.33178800  12.010000   ; qtot -0.327359
 6822         c3    248    ccc     C2   6822 0.30606500  12.010000   ; qtot -0.021294
 6823         h1    248    ccc     H1   6823 0.11662300   1.008000   ; qtot 0.095329
 6824         h1    248    ccc     H2   6824 0.11526800   1.008000   ; qtot 0.210597
 6825         c3    248    ccc     C3   6825 0.15592700  12.010000   ; qtot 0.366524
 6826         c3    248    ccc     C4   6826 0.28383300  12.010000   ; qtot 0.650357
 6827         c3    248    ccc     C5   6827 0.32403300  12.010000   ; qtot 0.974390
 6828         h1    248    ccc     H3   6828 0.13386900   1.008000   ; qtot 1.108259
 6829         h1    248    ccc     H4   6829 0.10146700   1.008000   ; qtot 1.209726
 6830         h2    248    ccc     H5   6830 0.10960400   1.008000   ; qtot 1.319330
 6831         os    248    ccc     O1   6831 -0.28650000  16.000000   ; qtot 1.032830
 6832         oh    248    ccc     O2   6832 -0.86012500  16.000000   ; qtot 0.172705
 6833         oh    248    ccc     O3   6833 -0.83772800  16.000000   ; qtot -0.665023
 6834         oh    248    ccc     O4   6834 -0.77449700  16.000000   ; qtot -1.439520
 6835         c3    248    ccc     C6   6835 0.37576500  12.010000   ; qtot -1.063755
 6836         ho    248    ccc     H6   6836 0.53656000   1.008000   ; qtot -0.527195
 6837         ho    248    ccc     H7   6837 0.49492100   1.008000   ; qtot -0.032274
 6838         ho    248    ccc     H8   6838 0.51297200   1.008000   ; qtot 0.480698
 6839         h1    248    ccc     H9   6839 0.05653400   1.008000   ; qtot 0.537232
 6840         h1    248    ccc    H10   6840 0.05653400   1.008000   ; qtot 0.593766
 6841         oh    248    ccc     O5   6841 -0.84113600  16.000000   ; qtot -0.247370
 6842         ho    248    ccc    H11   6842 0.51201600   1.008000   ; qtot 0.264646
 6843         os    248    ccc     O6   6843 -0.26013600  16.000000   ; qtot 0.004510
; residue  249 ccc rtp ccc q 0.0
 6844         c3    249    ccc     C1   6844 -0.33178800  12.010000   ; qtot -0.327278
 6845         c3    249    ccc     C2   6845 0.30606500  12.010000   ; qtot -0.021213
 6846         h1    249    ccc     H1   6846 0.11662300   1.008000   ; qtot 0.095410
 6847         h1    249    ccc     H2   6847 0.11526800   1.008000   ; qtot 0.210678
 6848         c3    249    ccc     C3   6848 0.15592700  12.010000   ; qtot 0.366605
 6849         c3    249    ccc     C4   6849 0.28383300  12.010000   ; qtot 0.650438
 6850         c3    249    ccc     C5   6850 0.32403300  12.010000   ; qtot 0.974471
 6851         h1    249    ccc     H3   6851 0.13386900   1.008000   ; qtot 1.108340
 6852         h1    249    ccc     H4   6852 0.10146700   1.008000   ; qtot 1.209807
 6853         h2    249    ccc     H5   6853 0.10960400   1.008000   ; qtot 1.319411
 6854         os    249    ccc     O1   6854 -0.28650000  16.000000   ; qtot 1.032911
 6855         oh    249    ccc     O2   6855 -0.86012500  16.000000   ; qtot 0.172786
 6856         oh    249    ccc     O3   6856 -0.83772800  16.000000   ; qtot -0.664942
 6857         oh    249    ccc     O4   6857 -0.77449700  16.000000   ; qtot -1.439439
 6858         c3    249    ccc     C6   6858 0.37576500  12.010000   ; qtot -1.063674
 6859         ho    249    ccc     H6   6859 0.53656000   1.008000   ; qtot -0.527114
 6860         ho    249    ccc     H7   6860 0.49492100   1.008000   ; qtot -0.032193
 6861         ho    249    ccc     H8   6861 0.51297200   1.008000   ; qtot 0.480779
 6862         h1    249    ccc     H9   6862 0.05653400   1.008000   ; qtot 0.537313
 6863         h1    249    ccc    H10   6863 0.05653400   1.008000   ; qtot 0.593847
 6864         oh    249    ccc     O5   6864 -0.84113600  16.000000   ; qtot -0.247289
 6865         ho    249    ccc    H11   6865 0.51201600   1.008000   ; qtot 0.264727
 6866         os    249    ccc     O6   6866 -0.26013600  16.000000   ; qtot 0.004591
; residue  250 ccc rtp ccc q 0.0
 6867         c3    250    ccc     C1   6867 -0.33178800  12.010000   ; qtot -0.327197
 6868         c3    250    ccc     C2   6868 0.30606500  12.010000   ; qtot -0.021132
 6869         h1    250    ccc     H1   6869 0.11662300   1.008000   ; qtot 0.095491
 6870         h1    250    ccc     H2   6870 0.11526800   1.008000   ; qtot 0.210759
 6871         c3    250    ccc     C3   6871 0.15592700  12.010000   ; qtot 0.366686
 6872         c3    250    ccc     C4   6872 0.28383300  12.010000   ; qtot 0.650519
 6873         c3    250    ccc     C5   6873 0.32403300  12.010000   ; qtot 0.974552
 6874         h1    250    ccc     H3   6874 0.13386900   1.008000   ; qtot 1.108421
 6875         h1    250    ccc     H4   6875 0.10146700   1.008000   ; qtot 1.209888
 6876         h2    250    ccc     H5   6876 0.10960400   1.008000   ; qtot 1.319492
 6877         os    250    ccc     O1   6877 -0.28650000  16.000000   ; qtot 1.032992
 6878         oh    250    ccc     O2   6878 -0.86012500  16.000000   ; qtot 0.172867
 6879         oh    250    ccc     O3   6879 -0.83772800  16.000000   ; qtot -0.664861
 6880         oh    250    ccc     O4   6880 -0.77449700  16.000000   ; qtot -1.439358
 6881         c3    250    ccc     C6   6881 0.37576500  12.010000   ; qtot -1.063593
 6882         ho    250    ccc     H6   6882 0.53656000   1.008000   ; qtot -0.527033
 6883         ho    250    ccc     H7   6883 0.49492100   1.008000   ; qtot -0.032112
 6884         ho    250    ccc     H8   6884 0.51297200   1.008000   ; qtot 0.480860
 6885         h1    250    ccc     H9   6885 0.05653400   1.008000   ; qtot 0.537394
 6886         h1    250    ccc    H10   6886 0.05653400   1.008000   ; qtot 0.593928
 6887         oh    250    ccc     O5   6887 -0.84113600  16.000000   ; qtot -0.247208
 6888         ho    250    ccc    H11   6888 0.51201600   1.008000   ; qtot 0.264808
 6889         os    250    ccc     O6   6889 -0.26013600  16.000000   ; qtot 0.004672
; residue  251 ccc rtp ccc q 0.0
 6890         c3    251    ccc     C1   6890 -0.33178800  12.010000   ; qtot -0.327116
 6891         c3    251    ccc     C2   6891 0.30606500  12.010000   ; qtot -0.021051
 6892         h1    251    ccc     H1   6892 0.11662300   1.008000   ; qtot 0.095572
 6893         h1    251    ccc     H2   6893 0.11526800   1.008000   ; qtot 0.210840
 6894         c3    251    ccc     C3   6894 0.15592700  12.010000   ; qtot 0.366767
 6895         c3    251    ccc     C4   6895 0.28383300  12.010000   ; qtot 0.650600
 6896         c3    251    ccc     C5   6896 0.32403300  12.010000   ; qtot 0.974633
 6897         h1    251    ccc     H3   6897 0.13386900   1.008000   ; qtot 1.108502
 6898         h1    251    ccc     H4   6898 0.10146700   1.008000   ; qtot 1.209969
 6899         h2    251    ccc     H5   6899 0.10960400   1.008000   ; qtot 1.319573
 6900         os    251    ccc     O1   6900 -0.28650000  16.000000   ; qtot 1.033073
 6901         oh    251    ccc     O2   6901 -0.86012500  16.000000   ; qtot 0.172948
 6902         oh    251    ccc     O3   6902 -0.83772800  16.000000   ; qtot -0.664780
 6903         oh    251    ccc     O4   6903 -0.77449700  16.000000   ; qtot -1.439277
 6904         c3    251    ccc     C6   6904 0.37576500  12.010000   ; qtot -1.063512
 6905         ho    251    ccc     H6   6905 0.53656000   1.008000   ; qtot -0.526952
 6906         ho    251    ccc     H7   6906 0.49492100   1.008000   ; qtot -0.032031
 6907         ho    251    ccc     H8   6907 0.51297200   1.008000   ; qtot 0.480941
 6908         h1    251    ccc     H9   6908 0.05653400   1.008000   ; qtot 0.537475
 6909         h1    251    ccc    H10   6909 0.05653400   1.008000   ; qtot 0.594009
 6910         oh    251    ccc     O5   6910 -0.84113600  16.000000   ; qtot -0.247127
 6911         ho    251    ccc    H11   6911 0.51201600   1.008000   ; qtot 0.264889
 6912         os    251    ccc     O6   6912 -0.26013600  16.000000   ; qtot 0.004753
; residue  252 ccc rtp ccc q 0.0
 6913         c3    252    ccc     C1   6913 -0.33178800  12.010000   ; qtot -0.327035
 6914         c3    252    ccc     C2   6914 0.30606500  12.010000   ; qtot -0.020970
 6915         h1    252    ccc     H1   6915 0.11662300   1.008000   ; qtot 0.095653
 6916         h1    252    ccc     H2   6916 0.11526800   1.008000   ; qtot 0.210921
 6917         c3    252    ccc     C3   6917 0.15592700  12.010000   ; qtot 0.366848
 6918         c3    252    ccc     C4   6918 0.28383300  12.010000   ; qtot 0.650681
 6919         c3    252    ccc     C5   6919 0.32403300  12.010000   ; qtot 0.974714
 6920         h1    252    ccc     H3   6920 0.13386900   1.008000   ; qtot 1.108583
 6921         h1    252    ccc     H4   6921 0.10146700   1.008000   ; qtot 1.210050
 6922         h2    252    ccc     H5   6922 0.10960400   1.008000   ; qtot 1.319654
 6923         os    252    ccc     O1   6923 -0.28650000  16.000000   ; qtot 1.033154
 6924         oh    252    ccc     O2   6924 -0.86012500  16.000000   ; qtot 0.173029
 6925         oh    252    ccc     O3   6925 -0.83772800  16.000000   ; qtot -0.664699
 6926         oh    252    ccc     O4   6926 -0.77449700  16.000000   ; qtot -1.439196
 6927         c3    252    ccc     C6   6927 0.37576500  12.010000   ; qtot -1.063431
 6928         ho    252    ccc     H6   6928 0.53656000   1.008000   ; qtot -0.526871
 6929         ho    252    ccc     H7   6929 0.49492100   1.008000   ; qtot -0.031950
 6930         ho    252    ccc     H8   6930 0.51297200   1.008000   ; qtot 0.481022
 6931         h1    252    ccc     H9   6931 0.05653400   1.008000   ; qtot 0.537556
 6932         h1    252    ccc    H10   6932 0.05653400   1.008000   ; qtot 0.594090
 6933         oh    252    ccc     O5   6933 -0.84113600  16.000000   ; qtot -0.247046
 6934         ho    252    ccc    H11   6934 0.51201600   1.008000   ; qtot 0.264970
 6935         os    252    ccc     O6   6935 -0.26013600  16.000000   ; qtot 0.004834
; residue  253 ccc rtp ccc q 0.0
 6936         c3    253    ccc     C1   6936 -0.33178800  12.010000   ; qtot -0.326954
 6937         c3    253    ccc     C2   6937 0.30606500  12.010000   ; qtot -0.020889
 6938         h1    253    ccc     H1   6938 0.11662300   1.008000   ; qtot 0.095734
 6939         h1    253    ccc     H2   6939 0.11526800   1.008000   ; qtot 0.211002
 6940         c3    253    ccc     C3   6940 0.15592700  12.010000   ; qtot 0.366929
 6941         c3    253    ccc     C4   6941 0.28383300  12.010000   ; qtot 0.650762
 6942         c3    253    ccc     C5   6942 0.32403300  12.010000   ; qtot 0.974795
 6943         h1    253    ccc     H3   6943 0.13386900   1.008000   ; qtot 1.108664
 6944         h1    253    ccc     H4   6944 0.10146700   1.008000   ; qtot 1.210131
 6945         h2    253    ccc     H5   6945 0.10960400   1.008000   ; qtot 1.319735
 6946         os    253    ccc     O1   6946 -0.28650000  16.000000   ; qtot 1.033235
 6947         oh    253    ccc     O2   6947 -0.86012500  16.000000   ; qtot 0.173110
 6948         oh    253    ccc     O3   6948 -0.83772800  16.000000   ; qtot -0.664618
 6949         oh    253    ccc     O4   6949 -0.77449700  16.000000   ; qtot -1.439115
 6950         c3    253    ccc     C6   6950 0.37576500  12.010000   ; qtot -1.063350
 6951         ho    253    ccc     H6   6951 0.53656000   1.008000   ; qtot -0.526790
 6952         ho    253    ccc     H7   6952 0.49492100   1.008000   ; qtot -0.031869
 6953         ho    253    ccc     H8   6953 0.51297200   1.008000   ; qtot 0.481103
 6954         h1    253    ccc     H9   6954 0.05653400   1.008000   ; qtot 0.537637
 6955         h1    253    ccc    H10   6955 0.05653400   1.008000   ; qtot 0.594171
 6956         oh    253    ccc     O5   6956 -0.84113600  16.000000   ; qtot -0.246965
 6957         ho    253    ccc    H11   6957 0.51201600   1.008000   ; qtot 0.265051
 6958         os    253    ccc     O6   6958 -0.26013600  16.000000   ; qtot 0.004915
; residue  254 ccc rtp ccc q 0.0
 6959         c3    254    ccc     C1   6959 -0.33178800  12.010000   ; qtot -0.326873
 6960         c3    254    ccc     C2   6960 0.30606500  12.010000   ; qtot -0.020808
 6961         h1    254    ccc     H1   6961 0.11662300   1.008000   ; qtot 0.095815
 6962         h1    254    ccc     H2   6962 0.11526800   1.008000   ; qtot 0.211083
 6963         c3    254    ccc     C3   6963 0.15592700  12.010000   ; qtot 0.367010
 6964         c3    254    ccc     C4   6964 0.28383300  12.010000   ; qtot 0.650843
 6965         c3    254    ccc     C5   6965 0.32403300  12.010000   ; qtot 0.974876
 6966         h1    254    ccc     H3   6966 0.13386900   1.008000   ; qtot 1.108745
 6967         h1    254    ccc     H4   6967 0.10146700   1.008000   ; qtot 1.210212
 6968         h2    254    ccc     H5   6968 0.10960400   1.008000   ; qtot 1.319816
 6969         os    254    ccc     O1   6969 -0.28650000  16.000000   ; qtot 1.033316
 6970         oh    254    ccc     O2   6970 -0.86012500  16.000000   ; qtot 0.173191
 6971         oh    254    ccc     O3   6971 -0.83772800  16.000000   ; qtot -0.664537
 6972         oh    254    ccc     O4   6972 -0.77449700  16.000000   ; qtot -1.439034
 6973         c3    254    ccc     C6   6973 0.37576500  12.010000   ; qtot -1.063269
 6974         ho    254    ccc     H6   6974 0.53656000   1.008000   ; qtot -0.526709
 6975         ho    254    ccc     H7   6975 0.49492100   1.008000   ; qtot -0.031788
 6976         ho    254    ccc     H8   6976 0.51297200   1.008000   ; qtot 0.481184
 6977         h1    254    ccc     H9   6977 0.05653400   1.008000   ; qtot 0.537718
 6978         h1    254    ccc    H10   6978 0.05653400   1.008000   ; qtot 0.594252
 6979         oh    254    ccc     O5   6979 -0.84113600  16.000000   ; qtot -0.246884
 6980         ho    254    ccc    H11   6980 0.51201600   1.008000   ; qtot 0.265132
 6981         os    254    ccc     O6   6981 -0.26013600  16.000000   ; qtot 0.004996
; residue  255 ccc rtp ccc q 0.0
 6982         c3    255    ccc     C1   6982 -0.33178800  12.010000   ; qtot -0.326792
 6983         c3    255    ccc     C2   6983 0.30606500  12.010000   ; qtot -0.020727
 6984         h1    255    ccc     H1   6984 0.11662300   1.008000   ; qtot 0.095896
 6985         h1    255    ccc     H2   6985 0.11526800   1.008000   ; qtot 0.211164
 6986         c3    255    ccc     C3   6986 0.15592700  12.010000   ; qtot 0.367091
 6987         c3    255    ccc     C4   6987 0.28383300  12.010000   ; qtot 0.650924
 6988         c3    255    ccc     C5   6988 0.32403300  12.010000   ; qtot 0.974957
 6989         h1    255    ccc     H3   6989 0.13386900   1.008000   ; qtot 1.108826
 6990         h1    255    ccc     H4   6990 0.10146700   1.008000   ; qtot 1.210293
 6991         h2    255    ccc     H5   6991 0.10960400   1.008000   ; qtot 1.319897
 6992         os    255    ccc     O1   6992 -0.28650000  16.000000   ; qtot 1.033397
 6993         oh    255    ccc     O2   6993 -0.86012500  16.000000   ; qtot 0.173272
 6994         oh    255    ccc     O3   6994 -0.83772800  16.000000   ; qtot -0.664456
 6995         oh    255    ccc     O4   6995 -0.77449700  16.000000   ; qtot -1.438953
 6996         c3    255    ccc     C6   6996 0.37576500  12.010000   ; qtot -1.063188
 6997         ho    255    ccc     H6   6997 0.53656000   1.008000   ; qtot -0.526628
 6998         ho    255    ccc     H7   6998 0.49492100   1.008000   ; qtot -0.031707
 6999         ho    255    ccc     H8   6999 0.51297200   1.008000   ; qtot 0.481265
 7000         h1    255    ccc     H9   7000 0.05653400   1.008000   ; qtot 0.537799
 7001         h1    255    ccc    H10   7001 0.05653400   1.008000   ; qtot 0.594333
 7002         oh    255    ccc     O5   7002 -0.84113600  16.000000   ; qtot -0.246803
 7003         ho    255    ccc    H11   7003 0.51201600   1.008000   ; qtot 0.265213
 7004         os    255    ccc     O6   7004 -0.26013600  16.000000   ; qtot 0.005077
; residue  256 ccc rtp ccc q 0.0
 7005         c3    256    ccc     C1   7005 -0.33178800  12.010000   ; qtot -0.326711
 7006         c3    256    ccc     C2   7006 0.30606500  12.010000   ; qtot -0.020646
 7007         h1    256    ccc     H1   7007 0.11662300   1.008000   ; qtot 0.095977
 7008         h1    256    ccc     H2   7008 0.11526800   1.008000   ; qtot 0.211245
 7009         c3    256    ccc     C3   7009 0.15592700  12.010000   ; qtot 0.367172
 7010         c3    256    ccc     C4   7010 0.28383300  12.010000   ; qtot 0.651005
 7011         c3    256    ccc     C5   7011 0.32403300  12.010000   ; qtot 0.975038
 7012         h1    256    ccc     H3   7012 0.13386900   1.008000   ; qtot 1.108907
 7013         h1    256    ccc     H4   7013 0.10146700   1.008000   ; qtot 1.210374
 7014         h2    256    ccc     H5   7014 0.10960400   1.008000   ; qtot 1.319978
 7015         os    256    ccc     O1   7015 -0.28650000  16.000000   ; qtot 1.033478
 7016         oh    256    ccc     O2   7016 -0.86012500  16.000000   ; qtot 0.173353
 7017         oh    256    ccc     O3   7017 -0.83772800  16.000000   ; qtot -0.664375
 7018         oh    256    ccc     O4   7018 -0.77449700  16.000000   ; qtot -1.438872
 7019         c3    256    ccc     C6   7019 0.37576500  12.010000   ; qtot -1.063107
 7020         ho    256    ccc     H6   7020 0.53656000   1.008000   ; qtot -0.526547
 7021         ho    256    ccc     H7   7021 0.49492100   1.008000   ; qtot -0.031626
 7022         ho    256    ccc     H8   7022 0.51297200   1.008000   ; qtot 0.481346
 7023         h1    256    ccc     H9   7023 0.05653400   1.008000   ; qtot 0.537880
 7024         h1    256    ccc    H10   7024 0.05653400   1.008000   ; qtot 0.594414
 7025         oh    256    ccc     O5   7025 -0.84113600  16.000000   ; qtot -0.246722
 7026         ho    256    ccc    H11   7026 0.51201600   1.008000   ; qtot 0.265294
 7027         os    256    ccc     O6   7027 -0.26013600  16.000000   ; qtot 0.005158
; residue  257 ccc rtp ccc q 0.0
 7028         c3    257    ccc     C1   7028 -0.33178800  12.010000   ; qtot -0.326630
 7029         c3    257    ccc     C2   7029 0.30606500  12.010000   ; qtot -0.020565
 7030         h1    257    ccc     H1   7030 0.11662300   1.008000   ; qtot 0.096058
 7031         h1    257    ccc     H2   7031 0.11526800   1.008000   ; qtot 0.211326
 7032         c3    257    ccc     C3   7032 0.15592700  12.010000   ; qtot 0.367253
 7033         c3    257    ccc     C4   7033 0.28383300  12.010000   ; qtot 0.651086
 7034         c3    257    ccc     C5   7034 0.32403300  12.010000   ; qtot 0.975119
 7035         h1    257    ccc     H3   7035 0.13386900   1.008000   ; qtot 1.108988
 7036         h1    257    ccc     H4   7036 0.10146700   1.008000   ; qtot 1.210455
 7037         h2    257    ccc     H5   7037 0.10960400   1.008000   ; qtot 1.320059
 7038         os    257    ccc     O1   7038 -0.28650000  16.000000   ; qtot 1.033559
 7039         oh    257    ccc     O2   7039 -0.86012500  16.000000   ; qtot 0.173434
 7040         oh    257    ccc     O3   7040 -0.83772800  16.000000   ; qtot -0.664294
 7041         oh    257    ccc     O4   7041 -0.77449700  16.000000   ; qtot -1.438791
 7042         c3    257    ccc     C6   7042 0.37576500  12.010000   ; qtot -1.063026
 7043         ho    257    ccc     H6   7043 0.53656000   1.008000   ; qtot -0.526466
 7044         ho    257    ccc     H7   7044 0.49492100   1.008000   ; qtot -0.031545
 7045         ho    257    ccc     H8   7045 0.51297200   1.008000   ; qtot 0.481427
 7046         h1    257    ccc     H9   7046 0.05653400   1.008000   ; qtot 0.537961
 7047         h1    257    ccc    H10   7047 0.05653400   1.008000   ; qtot 0.594495
 7048         oh    257    ccc     O5   7048 -0.84113600  16.000000   ; qtot -0.246641
 7049         ho    257    ccc    H11   7049 0.51201600   1.008000   ; qtot 0.265375
 7050         os    257    ccc     O6   7050 -0.26013600  16.000000   ; qtot 0.005239
; residue  258 ccc rtp ccc q 0.0
 7051         c3    258    ccc     C1   7051 -0.33178800  12.010000   ; qtot -0.326549
 7052         c3    258    ccc     C2   7052 0.30606500  12.010000   ; qtot -0.020484
 7053         h1    258    ccc     H1   7053 0.11662300   1.008000   ; qtot 0.096139
 7054         h1    258    ccc     H2   7054 0.11526800   1.008000   ; qtot 0.211407
 7055         c3    258    ccc     C3   7055 0.15592700  12.010000   ; qtot 0.367334
 7056         c3    258    ccc     C4   7056 0.28383300  12.010000   ; qtot 0.651167
 7057         c3    258    ccc     C5   7057 0.32403300  12.010000   ; qtot 0.975200
 7058         h1    258    ccc     H3   7058 0.13386900   1.008000   ; qtot 1.109069
 7059         h1    258    ccc     H4   7059 0.10146700   1.008000   ; qtot 1.210536
 7060         h2    258    ccc     H5   7060 0.10960400   1.008000   ; qtot 1.320140
 7061         os    258    ccc     O1   7061 -0.28650000  16.000000   ; qtot 1.033640
 7062         oh    258    ccc     O2   7062 -0.86012500  16.000000   ; qtot 0.173515
 7063         oh    258    ccc     O3   7063 -0.83772800  16.000000   ; qtot -0.664213
 7064         oh    258    ccc     O4   7064 -0.77449700  16.000000   ; qtot -1.438710
 7065         c3    258    ccc     C6   7065 0.37576500  12.010000   ; qtot -1.062945
 7066         ho    258    ccc     H6   7066 0.53656000   1.008000   ; qtot -0.526385
 7067         ho    258    ccc     H7   7067 0.49492100   1.008000   ; qtot -0.031464
 7068         ho    258    ccc     H8   7068 0.51297200   1.008000   ; qtot 0.481508
 7069         h1    258    ccc     H9   7069 0.05653400   1.008000   ; qtot 0.538042
 7070         h1    258    ccc    H10   7070 0.05653400   1.008000   ; qtot 0.594576
 7071         oh    258    ccc     O5   7071 -0.84113600  16.000000   ; qtot -0.246560
 7072         ho    258    ccc    H11   7072 0.51201600   1.008000   ; qtot 0.265456
 7073         os    258    ccc     O6   7073 -0.26013600  16.000000   ; qtot 0.005320
; residue  259 ccc rtp ccc q 0.0
 7074         c3    259    ccc     C1   7074 -0.33178800  12.010000   ; qtot -0.326468
 7075         c3    259    ccc     C2   7075 0.30606500  12.010000   ; qtot -0.020403
 7076         h1    259    ccc     H1   7076 0.11662300   1.008000   ; qtot 0.096220
 7077         h1    259    ccc     H2   7077 0.11526800   1.008000   ; qtot 0.211488
 7078         c3    259    ccc     C3   7078 0.15592700  12.010000   ; qtot 0.367415
 7079         c3    259    ccc     C4   7079 0.28383300  12.010000   ; qtot 0.651248
 7080         c3    259    ccc     C5   7080 0.32403300  12.010000   ; qtot 0.975281
 7081         h1    259    ccc     H3   7081 0.13386900   1.008000   ; qtot 1.109150
 7082         h1    259    ccc     H4   7082 0.10146700   1.008000   ; qtot 1.210617
 7083         h2    259    ccc     H5   7083 0.10960400   1.008000   ; qtot 1.320221
 7084         os    259    ccc     O1   7084 -0.28650000  16.000000   ; qtot 1.033721
 7085         oh    259    ccc     O2   7085 -0.86012500  16.000000   ; qtot 0.173596
 7086         oh    259    ccc     O3   7086 -0.83772800  16.000000   ; qtot -0.664132
 7087         oh    259    ccc     O4   7087 -0.77449700  16.000000   ; qtot -1.438629
 7088         c3    259    ccc     C6   7088 0.37576500  12.010000   ; qtot -1.062864
 7089         ho    259    ccc     H6   7089 0.53656000   1.008000   ; qtot -0.526304
 7090         ho    259    ccc     H7   7090 0.49492100   1.008000   ; qtot -0.031383
 7091         ho    259    ccc     H8   7091 0.51297200   1.008000   ; qtot 0.481589
 7092         h1    259    ccc     H9   7092 0.05653400   1.008000   ; qtot 0.538123
 7093         h1    259    ccc    H10   7093 0.05653400   1.008000   ; qtot 0.594657
 7094         oh    259    ccc     O5   7094 -0.84113600  16.000000   ; qtot -0.246479
 7095         ho    259    ccc    H11   7095 0.51201600   1.008000   ; qtot 0.265537
 7096         os    259    ccc     O6   7096 -0.26013600  16.000000   ; qtot 0.005401
; residue  260 ccc rtp ccc q 0.0
 7097         c3    260    ccc     C1   7097 -0.33178800  12.010000   ; qtot -0.326387
 7098         c3    260    ccc     C2   7098 0.30606500  12.010000   ; qtot -0.020322
 7099         h1    260    ccc     H1   7099 0.11662300   1.008000   ; qtot 0.096301
 7100         h1    260    ccc     H2   7100 0.11526800   1.008000   ; qtot 0.211569
 7101         c3    260    ccc     C3   7101 0.15592700  12.010000   ; qtot 0.367496
 7102         c3    260    ccc     C4   7102 0.28383300  12.010000   ; qtot 0.651329
 7103         c3    260    ccc     C5   7103 0.32403300  12.010000   ; qtot 0.975362
 7104         h1    260    ccc     H3   7104 0.13386900   1.008000   ; qtot 1.109231
 7105         h1    260    ccc     H4   7105 0.10146700   1.008000   ; qtot 1.210698
 7106         h2    260    ccc     H5   7106 0.10960400   1.008000   ; qtot 1.320302
 7107         os    260    ccc     O1   7107 -0.28650000  16.000000   ; qtot 1.033802
 7108         oh    260    ccc     O2   7108 -0.86012500  16.000000   ; qtot 0.173677
 7109         oh    260    ccc     O3   7109 -0.83772800  16.000000   ; qtot -0.664051
 7110         oh    260    ccc     O4   7110 -0.77449700  16.000000   ; qtot -1.438548
 7111         c3    260    ccc     C6   7111 0.37576500  12.010000   ; qtot -1.062783
 7112         ho    260    ccc     H6   7112 0.53656000   1.008000   ; qtot -0.526223
 7113         ho    260    ccc     H7   7113 0.49492100   1.008000   ; qtot -0.031302
 7114         ho    260    ccc     H8   7114 0.51297200   1.008000   ; qtot 0.481670
 7115         h1    260    ccc     H9   7115 0.05653400   1.008000   ; qtot 0.538204
 7116         h1    260    ccc    H10   7116 0.05653400   1.008000   ; qtot 0.594738
 7117         oh    260    ccc     O5   7117 -0.84113600  16.000000   ; qtot -0.246398
 7118         ho    260    ccc    H11   7118 0.51201600   1.008000   ; qtot 0.265618
 7119         os    260    ccc     O6   7119 -0.26013600  16.000000   ; qtot 0.005482
; residue  261 ccc rtp ccc q 0.0
 7120         c3    261    ccc     C1   7120 -0.33178800  12.010000   ; qtot -0.326306
 7121         c3    261    ccc     C2   7121 0.30606500  12.010000   ; qtot -0.020241
 7122         h1    261    ccc     H1   7122 0.11662300   1.008000   ; qtot 0.096382
 7123         h1    261    ccc     H2   7123 0.11526800   1.008000   ; qtot 0.211650
 7124         c3    261    ccc     C3   7124 0.15592700  12.010000   ; qtot 0.367577
 7125         c3    261    ccc     C4   7125 0.28383300  12.010000   ; qtot 0.651410
 7126         c3    261    ccc     C5   7126 0.32403300  12.010000   ; qtot 0.975443
 7127         h1    261    ccc     H3   7127 0.13386900   1.008000   ; qtot 1.109312
 7128         h1    261    ccc     H4   7128 0.10146700   1.008000   ; qtot 1.210779
 7129         h2    261    ccc     H5   7129 0.10960400   1.008000   ; qtot 1.320383
 7130         os    261    ccc     O1   7130 -0.28650000  16.000000   ; qtot 1.033883
 7131         oh    261    ccc     O2   7131 -0.86012500  16.000000   ; qtot 0.173758
 7132         oh    261    ccc     O3   7132 -0.83772800  16.000000   ; qtot -0.663970
 7133         oh    261    ccc     O4   7133 -0.77449700  16.000000   ; qtot -1.438467
 7134         c3    261    ccc     C6   7134 0.37576500  12.010000   ; qtot -1.062702
 7135         ho    261    ccc     H6   7135 0.53656000   1.008000   ; qtot -0.526142
 7136         ho    261    ccc     H7   7136 0.49492100   1.008000   ; qtot -0.031221
 7137         ho    261    ccc     H8   7137 0.51297200   1.008000   ; qtot 0.481751
 7138         h1    261    ccc     H9   7138 0.05653400   1.008000   ; qtot 0.538285
 7139         h1    261    ccc    H10   7139 0.05653400   1.008000   ; qtot 0.594819
 7140         oh    261    ccc     O5   7140 -0.84113600  16.000000   ; qtot -0.246317
 7141         ho    261    ccc    H11   7141 0.51201600   1.008000   ; qtot 0.265699
 7142         os    261    ccc     O6   7142 -0.26013600  16.000000   ; qtot 0.005563
; residue  262 ccc rtp ccc q 0.0
 7143         c3    262    ccc     C1   7143 -0.33178800  12.010000   ; qtot -0.326225
 7144         c3    262    ccc     C2   7144 0.30606500  12.010000   ; qtot -0.020160
 7145         h1    262    ccc     H1   7145 0.11662300   1.008000   ; qtot 0.096463
 7146         h1    262    ccc     H2   7146 0.11526800   1.008000   ; qtot 0.211731
 7147         c3    262    ccc     C3   7147 0.15592700  12.010000   ; qtot 0.367658
 7148         c3    262    ccc     C4   7148 0.28383300  12.010000   ; qtot 0.651491
 7149         c3    262    ccc     C5   7149 0.32403300  12.010000   ; qtot 0.975524
 7150         h1    262    ccc     H3   7150 0.13386900   1.008000   ; qtot 1.109393
 7151         h1    262    ccc     H4   7151 0.10146700   1.008000   ; qtot 1.210860
 7152         h2    262    ccc     H5   7152 0.10960400   1.008000   ; qtot 1.320464
 7153         os    262    ccc     O1   7153 -0.28650000  16.000000   ; qtot 1.033964
 7154         oh    262    ccc     O2   7154 -0.86012500  16.000000   ; qtot 0.173839
 7155         oh    262    ccc     O3   7155 -0.83772800  16.000000   ; qtot -0.663889
 7156         oh    262    ccc     O4   7156 -0.77449700  16.000000   ; qtot -1.438386
 7157         c3    262    ccc     C6   7157 0.37576500  12.010000   ; qtot -1.062621
 7158         ho    262    ccc     H6   7158 0.53656000   1.008000   ; qtot -0.526061
 7159         ho    262    ccc     H7   7159 0.49492100   1.008000   ; qtot -0.031140
 7160         ho    262    ccc     H8   7160 0.51297200   1.008000   ; qtot 0.481832
 7161         h1    262    ccc     H9   7161 0.05653400   1.008000   ; qtot 0.538366
 7162         h1    262    ccc    H10   7162 0.05653400   1.008000   ; qtot 0.594900
 7163         oh    262    ccc     O5   7163 -0.84113600  16.000000   ; qtot -0.246236
 7164         ho    262    ccc    H11   7164 0.51201600   1.008000   ; qtot 0.265780
 7165         os    262    ccc     O6   7165 -0.26013600  16.000000   ; qtot 0.005644
; residue  263 ccc rtp ccc q 0.0
 7166         c3    263    ccc     C1   7166 -0.33178800  12.010000   ; qtot -0.326144
 7167         c3    263    ccc     C2   7167 0.30606500  12.010000   ; qtot -0.020079
 7168         h1    263    ccc     H1   7168 0.11662300   1.008000   ; qtot 0.096544
 7169         h1    263    ccc     H2   7169 0.11526800   1.008000   ; qtot 0.211812
 7170         c3    263    ccc     C3   7170 0.15592700  12.010000   ; qtot 0.367739
 7171         c3    263    ccc     C4   7171 0.28383300  12.010000   ; qtot 0.651572
 7172         c3    263    ccc     C5   7172 0.32403300  12.010000   ; qtot 0.975605
 7173         h1    263    ccc     H3   7173 0.13386900   1.008000   ; qtot 1.109474
 7174         h1    263    ccc     H4   7174 0.10146700   1.008000   ; qtot 1.210941
 7175         h2    263    ccc     H5   7175 0.10960400   1.008000   ; qtot 1.320545
 7176         os    263    ccc     O1   7176 -0.28650000  16.000000   ; qtot 1.034045
 7177         oh    263    ccc     O2   7177 -0.86012500  16.000000   ; qtot 0.173920
 7178         oh    263    ccc     O3   7178 -0.83772800  16.000000   ; qtot -0.663808
 7179         oh    263    ccc     O4   7179 -0.77449700  16.000000   ; qtot -1.438305
 7180         c3    263    ccc     C6   7180 0.37576500  12.010000   ; qtot -1.062540
 7181         ho    263    ccc     H6   7181 0.53656000   1.008000   ; qtot -0.525980
 7182         ho    263    ccc     H7   7182 0.49492100   1.008000   ; qtot -0.031059
 7183         ho    263    ccc     H8   7183 0.51297200   1.008000   ; qtot 0.481913
 7184         h1    263    ccc     H9   7184 0.05653400   1.008000   ; qtot 0.538447
 7185         h1    263    ccc    H10   7185 0.05653400   1.008000   ; qtot 0.594981
 7186         oh    263    ccc     O5   7186 -0.84113600  16.000000   ; qtot -0.246155
 7187         ho    263    ccc    H11   7187 0.51201600   1.008000   ; qtot 0.265861
 7188         os    263    ccc     O6   7188 -0.26013600  16.000000   ; qtot 0.005725
; residue  264 ccc rtp ccc q 0.0
 7189         c3    264    ccc     C1   7189 -0.33178800  12.010000   ; qtot -0.326063
 7190         c3    264    ccc     C2   7190 0.30606500  12.010000   ; qtot -0.019998
 7191         h1    264    ccc     H1   7191 0.11662300   1.008000   ; qtot 0.096625
 7192         h1    264    ccc     H2   7192 0.11526800   1.008000   ; qtot 0.211893
 7193         c3    264    ccc     C3   7193 0.15592700  12.010000   ; qtot 0.367820
 7194         c3    264    ccc     C4   7194 0.28383300  12.010000   ; qtot 0.651653
 7195         c3    264    ccc     C5   7195 0.32403300  12.010000   ; qtot 0.975686
 7196         h1    264    ccc     H3   7196 0.13386900   1.008000   ; qtot 1.109555
 7197         h1    264    ccc     H4   7197 0.10146700   1.008000   ; qtot 1.211022
 7198         h2    264    ccc     H5   7198 0.10960400   1.008000   ; qtot 1.320626
 7199         os    264    ccc     O1   7199 -0.28650000  16.000000   ; qtot 1.034126
 7200         oh    264    ccc     O2   7200 -0.86012500  16.000000   ; qtot 0.174001
 7201         oh    264    ccc     O3   7201 -0.83772800  16.000000   ; qtot -0.663727
 7202         oh    264    ccc     O4   7202 -0.77449700  16.000000   ; qtot -1.438224
 7203         c3    264    ccc     C6   7203 0.37576500  12.010000   ; qtot -1.062459
 7204         ho    264    ccc     H6   7204 0.53656000   1.008000   ; qtot -0.525899
 7205         ho    264    ccc     H7   7205 0.49492100   1.008000   ; qtot -0.030978
 7206         ho    264    ccc     H8   7206 0.51297200   1.008000   ; qtot 0.481994
 7207         h1    264    ccc     H9   7207 0.05653400   1.008000   ; qtot 0.538528
 7208         h1    264    ccc    H10   7208 0.05653400   1.008000   ; qtot 0.595062
 7209         oh    264    ccc     O5   7209 -0.84113600  16.000000   ; qtot -0.246074
 7210         ho    264    ccc    H11   7210 0.51201600   1.008000   ; qtot 0.265942
 7211         os    264    ccc     O6   7211 -0.26013600  16.000000   ; qtot 0.005806
; residue  265 ccc rtp ccc q 0.0
 7212         c3    265    ccc     C1   7212 -0.33178800  12.010000   ; qtot -0.325982
 7213         c3    265    ccc     C2   7213 0.30606500  12.010000   ; qtot -0.019917
 7214         h1    265    ccc     H1   7214 0.11662300   1.008000   ; qtot 0.096706
 7215         h1    265    ccc     H2   7215 0.11526800   1.008000   ; qtot 0.211974
 7216         c3    265    ccc     C3   7216 0.15592700  12.010000   ; qtot 0.367901
 7217         c3    265    ccc     C4   7217 0.28383300  12.010000   ; qtot 0.651734
 7218         c3    265    ccc     C5   7218 0.32403300  12.010000   ; qtot 0.975767
 7219         h1    265    ccc     H3   7219 0.13386900   1.008000   ; qtot 1.109636
 7220         h1    265    ccc     H4   7220 0.10146700   1.008000   ; qtot 1.211103
 7221         h2    265    ccc     H5   7221 0.10960400   1.008000   ; qtot 1.320707
 7222         os    265    ccc     O1   7222 -0.28650000  16.000000   ; qtot 1.034207
 7223         oh    265    ccc     O2   7223 -0.86012500  16.000000   ; qtot 0.174082
 7224         oh    265    ccc     O3   7224 -0.83772800  16.000000   ; qtot -0.663646
 7225         oh    265    ccc     O4   7225 -0.77449700  16.000000   ; qtot -1.438143
 7226         c3    265    ccc     C6   7226 0.37576500  12.010000   ; qtot -1.062378
 7227         ho    265    ccc     H6   7227 0.53656000   1.008000   ; qtot -0.525818
 7228         ho    265    ccc     H7   7228 0.49492100   1.008000   ; qtot -0.030897
 7229         ho    265    ccc     H8   7229 0.51297200   1.008000   ; qtot 0.482075
 7230         h1    265    ccc     H9   7230 0.05653400   1.008000   ; qtot 0.538609
 7231         h1    265    ccc    H10   7231 0.05653400   1.008000   ; qtot 0.595143
 7232         oh    265    ccc     O5   7232 -0.84113600  16.000000   ; qtot -0.245993
 7233         ho    265    ccc    H11   7233 0.51201600   1.008000   ; qtot 0.266023
 7234         os    265    ccc     O6   7234 -0.26013600  16.000000   ; qtot 0.005887
; residue  266 ccc rtp ccc q 0.0
 7235         c3    266    ccc     C1   7235 -0.33178800  12.010000   ; qtot -0.325901
 7236         c3    266    ccc     C2   7236 0.30606500  12.010000   ; qtot -0.019836
 7237         h1    266    ccc     H1   7237 0.11662300   1.008000   ; qtot 0.096787
 7238         h1    266    ccc     H2   7238 0.11526800   1.008000   ; qtot 0.212055
 7239         c3    266    ccc     C3   7239 0.15592700  12.010000   ; qtot 0.367982
 7240         c3    266    ccc     C4   7240 0.28383300  12.010000   ; qtot 0.651815
 7241         c3    266    ccc     C5   7241 0.32403300  12.010000   ; qtot 0.975848
 7242         h1    266    ccc     H3   7242 0.13386900   1.008000   ; qtot 1.109717
 7243         h1    266    ccc     H4   7243 0.10146700   1.008000   ; qtot 1.211184
 7244         h2    266    ccc     H5   7244 0.10960400   1.008000   ; qtot 1.320788
 7245         os    266    ccc     O1   7245 -0.28650000  16.000000   ; qtot 1.034288
 7246         oh    266    ccc     O2   7246 -0.86012500  16.000000   ; qtot 0.174163
 7247         oh    266    ccc     O3   7247 -0.83772800  16.000000   ; qtot -0.663565
 7248         oh    266    ccc     O4   7248 -0.77449700  16.000000   ; qtot -1.438062
 7249         c3    266    ccc     C6   7249 0.37576500  12.010000   ; qtot -1.062297
 7250         ho    266    ccc     H6   7250 0.53656000   1.008000   ; qtot -0.525737
 7251         ho    266    ccc     H7   7251 0.49492100   1.008000   ; qtot -0.030816
 7252         ho    266    ccc     H8   7252 0.51297200   1.008000   ; qtot 0.482156
 7253         h1    266    ccc     H9   7253 0.05653400   1.008000   ; qtot 0.538690
 7254         h1    266    ccc    H10   7254 0.05653400   1.008000   ; qtot 0.595224
 7255         oh    266    ccc     O5   7255 -0.84113600  16.000000   ; qtot -0.245912
 7256         ho    266    ccc    H11   7256 0.51201600   1.008000   ; qtot 0.266104
 7257         os    266    ccc     O6   7257 -0.26013600  16.000000   ; qtot 0.005968
; residue  267 ccc rtp ccc q 0.0
 7258         c3    267    ccc     C1   7258 -0.33178800  12.010000   ; qtot -0.325820
 7259         c3    267    ccc     C2   7259 0.30606500  12.010000   ; qtot -0.019755
 7260         h1    267    ccc     H1   7260 0.11662300   1.008000   ; qtot 0.096868
 7261         h1    267    ccc     H2   7261 0.11526800   1.008000   ; qtot 0.212136
 7262         c3    267    ccc     C3   7262 0.15592700  12.010000   ; qtot 0.368063
 7263         c3    267    ccc     C4   7263 0.28383300  12.010000   ; qtot 0.651896
 7264         c3    267    ccc     C5   7264 0.32403300  12.010000   ; qtot 0.975929
 7265         h1    267    ccc     H3   7265 0.13386900   1.008000   ; qtot 1.109798
 7266         h1    267    ccc     H4   7266 0.10146700   1.008000   ; qtot 1.211265
 7267         h2    267    ccc     H5   7267 0.10960400   1.008000   ; qtot 1.320869
 7268         os    267    ccc     O1   7268 -0.28650000  16.000000   ; qtot 1.034369
 7269         oh    267    ccc     O2   7269 -0.86012500  16.000000   ; qtot 0.174244
 7270         oh    267    ccc     O3   7270 -0.83772800  16.000000   ; qtot -0.663484
 7271         oh    267    ccc     O4   7271 -0.77449700  16.000000   ; qtot -1.437981
 7272         c3    267    ccc     C6   7272 0.37576500  12.010000   ; qtot -1.062216
 7273         ho    267    ccc     H6   7273 0.53656000   1.008000   ; qtot -0.525656
 7274         ho    267    ccc     H7   7274 0.49492100   1.008000   ; qtot -0.030735
 7275         ho    267    ccc     H8   7275 0.51297200   1.008000   ; qtot 0.482237
 7276         h1    267    ccc     H9   7276 0.05653400   1.008000   ; qtot 0.538771
 7277         h1    267    ccc    H10   7277 0.05653400   1.008000   ; qtot 0.595305
 7278         oh    267    ccc     O5   7278 -0.84113600  16.000000   ; qtot -0.245831
 7279         ho    267    ccc    H11   7279 0.51201600   1.008000   ; qtot 0.266185
 7280         os    267    ccc     O6   7280 -0.26013600  16.000000   ; qtot 0.006049
; residue  268 ccc rtp ccc q 0.0
 7281         c3    268    ccc     C1   7281 -0.33178800  12.010000   ; qtot -0.325739
 7282         c3    268    ccc     C2   7282 0.30606500  12.010000   ; qtot -0.019674
 7283         h1    268    ccc     H1   7283 0.11662300   1.008000   ; qtot 0.096949
 7284         h1    268    ccc     H2   7284 0.11526800   1.008000   ; qtot 0.212217
 7285         c3    268    ccc     C3   7285 0.15592700  12.010000   ; qtot 0.368144
 7286         c3    268    ccc     C4   7286 0.28383300  12.010000   ; qtot 0.651977
 7287         c3    268    ccc     C5   7287 0.32403300  12.010000   ; qtot 0.976010
 7288         h1    268    ccc     H3   7288 0.13386900   1.008000   ; qtot 1.109879
 7289         h1    268    ccc     H4   7289 0.10146700   1.008000   ; qtot 1.211346
 7290         h2    268    ccc     H5   7290 0.10960400   1.008000   ; qtot 1.320950
 7291         os    268    ccc     O1   7291 -0.28650000  16.000000   ; qtot 1.034450
 7292         oh    268    ccc     O2   7292 -0.86012500  16.000000   ; qtot 0.174325
 7293         oh    268    ccc     O3   7293 -0.83772800  16.000000   ; qtot -0.663403
 7294         oh    268    ccc     O4   7294 -0.77449700  16.000000   ; qtot -1.437900
 7295         c3    268    ccc     C6   7295 0.37576500  12.010000   ; qtot -1.062135
 7296         ho    268    ccc     H6   7296 0.53656000   1.008000   ; qtot -0.525575
 7297         ho    268    ccc     H7   7297 0.49492100   1.008000   ; qtot -0.030654
 7298         ho    268    ccc     H8   7298 0.51297200   1.008000   ; qtot 0.482318
 7299         h1    268    ccc     H9   7299 0.05653400   1.008000   ; qtot 0.538852
 7300         h1    268    ccc    H10   7300 0.05653400   1.008000   ; qtot 0.595386
 7301         oh    268    ccc     O5   7301 -0.84113600  16.000000   ; qtot -0.245750
 7302         ho    268    ccc    H11   7302 0.51201600   1.008000   ; qtot 0.266266
 7303         os    268    ccc     O6   7303 -0.26013600  16.000000   ; qtot 0.006130
; residue  269 ccc rtp ccc q 0.0
 7304         c3    269    ccc     C1   7304 -0.33178800  12.010000   ; qtot -0.325658
 7305         c3    269    ccc     C2   7305 0.30606500  12.010000   ; qtot -0.019593
 7306         h1    269    ccc     H1   7306 0.11662300   1.008000   ; qtot 0.097030
 7307         h1    269    ccc     H2   7307 0.11526800   1.008000   ; qtot 0.212298
 7308         c3    269    ccc     C3   7308 0.15592700  12.010000   ; qtot 0.368225
 7309         c3    269    ccc     C4   7309 0.28383300  12.010000   ; qtot 0.652058
 7310         c3    269    ccc     C5   7310 0.32403300  12.010000   ; qtot 0.976091
 7311         h1    269    ccc     H3   7311 0.13386900   1.008000   ; qtot 1.109960
 7312         h1    269    ccc     H4   7312 0.10146700   1.008000   ; qtot 1.211427
 7313         h2    269    ccc     H5   7313 0.10960400   1.008000   ; qtot 1.321031
 7314         os    269    ccc     O1   7314 -0.28650000  16.000000   ; qtot 1.034531
 7315         oh    269    ccc     O2   7315 -0.86012500  16.000000   ; qtot 0.174406
 7316         oh    269    ccc     O3   7316 -0.83772800  16.000000   ; qtot -0.663322
 7317         oh    269    ccc     O4   7317 -0.77449700  16.000000   ; qtot -1.437819
 7318         c3    269    ccc     C6   7318 0.37576500  12.010000   ; qtot -1.062054
 7319         ho    269    ccc     H6   7319 0.53656000   1.008000   ; qtot -0.525494
 7320         ho    269    ccc     H7   7320 0.49492100   1.008000   ; qtot -0.030573
 7321         ho    269    ccc     H8   7321 0.51297200   1.008000   ; qtot 0.482399
 7322         h1    269    ccc     H9   7322 0.05653400   1.008000   ; qtot 0.538933
 7323         h1    269    ccc    H10   7323 0.05653400   1.008000   ; qtot 0.595467
 7324         oh    269    ccc     O5   7324 -0.84113600  16.000000   ; qtot -0.245669
 7325         ho    269    ccc    H11   7325 0.51201600   1.008000   ; qtot 0.266347
 7326         os    269    ccc     O6   7326 -0.26013600  16.000000   ; qtot 0.006211
; residue  270 ccc rtp ccc q 0.0
 7327         c3    270    ccc     C1   7327 -0.33178800  12.010000   ; qtot -0.325577
 7328         c3    270    ccc     C2   7328 0.30606500  12.010000   ; qtot -0.019512
 7329         h1    270    ccc     H1   7329 0.11662300   1.008000   ; qtot 0.097111
 7330         h1    270    ccc     H2   7330 0.11526800   1.008000   ; qtot 0.212379
 7331         c3    270    ccc     C3   7331 0.15592700  12.010000   ; qtot 0.368306
 7332         c3    270    ccc     C4   7332 0.28383300  12.010000   ; qtot 0.652139
 7333         c3    270    ccc     C5   7333 0.32403300  12.010000   ; qtot 0.976172
 7334         h1    270    ccc     H3   7334 0.13386900   1.008000   ; qtot 1.110041
 7335         h1    270    ccc     H4   7335 0.10146700   1.008000   ; qtot 1.211508
 7336         h2    270    ccc     H5   7336 0.10960400   1.008000   ; qtot 1.321112
 7337         os    270    ccc     O1   7337 -0.28650000  16.000000   ; qtot 1.034612
 7338         oh    270    ccc     O2   7338 -0.86012500  16.000000   ; qtot 0.174487
 7339         oh    270    ccc     O3   7339 -0.83772800  16.000000   ; qtot -0.663241
 7340         oh    270    ccc     O4   7340 -0.77449700  16.000000   ; qtot -1.437738
 7341         c3    270    ccc     C6   7341 0.37576500  12.010000   ; qtot -1.061973
 7342         ho    270    ccc     H6   7342 0.53656000   1.008000   ; qtot -0.525413
 7343         ho    270    ccc     H7   7343 0.49492100   1.008000   ; qtot -0.030492
 7344         ho    270    ccc     H8   7344 0.51297200   1.008000   ; qtot 0.482480
 7345         h1    270    ccc     H9   7345 0.05653400   1.008000   ; qtot 0.539014
 7346         h1    270    ccc    H10   7346 0.05653400   1.008000   ; qtot 0.595548
 7347         oh    270    ccc     O5   7347 -0.84113600  16.000000   ; qtot -0.245588
 7348         ho    270    ccc    H11   7348 0.51201600   1.008000   ; qtot 0.266428
 7349         os    270    ccc     O6   7349 -0.26013600  16.000000   ; qtot 0.006292
; residue  271 ccc rtp ccc q 0.0
 7350         c3    271    ccc     C1   7350 -0.33178800  12.010000   ; qtot -0.325496
 7351         c3    271    ccc     C2   7351 0.30606500  12.010000   ; qtot -0.019431
 7352         h1    271    ccc     H1   7352 0.11662300   1.008000   ; qtot 0.097192
 7353         h1    271    ccc     H2   7353 0.11526800   1.008000   ; qtot 0.212460
 7354         c3    271    ccc     C3   7354 0.15592700  12.010000   ; qtot 0.368387
 7355         c3    271    ccc     C4   7355 0.28383300  12.010000   ; qtot 0.652220
 7356         c3    271    ccc     C5   7356 0.32403300  12.010000   ; qtot 0.976253
 7357         h1    271    ccc     H3   7357 0.13386900   1.008000   ; qtot 1.110122
 7358         h1    271    ccc     H4   7358 0.10146700   1.008000   ; qtot 1.211589
 7359         h2    271    ccc     H5   7359 0.10960400   1.008000   ; qtot 1.321193
 7360         os    271    ccc     O1   7360 -0.28650000  16.000000   ; qtot 1.034693
 7361         oh    271    ccc     O2   7361 -0.86012500  16.000000   ; qtot 0.174568
 7362         oh    271    ccc     O3   7362 -0.83772800  16.000000   ; qtot -0.663160
 7363         oh    271    ccc     O4   7363 -0.77449700  16.000000   ; qtot -1.437657
 7364         c3    271    ccc     C6   7364 0.37576500  12.010000   ; qtot -1.061892
 7365         ho    271    ccc     H6   7365 0.53656000   1.008000   ; qtot -0.525332
 7366         ho    271    ccc     H7   7366 0.49492100   1.008000   ; qtot -0.030411
 7367         ho    271    ccc     H8   7367 0.51297200   1.008000   ; qtot 0.482561
 7368         h1    271    ccc     H9   7368 0.05653400   1.008000   ; qtot 0.539095
 7369         h1    271    ccc    H10   7369 0.05653400   1.008000   ; qtot 0.595629
 7370         oh    271    ccc     O5   7370 -0.84113600  16.000000   ; qtot -0.245507
 7371         ho    271    ccc    H11   7371 0.51201600   1.008000   ; qtot 0.266509
 7372         os    271    ccc     O6   7372 -0.26013600  16.000000   ; qtot 0.006373
; residue  272 ccc rtp ccc q 0.0
 7373         c3    272    ccc     C1   7373 -0.33178800  12.010000   ; qtot -0.325415
 7374         c3    272    ccc     C2   7374 0.30606500  12.010000   ; qtot -0.019350
 7375         h1    272    ccc     H1   7375 0.11662300   1.008000   ; qtot 0.097273
 7376         h1    272    ccc     H2   7376 0.11526800   1.008000   ; qtot 0.212541
 7377         c3    272    ccc     C3   7377 0.15592700  12.010000   ; qtot 0.368468
 7378         c3    272    ccc     C4   7378 0.28383300  12.010000   ; qtot 0.652301
 7379         c3    272    ccc     C5   7379 0.32403300  12.010000   ; qtot 0.976334
 7380         h1    272    ccc     H3   7380 0.13386900   1.008000   ; qtot 1.110203
 7381         h1    272    ccc     H4   7381 0.10146700   1.008000   ; qtot 1.211670
 7382         h2    272    ccc     H5   7382 0.10960400   1.008000   ; qtot 1.321274
 7383         os    272    ccc     O1   7383 -0.28650000  16.000000   ; qtot 1.034774
 7384         oh    272    ccc     O2   7384 -0.86012500  16.000000   ; qtot 0.174649
 7385         oh    272    ccc     O3   7385 -0.83772800  16.000000   ; qtot -0.663079
 7386         oh    272    ccc     O4   7386 -0.77449700  16.000000   ; qtot -1.437576
 7387         c3    272    ccc     C6   7387 0.37576500  12.010000   ; qtot -1.061811
 7388         ho    272    ccc     H6   7388 0.53656000   1.008000   ; qtot -0.525251
 7389         ho    272    ccc     H7   7389 0.49492100   1.008000   ; qtot -0.030330
 7390         ho    272    ccc     H8   7390 0.51297200   1.008000   ; qtot 0.482642
 7391         h1    272    ccc     H9   7391 0.05653400   1.008000   ; qtot 0.539176
 7392         h1    272    ccc    H10   7392 0.05653400   1.008000   ; qtot 0.595710
 7393         oh    272    ccc     O5   7393 -0.84113600  16.000000   ; qtot -0.245426
 7394         ho    272    ccc    H11   7394 0.51201600   1.008000   ; qtot 0.266590
 7395         os    272    ccc     O6   7395 -0.26013600  16.000000   ; qtot 0.006454
; residue  273 ccc rtp ccc q 0.0
 7396         c3    273    ccc     C1   7396 -0.33178800  12.010000   ; qtot -0.325334
 7397         c3    273    ccc     C2   7397 0.30606500  12.010000   ; qtot -0.019269
 7398         h1    273    ccc     H1   7398 0.11662300   1.008000   ; qtot 0.097354
 7399         h1    273    ccc     H2   7399 0.11526800   1.008000   ; qtot 0.212622
 7400         c3    273    ccc     C3   7400 0.15592700  12.010000   ; qtot 0.368549
 7401         c3    273    ccc     C4   7401 0.28383300  12.010000   ; qtot 0.652382
 7402         c3    273    ccc     C5   7402 0.32403300  12.010000   ; qtot 0.976415
 7403         h1    273    ccc     H3   7403 0.13386900   1.008000   ; qtot 1.110284
 7404         h1    273    ccc     H4   7404 0.10146700   1.008000   ; qtot 1.211751
 7405         h2    273    ccc     H5   7405 0.10960400   1.008000   ; qtot 1.321355
 7406         os    273    ccc     O1   7406 -0.28650000  16.000000   ; qtot 1.034855
 7407         oh    273    ccc     O2   7407 -0.86012500  16.000000   ; qtot 0.174730
 7408         oh    273    ccc     O3   7408 -0.83772800  16.000000   ; qtot -0.662998
 7409         oh    273    ccc     O4   7409 -0.77449700  16.000000   ; qtot -1.437495
 7410         c3    273    ccc     C6   7410 0.37576500  12.010000   ; qtot -1.061730
 7411         ho    273    ccc     H6   7411 0.53656000   1.008000   ; qtot -0.525170
 7412         ho    273    ccc     H7   7412 0.49492100   1.008000   ; qtot -0.030249
 7413         ho    273    ccc     H8   7413 0.51297200   1.008000   ; qtot 0.482723
 7414         h1    273    ccc     H9   7414 0.05653400   1.008000   ; qtot 0.539257
 7415         h1    273    ccc    H10   7415 0.05653400   1.008000   ; qtot 0.595791
 7416         oh    273    ccc     O5   7416 -0.84113600  16.000000   ; qtot -0.245345
 7417         ho    273    ccc    H11   7417 0.51201600   1.008000   ; qtot 0.266671
 7418         os    273    ccc     O6   7418 -0.26013600  16.000000   ; qtot 0.006535
; residue  274 ccc rtp ccc q 0.0
 7419         c3    274    ccc     C1   7419 -0.33178800  12.010000   ; qtot -0.325253
 7420         c3    274    ccc     C2   7420 0.30606500  12.010000   ; qtot -0.019188
 7421         h1    274    ccc     H1   7421 0.11662300   1.008000   ; qtot 0.097435
 7422         h1    274    ccc     H2   7422 0.11526800   1.008000   ; qtot 0.212703
 7423         c3    274    ccc     C3   7423 0.15592700  12.010000   ; qtot 0.368630
 7424         c3    274    ccc     C4   7424 0.28383300  12.010000   ; qtot 0.652463
 7425         c3    274    ccc     C5   7425 0.32403300  12.010000   ; qtot 0.976496
 7426         h1    274    ccc     H3   7426 0.13386900   1.008000   ; qtot 1.110365
 7427         h1    274    ccc     H4   7427 0.10146700   1.008000   ; qtot 1.211832
 7428         h2    274    ccc     H5   7428 0.10960400   1.008000   ; qtot 1.321436
 7429         os    274    ccc     O1   7429 -0.28650000  16.000000   ; qtot 1.034936
 7430         oh    274    ccc     O2   7430 -0.86012500  16.000000   ; qtot 0.174811
 7431         oh    274    ccc     O3   7431 -0.83772800  16.000000   ; qtot -0.662917
 7432         oh    274    ccc     O4   7432 -0.77449700  16.000000   ; qtot -1.437414
 7433         c3    274    ccc     C6   7433 0.37576500  12.010000   ; qtot -1.061649
 7434         ho    274    ccc     H6   7434 0.53656000   1.008000   ; qtot -0.525089
 7435         ho    274    ccc     H7   7435 0.49492100   1.008000   ; qtot -0.030168
 7436         ho    274    ccc     H8   7436 0.51297200   1.008000   ; qtot 0.482804
 7437         h1    274    ccc     H9   7437 0.05653400   1.008000   ; qtot 0.539338
 7438         h1    274    ccc    H10   7438 0.05653400   1.008000   ; qtot 0.595872
 7439         oh    274    ccc     O5   7439 -0.84113600  16.000000   ; qtot -0.245264
 7440         ho    274    ccc    H11   7440 0.51201600   1.008000   ; qtot 0.266752
 7441         os    274    ccc     O6   7441 -0.26013600  16.000000   ; qtot 0.006616
; residue  275 ccc rtp ccc q 0.0
 7442         c3    275    ccc     C1   7442 -0.33178800  12.010000   ; qtot -0.325172
 7443         c3    275    ccc     C2   7443 0.30606500  12.010000   ; qtot -0.019107
 7444         h1    275    ccc     H1   7444 0.11662300   1.008000   ; qtot 0.097516
 7445         h1    275    ccc     H2   7445 0.11526800   1.008000   ; qtot 0.212784
 7446         c3    275    ccc     C3   7446 0.15592700  12.010000   ; qtot 0.368711
 7447         c3    275    ccc     C4   7447 0.28383300  12.010000   ; qtot 0.652544
 7448         c3    275    ccc     C5   7448 0.32403300  12.010000   ; qtot 0.976577
 7449         h1    275    ccc     H3   7449 0.13386900   1.008000   ; qtot 1.110446
 7450         h1    275    ccc     H4   7450 0.10146700   1.008000   ; qtot 1.211913
 7451         h2    275    ccc     H5   7451 0.10960400   1.008000   ; qtot 1.321517
 7452         os    275    ccc     O1   7452 -0.28650000  16.000000   ; qtot 1.035017
 7453         oh    275    ccc     O2   7453 -0.86012500  16.000000   ; qtot 0.174892
 7454         oh    275    ccc     O3   7454 -0.83772800  16.000000   ; qtot -0.662836
 7455         oh    275    ccc     O4   7455 -0.77449700  16.000000   ; qtot -1.437333
 7456         c3    275    ccc     C6   7456 0.37576500  12.010000   ; qtot -1.061568
 7457         ho    275    ccc     H6   7457 0.53656000   1.008000   ; qtot -0.525008
 7458         ho    275    ccc     H7   7458 0.49492100   1.008000   ; qtot -0.030087
 7459         ho    275    ccc     H8   7459 0.51297200   1.008000   ; qtot 0.482885
 7460         h1    275    ccc     H9   7460 0.05653400   1.008000   ; qtot 0.539419
 7461         h1    275    ccc    H10   7461 0.05653400   1.008000   ; qtot 0.595953
 7462         oh    275    ccc     O5   7462 -0.84113600  16.000000   ; qtot -0.245183
 7463         ho    275    ccc    H11   7463 0.51201600   1.008000   ; qtot 0.266833
 7464         os    275    ccc     O6   7464 -0.26013600  16.000000   ; qtot 0.006697
; residue  276 ccc rtp ccc q 0.0
 7465         c3    276    ccc     C1   7465 -0.33178800  12.010000   ; qtot -0.325091
 7466         c3    276    ccc     C2   7466 0.30606500  12.010000   ; qtot -0.019026
 7467         h1    276    ccc     H1   7467 0.11662300   1.008000   ; qtot 0.097597
 7468         h1    276    ccc     H2   7468 0.11526800   1.008000   ; qtot 0.212865
 7469         c3    276    ccc     C3   7469 0.15592700  12.010000   ; qtot 0.368792
 7470         c3    276    ccc     C4   7470 0.28383300  12.010000   ; qtot 0.652625
 7471         c3    276    ccc     C5   7471 0.32403300  12.010000   ; qtot 0.976658
 7472         h1    276    ccc     H3   7472 0.13386900   1.008000   ; qtot 1.110527
 7473         h1    276    ccc     H4   7473 0.10146700   1.008000   ; qtot 1.211994
 7474         h2    276    ccc     H5   7474 0.10960400   1.008000   ; qtot 1.321598
 7475         os    276    ccc     O1   7475 -0.28650000  16.000000   ; qtot 1.035098
 7476         oh    276    ccc     O2   7476 -0.86012500  16.000000   ; qtot 0.174973
 7477         oh    276    ccc     O3   7477 -0.83772800  16.000000   ; qtot -0.662755
 7478         oh    276    ccc     O4   7478 -0.77449700  16.000000   ; qtot -1.437252
 7479         c3    276    ccc     C6   7479 0.37576500  12.010000   ; qtot -1.061487
 7480         ho    276    ccc     H6   7480 0.53656000   1.008000   ; qtot -0.524927
 7481         ho    276    ccc     H7   7481 0.49492100   1.008000   ; qtot -0.030006
 7482         ho    276    ccc     H8   7482 0.51297200   1.008000   ; qtot 0.482966
 7483         h1    276    ccc     H9   7483 0.05653400   1.008000   ; qtot 0.539500
 7484         h1    276    ccc    H10   7484 0.05653400   1.008000   ; qtot 0.596034
 7485         oh    276    ccc     O5   7485 -0.84113600  16.000000   ; qtot -0.245102
 7486         ho    276    ccc    H11   7486 0.51201600   1.008000   ; qtot 0.266914
 7487         os    276    ccc     O6   7487 -0.26013600  16.000000   ; qtot 0.006778
; residue  277 ccc rtp ccc q 0.0
 7488         c3    277    ccc     C1   7488 -0.33178800  12.010000   ; qtot -0.325010
 7489         c3    277    ccc     C2   7489 0.30606500  12.010000   ; qtot -0.018945
 7490         h1    277    ccc     H1   7490 0.11662300   1.008000   ; qtot 0.097678
 7491         h1    277    ccc     H2   7491 0.11526800   1.008000   ; qtot 0.212946
 7492         c3    277    ccc     C3   7492 0.15592700  12.010000   ; qtot 0.368873
 7493         c3    277    ccc     C4   7493 0.28383300  12.010000   ; qtot 0.652706
 7494         c3    277    ccc     C5   7494 0.32403300  12.010000   ; qtot 0.976739
 7495         h1    277    ccc     H3   7495 0.13386900   1.008000   ; qtot 1.110608
 7496         h1    277    ccc     H4   7496 0.10146700   1.008000   ; qtot 1.212075
 7497         h2    277    ccc     H5   7497 0.10960400   1.008000   ; qtot 1.321679
 7498         os    277    ccc     O1   7498 -0.28650000  16.000000   ; qtot 1.035179
 7499         oh    277    ccc     O2   7499 -0.86012500  16.000000   ; qtot 0.175054
 7500         oh    277    ccc     O3   7500 -0.83772800  16.000000   ; qtot -0.662674
 7501         oh    277    ccc     O4   7501 -0.77449700  16.000000   ; qtot -1.437171
 7502         c3    277    ccc     C6   7502 0.37576500  12.010000   ; qtot -1.061406
 7503         ho    277    ccc     H6   7503 0.53656000   1.008000   ; qtot -0.524846
 7504         ho    277    ccc     H7   7504 0.49492100   1.008000   ; qtot -0.029925
 7505         ho    277    ccc     H8   7505 0.51297200   1.008000   ; qtot 0.483047
 7506         h1    277    ccc     H9   7506 0.05653400   1.008000   ; qtot 0.539581
 7507         h1    277    ccc    H10   7507 0.05653400   1.008000   ; qtot 0.596115
 7508         oh    277    ccc     O5   7508 -0.84113600  16.000000   ; qtot -0.245021
 7509         ho    277    ccc    H11   7509 0.51201600   1.008000   ; qtot 0.266995
 7510         os    277    ccc     O6   7510 -0.26013600  16.000000   ; qtot 0.006859
; residue  278 ccc rtp ccc q 0.0
 7511         c3    278    ccc     C1   7511 -0.33178800  12.010000   ; qtot -0.324929
 7512         c3    278    ccc     C2   7512 0.30606500  12.010000   ; qtot -0.018864
 7513         h1    278    ccc     H1   7513 0.11662300   1.008000   ; qtot 0.097759
 7514         h1    278    ccc     H2   7514 0.11526800   1.008000   ; qtot 0.213027
 7515         c3    278    ccc     C3   7515 0.15592700  12.010000   ; qtot 0.368954
 7516         c3    278    ccc     C4   7516 0.28383300  12.010000   ; qtot 0.652787
 7517         c3    278    ccc     C5   7517 0.32403300  12.010000   ; qtot 0.976820
 7518         h1    278    ccc     H3   7518 0.13386900   1.008000   ; qtot 1.110689
 7519         h1    278    ccc     H4   7519 0.10146700   1.008000   ; qtot 1.212156
 7520         h2    278    ccc     H5   7520 0.10960400   1.008000   ; qtot 1.321760
 7521         os    278    ccc     O1   7521 -0.28650000  16.000000   ; qtot 1.035260
 7522         oh    278    ccc     O2   7522 -0.86012500  16.000000   ; qtot 0.175135
 7523         oh    278    ccc     O3   7523 -0.83772800  16.000000   ; qtot -0.662593
 7524         oh    278    ccc     O4   7524 -0.77449700  16.000000   ; qtot -1.437090
 7525         c3    278    ccc     C6   7525 0.37576500  12.010000   ; qtot -1.061325
 7526         ho    278    ccc     H6   7526 0.53656000   1.008000   ; qtot -0.524765
 7527         ho    278    ccc     H7   7527 0.49492100   1.008000   ; qtot -0.029844
 7528         ho    278    ccc     H8   7528 0.51297200   1.008000   ; qtot 0.483128
 7529         h1    278    ccc     H9   7529 0.05653400   1.008000   ; qtot 0.539662
 7530         h1    278    ccc    H10   7530 0.05653400   1.008000   ; qtot 0.596196
 7531         oh    278    ccc     O5   7531 -0.84113600  16.000000   ; qtot -0.244940
 7532         ho    278    ccc    H11   7532 0.51201600   1.008000   ; qtot 0.267076
 7533         os    278    ccc     O6   7533 -0.26013600  16.000000   ; qtot 0.006940
; residue  279 ccc rtp ccc q 0.0
 7534         c3    279    ccc     C1   7534 -0.33178800  12.010000   ; qtot -0.324848
 7535         c3    279    ccc     C2   7535 0.30606500  12.010000   ; qtot -0.018783
 7536         h1    279    ccc     H1   7536 0.11662300   1.008000   ; qtot 0.097840
 7537         h1    279    ccc     H2   7537 0.11526800   1.008000   ; qtot 0.213108
 7538         c3    279    ccc     C3   7538 0.15592700  12.010000   ; qtot 0.369035
 7539         c3    279    ccc     C4   7539 0.28383300  12.010000   ; qtot 0.652868
 7540         c3    279    ccc     C5   7540 0.32403300  12.010000   ; qtot 0.976901
 7541         h1    279    ccc     H3   7541 0.13386900   1.008000   ; qtot 1.110770
 7542         h1    279    ccc     H4   7542 0.10146700   1.008000   ; qtot 1.212237
 7543         h2    279    ccc     H5   7543 0.10960400   1.008000   ; qtot 1.321841
 7544         os    279    ccc     O1   7544 -0.28650000  16.000000   ; qtot 1.035341
 7545         oh    279    ccc     O2   7545 -0.86012500  16.000000   ; qtot 0.175216
 7546         oh    279    ccc     O3   7546 -0.83772800  16.000000   ; qtot -0.662512
 7547         oh    279    ccc     O4   7547 -0.77449700  16.000000   ; qtot -1.437009
 7548         c3    279    ccc     C6   7548 0.37576500  12.010000   ; qtot -1.061244
 7549         ho    279    ccc     H6   7549 0.53656000   1.008000   ; qtot -0.524684
 7550         ho    279    ccc     H7   7550 0.49492100   1.008000   ; qtot -0.029763
 7551         ho    279    ccc     H8   7551 0.51297200   1.008000   ; qtot 0.483209
 7552         h1    279    ccc     H9   7552 0.05653400   1.008000   ; qtot 0.539743
 7553         h1    279    ccc    H10   7553 0.05653400   1.008000   ; qtot 0.596277
 7554         oh    279    ccc     O5   7554 -0.84113600  16.000000   ; qtot -0.244859
 7555         ho    279    ccc    H11   7555 0.51201600   1.008000   ; qtot 0.267157
 7556         os    279    ccc     O6   7556 -0.26013600  16.000000   ; qtot 0.007021
; residue  280 ccc rtp ccc q 0.0
 7557         c3    280    ccc     C1   7557 -0.33178800  12.010000   ; qtot -0.324767
 7558         c3    280    ccc     C2   7558 0.30606500  12.010000   ; qtot -0.018702
 7559         h1    280    ccc     H1   7559 0.11662300   1.008000   ; qtot 0.097921
 7560         h1    280    ccc     H2   7560 0.11526800   1.008000   ; qtot 0.213189
 7561         c3    280    ccc     C3   7561 0.15592700  12.010000   ; qtot 0.369116
 7562         c3    280    ccc     C4   7562 0.28383300  12.010000   ; qtot 0.652949
 7563         c3    280    ccc     C5   7563 0.32403300  12.010000   ; qtot 0.976982
 7564         h1    280    ccc     H3   7564 0.13386900   1.008000   ; qtot 1.110851
 7565         h1    280    ccc     H4   7565 0.10146700   1.008000   ; qtot 1.212318
 7566         h2    280    ccc     H5   7566 0.10960400   1.008000   ; qtot 1.321922
 7567         os    280    ccc     O1   7567 -0.28650000  16.000000   ; qtot 1.035422
 7568         oh    280    ccc     O2   7568 -0.86012500  16.000000   ; qtot 0.175297
 7569         oh    280    ccc     O3   7569 -0.83772800  16.000000   ; qtot -0.662431
 7570         oh    280    ccc     O4   7570 -0.77449700  16.000000   ; qtot -1.436928
 7571         c3    280    ccc     C6   7571 0.37576500  12.010000   ; qtot -1.061163
 7572         ho    280    ccc     H6   7572 0.53656000   1.008000   ; qtot -0.524603
 7573         ho    280    ccc     H7   7573 0.49492100   1.008000   ; qtot -0.029682
 7574         ho    280    ccc     H8   7574 0.51297200   1.008000   ; qtot 0.483290
 7575         h1    280    ccc     H9   7575 0.05653400   1.008000   ; qtot 0.539824
 7576         h1    280    ccc    H10   7576 0.05653400   1.008000   ; qtot 0.596358
 7577         oh    280    ccc     O5   7577 -0.84113600  16.000000   ; qtot -0.244778
 7578         ho    280    ccc    H11   7578 0.51201600   1.008000   ; qtot 0.267238
 7579         os    280    ccc     O6   7579 -0.26013600  16.000000   ; qtot 0.007102
; residue  281 ccc rtp ccc q 0.0
 7580         c3    281    ccc     C1   7580 -0.33178800  12.010000   ; qtot -0.324686
 7581         c3    281    ccc     C2   7581 0.30606500  12.010000   ; qtot -0.018621
 7582         h1    281    ccc     H1   7582 0.11662300   1.008000   ; qtot 0.098002
 7583         h1    281    ccc     H2   7583 0.11526800   1.008000   ; qtot 0.213270
 7584         c3    281    ccc     C3   7584 0.15592700  12.010000   ; qtot 0.369197
 7585         c3    281    ccc     C4   7585 0.28383300  12.010000   ; qtot 0.653030
 7586         c3    281    ccc     C5   7586 0.32403300  12.010000   ; qtot 0.977063
 7587         h1    281    ccc     H3   7587 0.13386900   1.008000   ; qtot 1.110932
 7588         h1    281    ccc     H4   7588 0.10146700   1.008000   ; qtot 1.212399
 7589         h2    281    ccc     H5   7589 0.10960400   1.008000   ; qtot 1.322003
 7590         os    281    ccc     O1   7590 -0.28650000  16.000000   ; qtot 1.035503
 7591         oh    281    ccc     O2   7591 -0.86012500  16.000000   ; qtot 0.175378
 7592         oh    281    ccc     O3   7592 -0.83772800  16.000000   ; qtot -0.662350
 7593         oh    281    ccc     O4   7593 -0.77449700  16.000000   ; qtot -1.436847
 7594         c3    281    ccc     C6   7594 0.37576500  12.010000   ; qtot -1.061082
 7595         ho    281    ccc     H6   7595 0.53656000   1.008000   ; qtot -0.524522
 7596         ho    281    ccc     H7   7596 0.49492100   1.008000   ; qtot -0.029601
 7597         ho    281    ccc     H8   7597 0.51297200   1.008000   ; qtot 0.483371
 7598         h1    281    ccc     H9   7598 0.05653400   1.008000   ; qtot 0.539905
 7599         h1    281    ccc    H10   7599 0.05653400   1.008000   ; qtot 0.596439
 7600         oh    281    ccc     O5   7600 -0.84113600  16.000000   ; qtot -0.244697
 7601         ho    281    ccc    H11   7601 0.51201600   1.008000   ; qtot 0.267319
 7602         os    281    ccc     O6   7602 -0.26013600  16.000000   ; qtot 0.007183
; residue  282 ccc rtp ccc q 0.0
 7603         c3    282    ccc     C1   7603 -0.33178800  12.010000   ; qtot -0.324605
 7604         c3    282    ccc     C2   7604 0.30606500  12.010000   ; qtot -0.018540
 7605         h1    282    ccc     H1   7605 0.11662300   1.008000   ; qtot 0.098083
 7606         h1    282    ccc     H2   7606 0.11526800   1.008000   ; qtot 0.213351
 7607         c3    282    ccc     C3   7607 0.15592700  12.010000   ; qtot 0.369278
 7608         c3    282    ccc     C4   7608 0.28383300  12.010000   ; qtot 0.653111
 7609         c3    282    ccc     C5   7609 0.32403300  12.010000   ; qtot 0.977144
 7610         h1    282    ccc     H3   7610 0.13386900   1.008000   ; qtot 1.111013
 7611         h1    282    ccc     H4   7611 0.10146700   1.008000   ; qtot 1.212480
 7612         h2    282    ccc     H5   7612 0.10960400   1.008000   ; qtot 1.322084
 7613         os    282    ccc     O1   7613 -0.28650000  16.000000   ; qtot 1.035584
 7614         oh    282    ccc     O2   7614 -0.86012500  16.000000   ; qtot 0.175459
 7615         oh    282    ccc     O3   7615 -0.83772800  16.000000   ; qtot -0.662269
 7616         oh    282    ccc     O4   7616 -0.77449700  16.000000   ; qtot -1.436766
 7617         c3    282    ccc     C6   7617 0.37576500  12.010000   ; qtot -1.061001
 7618         ho    282    ccc     H6   7618 0.53656000   1.008000   ; qtot -0.524441
 7619         ho    282    ccc     H7   7619 0.49492100   1.008000   ; qtot -0.029520
 7620         ho    282    ccc     H8   7620 0.51297200   1.008000   ; qtot 0.483452
 7621         h1    282    ccc     H9   7621 0.05653400   1.008000   ; qtot 0.539986
 7622         h1    282    ccc    H10   7622 0.05653400   1.008000   ; qtot 0.596520
 7623         oh    282    ccc     O5   7623 -0.84113600  16.000000   ; qtot -0.244616
 7624         ho    282    ccc    H11   7624 0.51201600   1.008000   ; qtot 0.267400
 7625         os    282    ccc     O6   7625 -0.26013600  16.000000   ; qtot 0.007264
; residue  283 ccc rtp ccc q 0.0
 7626         c3    283    ccc     C1   7626 -0.33178800  12.010000   ; qtot -0.324524
 7627         c3    283    ccc     C2   7627 0.30606500  12.010000   ; qtot -0.018459
 7628         h1    283    ccc     H1   7628 0.11662300   1.008000   ; qtot 0.098164
 7629         h1    283    ccc     H2   7629 0.11526800   1.008000   ; qtot 0.213432
 7630         c3    283    ccc     C3   7630 0.15592700  12.010000   ; qtot 0.369359
 7631         c3    283    ccc     C4   7631 0.28383300  12.010000   ; qtot 0.653192
 7632         c3    283    ccc     C5   7632 0.32403300  12.010000   ; qtot 0.977225
 7633         h1    283    ccc     H3   7633 0.13386900   1.008000   ; qtot 1.111094
 7634         h1    283    ccc     H4   7634 0.10146700   1.008000   ; qtot 1.212561
 7635         h2    283    ccc     H5   7635 0.10960400   1.008000   ; qtot 1.322165
 7636         os    283    ccc     O1   7636 -0.28650000  16.000000   ; qtot 1.035665
 7637         oh    283    ccc     O2   7637 -0.86012500  16.000000   ; qtot 0.175540
 7638         oh    283    ccc     O3   7638 -0.83772800  16.000000   ; qtot -0.662188
 7639         oh    283    ccc     O4   7639 -0.77449700  16.000000   ; qtot -1.436685
 7640         c3    283    ccc     C6   7640 0.37576500  12.010000   ; qtot -1.060920
 7641         ho    283    ccc     H6   7641 0.53656000   1.008000   ; qtot -0.524360
 7642         ho    283    ccc     H7   7642 0.49492100   1.008000   ; qtot -0.029439
 7643         ho    283    ccc     H8   7643 0.51297200   1.008000   ; qtot 0.483533
 7644         h1    283    ccc     H9   7644 0.05653400   1.008000   ; qtot 0.540067
 7645         h1    283    ccc    H10   7645 0.05653400   1.008000   ; qtot 0.596601
 7646         oh    283    ccc     O5   7646 -0.84113600  16.000000   ; qtot -0.244535
 7647         ho    283    ccc    H11   7647 0.51201600   1.008000   ; qtot 0.267481
 7648         os    283    ccc     O6   7648 -0.26013600  16.000000   ; qtot 0.007345
; residue  284 ccc rtp ccc q 0.0
 7649         c3    284    ccc     C1   7649 -0.33178800  12.010000   ; qtot -0.324443
 7650         c3    284    ccc     C2   7650 0.30606500  12.010000   ; qtot -0.018378
 7651         h1    284    ccc     H1   7651 0.11662300   1.008000   ; qtot 0.098245
 7652         h1    284    ccc     H2   7652 0.11526800   1.008000   ; qtot 0.213513
 7653         c3    284    ccc     C3   7653 0.15592700  12.010000   ; qtot 0.369440
 7654         c3    284    ccc     C4   7654 0.28383300  12.010000   ; qtot 0.653273
 7655         c3    284    ccc     C5   7655 0.32403300  12.010000   ; qtot 0.977306
 7656         h1    284    ccc     H3   7656 0.13386900   1.008000   ; qtot 1.111175
 7657         h1    284    ccc     H4   7657 0.10146700   1.008000   ; qtot 1.212642
 7658         h2    284    ccc     H5   7658 0.10960400   1.008000   ; qtot 1.322246
 7659         os    284    ccc     O1   7659 -0.28650000  16.000000   ; qtot 1.035746
 7660         oh    284    ccc     O2   7660 -0.86012500  16.000000   ; qtot 0.175621
 7661         oh    284    ccc     O3   7661 -0.83772800  16.000000   ; qtot -0.662107
 7662         oh    284    ccc     O4   7662 -0.77449700  16.000000   ; qtot -1.436604
 7663         c3    284    ccc     C6   7663 0.37576500  12.010000   ; qtot -1.060839
 7664         ho    284    ccc     H6   7664 0.53656000   1.008000   ; qtot -0.524279
 7665         ho    284    ccc     H7   7665 0.49492100   1.008000   ; qtot -0.029358
 7666         ho    284    ccc     H8   7666 0.51297200   1.008000   ; qtot 0.483614
 7667         h1    284    ccc     H9   7667 0.05653400   1.008000   ; qtot 0.540148
 7668         h1    284    ccc    H10   7668 0.05653400   1.008000   ; qtot 0.596682
 7669         oh    284    ccc     O5   7669 -0.84113600  16.000000   ; qtot -0.244454
 7670         ho    284    ccc    H11   7670 0.51201600   1.008000   ; qtot 0.267562
 7671         os    284    ccc     O6   7671 -0.26013600  16.000000   ; qtot 0.007426
; residue  285 ccc rtp ccc q 0.0
 7672         c3    285    ccc     C1   7672 -0.33178800  12.010000   ; qtot -0.324362
 7673         c3    285    ccc     C2   7673 0.30606500  12.010000   ; qtot -0.018297
 7674         h1    285    ccc     H1   7674 0.11662300   1.008000   ; qtot 0.098326
 7675         h1    285    ccc     H2   7675 0.11526800   1.008000   ; qtot 0.213594
 7676         c3    285    ccc     C3   7676 0.15592700  12.010000   ; qtot 0.369521
 7677         c3    285    ccc     C4   7677 0.28383300  12.010000   ; qtot 0.653354
 7678         c3    285    ccc     C5   7678 0.32403300  12.010000   ; qtot 0.977387
 7679         h1    285    ccc     H3   7679 0.13386900   1.008000   ; qtot 1.111256
 7680         h1    285    ccc     H4   7680 0.10146700   1.008000   ; qtot 1.212723
 7681         h2    285    ccc     H5   7681 0.10960400   1.008000   ; qtot 1.322327
 7682         os    285    ccc     O1   7682 -0.28650000  16.000000   ; qtot 1.035827
 7683         oh    285    ccc     O2   7683 -0.86012500  16.000000   ; qtot 0.175702
 7684         oh    285    ccc     O3   7684 -0.83772800  16.000000   ; qtot -0.662026
 7685         oh    285    ccc     O4   7685 -0.77449700  16.000000   ; qtot -1.436523
 7686         c3    285    ccc     C6   7686 0.37576500  12.010000   ; qtot -1.060758
 7687         ho    285    ccc     H6   7687 0.53656000   1.008000   ; qtot -0.524198
 7688         ho    285    ccc     H7   7688 0.49492100   1.008000   ; qtot -0.029277
 7689         ho    285    ccc     H8   7689 0.51297200   1.008000   ; qtot 0.483695
 7690         h1    285    ccc     H9   7690 0.05653400   1.008000   ; qtot 0.540229
 7691         h1    285    ccc    H10   7691 0.05653400   1.008000   ; qtot 0.596763
 7692         oh    285    ccc     O5   7692 -0.84113600  16.000000   ; qtot -0.244373
 7693         ho    285    ccc    H11   7693 0.51201600   1.008000   ; qtot 0.267643
 7694         os    285    ccc     O6   7694 -0.26013600  16.000000   ; qtot 0.007507
; residue  286 ccc rtp ccc q 0.0
 7695         c3    286    ccc     C1   7695 -0.33178800  12.010000   ; qtot -0.324281
 7696         c3    286    ccc     C2   7696 0.30606500  12.010000   ; qtot -0.018216
 7697         h1    286    ccc     H1   7697 0.11662300   1.008000   ; qtot 0.098407
 7698         h1    286    ccc     H2   7698 0.11526800   1.008000   ; qtot 0.213675
 7699         c3    286    ccc     C3   7699 0.15592700  12.010000   ; qtot 0.369602
 7700         c3    286    ccc     C4   7700 0.28383300  12.010000   ; qtot 0.653435
 7701         c3    286    ccc     C5   7701 0.32403300  12.010000   ; qtot 0.977468
 7702         h1    286    ccc     H3   7702 0.13386900   1.008000   ; qtot 1.111337
 7703         h1    286    ccc     H4   7703 0.10146700   1.008000   ; qtot 1.212804
 7704         h2    286    ccc     H5   7704 0.10960400   1.008000   ; qtot 1.322408
 7705         os    286    ccc     O1   7705 -0.28650000  16.000000   ; qtot 1.035908
 7706         oh    286    ccc     O2   7706 -0.86012500  16.000000   ; qtot 0.175783
 7707         oh    286    ccc     O3   7707 -0.83772800  16.000000   ; qtot -0.661945
 7708         oh    286    ccc     O4   7708 -0.77449700  16.000000   ; qtot -1.436442
 7709         c3    286    ccc     C6   7709 0.37576500  12.010000   ; qtot -1.060677
 7710         ho    286    ccc     H6   7710 0.53656000   1.008000   ; qtot -0.524117
 7711         ho    286    ccc     H7   7711 0.49492100   1.008000   ; qtot -0.029196
 7712         ho    286    ccc     H8   7712 0.51297200   1.008000   ; qtot 0.483776
 7713         h1    286    ccc     H9   7713 0.05653400   1.008000   ; qtot 0.540310
 7714         h1    286    ccc    H10   7714 0.05653400   1.008000   ; qtot 0.596844
 7715         oh    286    ccc     O5   7715 -0.84113600  16.000000   ; qtot -0.244292
 7716         ho    286    ccc    H11   7716 0.51201600   1.008000   ; qtot 0.267724
 7717         os    286    ccc     O6   7717 -0.26013600  16.000000   ; qtot 0.007588
; residue  287 ccc rtp ccc q 0.0
 7718         c3    287    ccc     C1   7718 -0.33178800  12.010000   ; qtot -0.324200
 7719         c3    287    ccc     C2   7719 0.30606500  12.010000   ; qtot -0.018135
 7720         h1    287    ccc     H1   7720 0.11662300   1.008000   ; qtot 0.098488
 7721         h1    287    ccc     H2   7721 0.11526800   1.008000   ; qtot 0.213756
 7722         c3    287    ccc     C3   7722 0.15592700  12.010000   ; qtot 0.369683
 7723         c3    287    ccc     C4   7723 0.28383300  12.010000   ; qtot 0.653516
 7724         c3    287    ccc     C5   7724 0.32403300  12.010000   ; qtot 0.977549
 7725         h1    287    ccc     H3   7725 0.13386900   1.008000   ; qtot 1.111418
 7726         h1    287    ccc     H4   7726 0.10146700   1.008000   ; qtot 1.212885
 7727         h2    287    ccc     H5   7727 0.10960400   1.008000   ; qtot 1.322489
 7728         os    287    ccc     O1   7728 -0.28650000  16.000000   ; qtot 1.035989
 7729         oh    287    ccc     O2   7729 -0.86012500  16.000000   ; qtot 0.175864
 7730         oh    287    ccc     O3   7730 -0.83772800  16.000000   ; qtot -0.661864
 7731         oh    287    ccc     O4   7731 -0.77449700  16.000000   ; qtot -1.436361
 7732         c3    287    ccc     C6   7732 0.37576500  12.010000   ; qtot -1.060596
 7733         ho    287    ccc     H6   7733 0.53656000   1.008000   ; qtot -0.524036
 7734         ho    287    ccc     H7   7734 0.49492100   1.008000   ; qtot -0.029115
 7735         ho    287    ccc     H8   7735 0.51297200   1.008000   ; qtot 0.483857
 7736         h1    287    ccc     H9   7736 0.05653400   1.008000   ; qtot 0.540391
 7737         h1    287    ccc    H10   7737 0.05653400   1.008000   ; qtot 0.596925
 7738         oh    287    ccc     O5   7738 -0.84113600  16.000000   ; qtot -0.244211
 7739         ho    287    ccc    H11   7739 0.51201600   1.008000   ; qtot 0.267805
 7740         os    287    ccc     O6   7740 -0.26013600  16.000000   ; qtot 0.007669
; residue  288 ccc rtp ccc q 0.0
 7741         c3    288    ccc     C1   7741 -0.33178800  12.010000   ; qtot -0.324119
 7742         c3    288    ccc     C2   7742 0.30606500  12.010000   ; qtot -0.018054
 7743         h1    288    ccc     H1   7743 0.11662300   1.008000   ; qtot 0.098569
 7744         h1    288    ccc     H2   7744 0.11526800   1.008000   ; qtot 0.213837
 7745         c3    288    ccc     C3   7745 0.15592700  12.010000   ; qtot 0.369764
 7746         c3    288    ccc     C4   7746 0.28383300  12.010000   ; qtot 0.653597
 7747         c3    288    ccc     C5   7747 0.32403300  12.010000   ; qtot 0.977630
 7748         h1    288    ccc     H3   7748 0.13386900   1.008000   ; qtot 1.111499
 7749         h1    288    ccc     H4   7749 0.10146700   1.008000   ; qtot 1.212966
 7750         h2    288    ccc     H5   7750 0.10960400   1.008000   ; qtot 1.322570
 7751         os    288    ccc     O1   7751 -0.28650000  16.000000   ; qtot 1.036070
 7752         oh    288    ccc     O2   7752 -0.86012500  16.000000   ; qtot 0.175945
 7753         oh    288    ccc     O3   7753 -0.83772800  16.000000   ; qtot -0.661783
 7754         oh    288    ccc     O4   7754 -0.77449700  16.000000   ; qtot -1.436280
 7755         c3    288    ccc     C6   7755 0.37576500  12.010000   ; qtot -1.060515
 7756         ho    288    ccc     H6   7756 0.53656000   1.008000   ; qtot -0.523955
 7757         ho    288    ccc     H7   7757 0.49492100   1.008000   ; qtot -0.029034
 7758         ho    288    ccc     H8   7758 0.51297200   1.008000   ; qtot 0.483938
 7759         h1    288    ccc     H9   7759 0.05653400   1.008000   ; qtot 0.540472
 7760         h1    288    ccc    H10   7760 0.05653400   1.008000   ; qtot 0.597006
 7761         oh    288    ccc     O5   7761 -0.84113600  16.000000   ; qtot -0.244130
 7762         ho    288    ccc    H11   7762 0.51201600   1.008000   ; qtot 0.267886
 7763         os    288    ccc     O6   7763 -0.26013600  16.000000   ; qtot 0.007750
; residue  289 ccc rtp ccc q 0.0
 7764         c3    289    ccc     C1   7764 -0.33178800  12.010000   ; qtot -0.324038
 7765         c3    289    ccc     C2   7765 0.30606500  12.010000   ; qtot -0.017973
 7766         h1    289    ccc     H1   7766 0.11662300   1.008000   ; qtot 0.098650
 7767         h1    289    ccc     H2   7767 0.11526800   1.008000   ; qtot 0.213918
 7768         c3    289    ccc     C3   7768 0.15592700  12.010000   ; qtot 0.369845
 7769         c3    289    ccc     C4   7769 0.28383300  12.010000   ; qtot 0.653678
 7770         c3    289    ccc     C5   7770 0.32403300  12.010000   ; qtot 0.977711
 7771         h1    289    ccc     H3   7771 0.13386900   1.008000   ; qtot 1.111580
 7772         h1    289    ccc     H4   7772 0.10146700   1.008000   ; qtot 1.213047
 7773         h2    289    ccc     H5   7773 0.10960400   1.008000   ; qtot 1.322651
 7774         os    289    ccc     O1   7774 -0.28650000  16.000000   ; qtot 1.036151
 7775         oh    289    ccc     O2   7775 -0.86012500  16.000000   ; qtot 0.176026
 7776         oh    289    ccc     O3   7776 -0.83772800  16.000000   ; qtot -0.661702
 7777         oh    289    ccc     O4   7777 -0.77449700  16.000000   ; qtot -1.436199
 7778         c3    289    ccc     C6   7778 0.37576500  12.010000   ; qtot -1.060434
 7779         ho    289    ccc     H6   7779 0.53656000   1.008000   ; qtot -0.523874
 7780         ho    289    ccc     H7   7780 0.49492100   1.008000   ; qtot -0.028953
 7781         ho    289    ccc     H8   7781 0.51297200   1.008000   ; qtot 0.484019
 7782         h1    289    ccc     H9   7782 0.05653400   1.008000   ; qtot 0.540553
 7783         h1    289    ccc    H10   7783 0.05653400   1.008000   ; qtot 0.597087
 7784         oh    289    ccc     O5   7784 -0.84113600  16.000000   ; qtot -0.244049
 7785         ho    289    ccc    H11   7785 0.51201600   1.008000   ; qtot 0.267967
 7786         os    289    ccc     O6   7786 -0.26013600  16.000000   ; qtot 0.007831
; residue  290 ccc rtp ccc q 0.0
 7787         c3    290    ccc     C1   7787 -0.33178800  12.010000   ; qtot -0.323957
 7788         c3    290    ccc     C2   7788 0.30606500  12.010000   ; qtot -0.017892
 7789         h1    290    ccc     H1   7789 0.11662300   1.008000   ; qtot 0.098731
 7790         h1    290    ccc     H2   7790 0.11526800   1.008000   ; qtot 0.213999
 7791         c3    290    ccc     C3   7791 0.15592700  12.010000   ; qtot 0.369926
 7792         c3    290    ccc     C4   7792 0.28383300  12.010000   ; qtot 0.653759
 7793         c3    290    ccc     C5   7793 0.32403300  12.010000   ; qtot 0.977792
 7794         h1    290    ccc     H3   7794 0.13386900   1.008000   ; qtot 1.111661
 7795         h1    290    ccc     H4   7795 0.10146700   1.008000   ; qtot 1.213128
 7796         h2    290    ccc     H5   7796 0.10960400   1.008000   ; qtot 1.322732
 7797         os    290    ccc     O1   7797 -0.28650000  16.000000   ; qtot 1.036232
 7798         oh    290    ccc     O2   7798 -0.86012500  16.000000   ; qtot 0.176107
 7799         oh    290    ccc     O3   7799 -0.83772800  16.000000   ; qtot -0.661621
 7800         oh    290    ccc     O4   7800 -0.77449700  16.000000   ; qtot -1.436118
 7801         c3    290    ccc     C6   7801 0.37576500  12.010000   ; qtot -1.060353
 7802         ho    290    ccc     H6   7802 0.53656000   1.008000   ; qtot -0.523793
 7803         ho    290    ccc     H7   7803 0.49492100   1.008000   ; qtot -0.028872
 7804         ho    290    ccc     H8   7804 0.51297200   1.008000   ; qtot 0.484100
 7805         h1    290    ccc     H9   7805 0.05653400   1.008000   ; qtot 0.540634
 7806         h1    290    ccc    H10   7806 0.05653400   1.008000   ; qtot 0.597168
 7807         oh    290    ccc     O5   7807 -0.84113600  16.000000   ; qtot -0.243968
 7808         ho    290    ccc    H11   7808 0.51201600   1.008000   ; qtot 0.268048
 7809         os    290    ccc     O6   7809 -0.26013600  16.000000   ; qtot 0.007912
; residue  291 ccc rtp ccc q 0.0
 7810         c3    291    ccc     C1   7810 -0.33178800  12.010000   ; qtot -0.323876
 7811         c3    291    ccc     C2   7811 0.30606500  12.010000   ; qtot -0.017811
 7812         h1    291    ccc     H1   7812 0.11662300   1.008000   ; qtot 0.098812
 7813         h1    291    ccc     H2   7813 0.11526800   1.008000   ; qtot 0.214080
 7814         c3    291    ccc     C3   7814 0.15592700  12.010000   ; qtot 0.370007
 7815         c3    291    ccc     C4   7815 0.28383300  12.010000   ; qtot 0.653840
 7816         c3    291    ccc     C5   7816 0.32403300  12.010000   ; qtot 0.977873
 7817         h1    291    ccc     H3   7817 0.13386900   1.008000   ; qtot 1.111742
 7818         h1    291    ccc     H4   7818 0.10146700   1.008000   ; qtot 1.213209
 7819         h2    291    ccc     H5   7819 0.10960400   1.008000   ; qtot 1.322813
 7820         os    291    ccc     O1   7820 -0.28650000  16.000000   ; qtot 1.036313
 7821         oh    291    ccc     O2   7821 -0.86012500  16.000000   ; qtot 0.176188
 7822         oh    291    ccc     O3   7822 -0.83772800  16.000000   ; qtot -0.661540
 7823         oh    291    ccc     O4   7823 -0.77449700  16.000000   ; qtot -1.436037
 7824         c3    291    ccc     C6   7824 0.37576500  12.010000   ; qtot -1.060272
 7825         ho    291    ccc     H6   7825 0.53656000   1.008000   ; qtot -0.523712
 7826         ho    291    ccc     H7   7826 0.49492100   1.008000   ; qtot -0.028791
 7827         ho    291    ccc     H8   7827 0.51297200   1.008000   ; qtot 0.484181
 7828         h1    291    ccc     H9   7828 0.05653400   1.008000   ; qtot 0.540715
 7829         h1    291    ccc    H10   7829 0.05653400   1.008000   ; qtot 0.597249
 7830         oh    291    ccc     O5   7830 -0.84113600  16.000000   ; qtot -0.243887
 7831         ho    291    ccc    H11   7831 0.51201600   1.008000   ; qtot 0.268129
 7832         os    291    ccc     O6   7832 -0.26013600  16.000000   ; qtot 0.007993
; residue  292 ccc rtp ccc q 0.0
 7833         c3    292    ccc     C1   7833 -0.33178800  12.010000   ; qtot -0.323795
 7834         c3    292    ccc     C2   7834 0.30606500  12.010000   ; qtot -0.017730
 7835         h1    292    ccc     H1   7835 0.11662300   1.008000   ; qtot 0.098893
 7836         h1    292    ccc     H2   7836 0.11526800   1.008000   ; qtot 0.214161
 7837         c3    292    ccc     C3   7837 0.15592700  12.010000   ; qtot 0.370088
 7838         c3    292    ccc     C4   7838 0.28383300  12.010000   ; qtot 0.653921
 7839         c3    292    ccc     C5   7839 0.32403300  12.010000   ; qtot 0.977954
 7840         h1    292    ccc     H3   7840 0.13386900   1.008000   ; qtot 1.111823
 7841         h1    292    ccc     H4   7841 0.10146700   1.008000   ; qtot 1.213290
 7842         h2    292    ccc     H5   7842 0.10960400   1.008000   ; qtot 1.322894
 7843         os    292    ccc     O1   7843 -0.28650000  16.000000   ; qtot 1.036394
 7844         oh    292    ccc     O2   7844 -0.86012500  16.000000   ; qtot 0.176269
 7845         oh    292    ccc     O3   7845 -0.83772800  16.000000   ; qtot -0.661459
 7846         oh    292    ccc     O4   7846 -0.77449700  16.000000   ; qtot -1.435956
 7847         c3    292    ccc     C6   7847 0.37576500  12.010000   ; qtot -1.060191
 7848         ho    292    ccc     H6   7848 0.53656000   1.008000   ; qtot -0.523631
 7849         ho    292    ccc     H7   7849 0.49492100   1.008000   ; qtot -0.028710
 7850         ho    292    ccc     H8   7850 0.51297200   1.008000   ; qtot 0.484262
 7851         h1    292    ccc     H9   7851 0.05653400   1.008000   ; qtot 0.540796
 7852         h1    292    ccc    H10   7852 0.05653400   1.008000   ; qtot 0.597330
 7853         oh    292    ccc     O5   7853 -0.84113600  16.000000   ; qtot -0.243806
 7854         ho    292    ccc    H11   7854 0.51201600   1.008000   ; qtot 0.268210
 7855         os    292    ccc     O6   7855 -0.26013600  16.000000   ; qtot 0.008074
; residue  293 ccc rtp ccc q 0.0
 7856         c3    293    ccc     C1   7856 -0.33178800  12.010000   ; qtot -0.323714
 7857         c3    293    ccc     C2   7857 0.30606500  12.010000   ; qtot -0.017649
 7858         h1    293    ccc     H1   7858 0.11662300   1.008000   ; qtot 0.098974
 7859         h1    293    ccc     H2   7859 0.11526800   1.008000   ; qtot 0.214242
 7860         c3    293    ccc     C3   7860 0.15592700  12.010000   ; qtot 0.370169
 7861         c3    293    ccc     C4   7861 0.28383300  12.010000   ; qtot 0.654002
 7862         c3    293    ccc     C5   7862 0.32403300  12.010000   ; qtot 0.978035
 7863         h1    293    ccc     H3   7863 0.13386900   1.008000   ; qtot 1.111904
 7864         h1    293    ccc     H4   7864 0.10146700   1.008000   ; qtot 1.213371
 7865         h2    293    ccc     H5   7865 0.10960400   1.008000   ; qtot 1.322975
 7866         os    293    ccc     O1   7866 -0.28650000  16.000000   ; qtot 1.036475
 7867         oh    293    ccc     O2   7867 -0.86012500  16.000000   ; qtot 0.176350
 7868         oh    293    ccc     O3   7868 -0.83772800  16.000000   ; qtot -0.661378
 7869         oh    293    ccc     O4   7869 -0.77449700  16.000000   ; qtot -1.435875
 7870         c3    293    ccc     C6   7870 0.37576500  12.010000   ; qtot -1.060110
 7871         ho    293    ccc     H6   7871 0.53656000   1.008000   ; qtot -0.523550
 7872         ho    293    ccc     H7   7872 0.49492100   1.008000   ; qtot -0.028629
 7873         ho    293    ccc     H8   7873 0.51297200   1.008000   ; qtot 0.484343
 7874         h1    293    ccc     H9   7874 0.05653400   1.008000   ; qtot 0.540877
 7875         h1    293    ccc    H10   7875 0.05653400   1.008000   ; qtot 0.597411
 7876         oh    293    ccc     O5   7876 -0.84113600  16.000000   ; qtot -0.243725
 7877         ho    293    ccc    H11   7877 0.51201600   1.008000   ; qtot 0.268291
 7878         os    293    ccc     O6   7878 -0.26013600  16.000000   ; qtot 0.008155
; residue  294 ccc rtp ccc q 0.0
 7879         c3    294    ccc     C1   7879 -0.33178800  12.010000   ; qtot -0.323633
 7880         c3    294    ccc     C2   7880 0.30606500  12.010000   ; qtot -0.017568
 7881         h1    294    ccc     H1   7881 0.11662300   1.008000   ; qtot 0.099055
 7882         h1    294    ccc     H2   7882 0.11526800   1.008000   ; qtot 0.214323
 7883         c3    294    ccc     C3   7883 0.15592700  12.010000   ; qtot 0.370250
 7884         c3    294    ccc     C4   7884 0.28383300  12.010000   ; qtot 0.654083
 7885         c3    294    ccc     C5   7885 0.32403300  12.010000   ; qtot 0.978116
 7886         h1    294    ccc     H3   7886 0.13386900   1.008000   ; qtot 1.111985
 7887         h1    294    ccc     H4   7887 0.10146700   1.008000   ; qtot 1.213452
 7888         h2    294    ccc     H5   7888 0.10960400   1.008000   ; qtot 1.323056
 7889         os    294    ccc     O1   7889 -0.28650000  16.000000   ; qtot 1.036556
 7890         oh    294    ccc     O2   7890 -0.86012500  16.000000   ; qtot 0.176431
 7891         oh    294    ccc     O3   7891 -0.83772800  16.000000   ; qtot -0.661297
 7892         oh    294    ccc     O4   7892 -0.77449700  16.000000   ; qtot -1.435794
 7893         c3    294    ccc     C6   7893 0.37576500  12.010000   ; qtot -1.060029
 7894         ho    294    ccc     H6   7894 0.53656000   1.008000   ; qtot -0.523469
 7895         ho    294    ccc     H7   7895 0.49492100   1.008000   ; qtot -0.028548
 7896         ho    294    ccc     H8   7896 0.51297200   1.008000   ; qtot 0.484424
 7897         h1    294    ccc     H9   7897 0.05653400   1.008000   ; qtot 0.540958
 7898         h1    294    ccc    H10   7898 0.05653400   1.008000   ; qtot 0.597492
 7899         oh    294    ccc     O5   7899 -0.84113600  16.000000   ; qtot -0.243644
 7900         ho    294    ccc    H11   7900 0.51201600   1.008000   ; qtot 0.268372
 7901         os    294    ccc     O6   7901 -0.26013600  16.000000   ; qtot 0.008236
; residue  295 ccc rtp ccc q 0.0
 7902         c3    295    ccc     C1   7902 -0.33178800  12.010000   ; qtot -0.323552
 7903         c3    295    ccc     C2   7903 0.30606500  12.010000   ; qtot -0.017487
 7904         h1    295    ccc     H1   7904 0.11662300   1.008000   ; qtot 0.099136
 7905         h1    295    ccc     H2   7905 0.11526800   1.008000   ; qtot 0.214404
 7906         c3    295    ccc     C3   7906 0.15592700  12.010000   ; qtot 0.370331
 7907         c3    295    ccc     C4   7907 0.28383300  12.010000   ; qtot 0.654164
 7908         c3    295    ccc     C5   7908 0.32403300  12.010000   ; qtot 0.978197
 7909         h1    295    ccc     H3   7909 0.13386900   1.008000   ; qtot 1.112066
 7910         h1    295    ccc     H4   7910 0.10146700   1.008000   ; qtot 1.213533
 7911         h2    295    ccc     H5   7911 0.10960400   1.008000   ; qtot 1.323137
 7912         os    295    ccc     O1   7912 -0.28650000  16.000000   ; qtot 1.036637
 7913         oh    295    ccc     O2   7913 -0.86012500  16.000000   ; qtot 0.176512
 7914         oh    295    ccc     O3   7914 -0.83772800  16.000000   ; qtot -0.661216
 7915         oh    295    ccc     O4   7915 -0.77449700  16.000000   ; qtot -1.435713
 7916         c3    295    ccc     C6   7916 0.37576500  12.010000   ; qtot -1.059948
 7917         ho    295    ccc     H6   7917 0.53656000   1.008000   ; qtot -0.523388
 7918         ho    295    ccc     H7   7918 0.49492100   1.008000   ; qtot -0.028467
 7919         ho    295    ccc     H8   7919 0.51297200   1.008000   ; qtot 0.484505
 7920         h1    295    ccc     H9   7920 0.05653400   1.008000   ; qtot 0.541039
 7921         h1    295    ccc    H10   7921 0.05653400   1.008000   ; qtot 0.597573
 7922         oh    295    ccc     O5   7922 -0.84113600  16.000000   ; qtot -0.243563
 7923         ho    295    ccc    H11   7923 0.51201600   1.008000   ; qtot 0.268453
 7924         os    295    ccc     O6   7924 -0.26013600  16.000000   ; qtot 0.008317
; residue  296 ccc rtp ccc q 0.0
 7925         c3    296    ccc     C1   7925 -0.33178800  12.010000   ; qtot -0.323471
 7926         c3    296    ccc     C2   7926 0.30606500  12.010000   ; qtot -0.017406
 7927         h1    296    ccc     H1   7927 0.11662300   1.008000   ; qtot 0.099217
 7928         h1    296    ccc     H2   7928 0.11526800   1.008000   ; qtot 0.214485
 7929         c3    296    ccc     C3   7929 0.15592700  12.010000   ; qtot 0.370412
 7930         c3    296    ccc     C4   7930 0.28383300  12.010000   ; qtot 0.654245
 7931         c3    296    ccc     C5   7931 0.32403300  12.010000   ; qtot 0.978278
 7932         h1    296    ccc     H3   7932 0.13386900   1.008000   ; qtot 1.112147
 7933         h1    296    ccc     H4   7933 0.10146700   1.008000   ; qtot 1.213614
 7934         h2    296    ccc     H5   7934 0.10960400   1.008000   ; qtot 1.323218
 7935         os    296    ccc     O1   7935 -0.28650000  16.000000   ; qtot 1.036718
 7936         oh    296    ccc     O2   7936 -0.86012500  16.000000   ; qtot 0.176593
 7937         oh    296    ccc     O3   7937 -0.83772800  16.000000   ; qtot -0.661135
 7938         oh    296    ccc     O4   7938 -0.77449700  16.000000   ; qtot -1.435632
 7939         c3    296    ccc     C6   7939 0.37576500  12.010000   ; qtot -1.059867
 7940         ho    296    ccc     H6   7940 0.53656000   1.008000   ; qtot -0.523307
 7941         ho    296    ccc     H7   7941 0.49492100   1.008000   ; qtot -0.028386
 7942         ho    296    ccc     H8   7942 0.51297200   1.008000   ; qtot 0.484586
 7943         h1    296    ccc     H9   7943 0.05653400   1.008000   ; qtot 0.541120
 7944         h1    296    ccc    H10   7944 0.05653400   1.008000   ; qtot 0.597654
 7945         oh    296    ccc     O5   7945 -0.84113600  16.000000   ; qtot -0.243482
 7946         ho    296    ccc    H11   7946 0.51201600   1.008000   ; qtot 0.268534
 7947         os    296    ccc     O6   7947 -0.26013600  16.000000   ; qtot 0.008398
; residue  297 ccc rtp ccc q 0.0
 7948         c3    297    ccc     C1   7948 -0.33178800  12.010000   ; qtot -0.323390
 7949         c3    297    ccc     C2   7949 0.30606500  12.010000   ; qtot -0.017325
 7950         h1    297    ccc     H1   7950 0.11662300   1.008000   ; qtot 0.099298
 7951         h1    297    ccc     H2   7951 0.11526800   1.008000   ; qtot 0.214566
 7952         c3    297    ccc     C3   7952 0.15592700  12.010000   ; qtot 0.370493
 7953         c3    297    ccc     C4   7953 0.28383300  12.010000   ; qtot 0.654326
 7954         c3    297    ccc     C5   7954 0.32403300  12.010000   ; qtot 0.978359
 7955         h1    297    ccc     H3   7955 0.13386900   1.008000   ; qtot 1.112228
 7956         h1    297    ccc     H4   7956 0.10146700   1.008000   ; qtot 1.213695
 7957         h2    297    ccc     H5   7957 0.10960400   1.008000   ; qtot 1.323299
 7958         os    297    ccc     O1   7958 -0.28650000  16.000000   ; qtot 1.036799
 7959         oh    297    ccc     O2   7959 -0.86012500  16.000000   ; qtot 0.176674
 7960         oh    297    ccc     O3   7960 -0.83772800  16.000000   ; qtot -0.661054
 7961         oh    297    ccc     O4   7961 -0.77449700  16.000000   ; qtot -1.435551
 7962         c3    297    ccc     C6   7962 0.37576500  12.010000   ; qtot -1.059786
 7963         ho    297    ccc     H6   7963 0.53656000   1.008000   ; qtot -0.523226
 7964         ho    297    ccc     H7   7964 0.49492100   1.008000   ; qtot -0.028305
 7965         ho    297    ccc     H8   7965 0.51297200   1.008000   ; qtot 0.484667
 7966         h1    297    ccc     H9   7966 0.05653400   1.008000   ; qtot 0.541201
 7967         h1    297    ccc    H10   7967 0.05653400   1.008000   ; qtot 0.597735
 7968         oh    297    ccc     O5   7968 -0.84113600  16.000000   ; qtot -0.243401
 7969         ho    297    ccc    H11   7969 0.51201600   1.008000   ; qtot 0.268615
 7970         os    297    ccc     O6   7970 -0.26013600  16.000000   ; qtot 0.008479
; residue  298 ccc rtp ccc q 0.0
 7971         c3    298    ccc     C1   7971 -0.33178800  12.010000   ; qtot -0.323309
 7972         c3    298    ccc     C2   7972 0.30606500  12.010000   ; qtot -0.017244
 7973         h1    298    ccc     H1   7973 0.11662300   1.008000   ; qtot 0.099379
 7974         h1    298    ccc     H2   7974 0.11526800   1.008000   ; qtot 0.214647
 7975         c3    298    ccc     C3   7975 0.15592700  12.010000   ; qtot 0.370574
 7976         c3    298    ccc     C4   7976 0.28383300  12.010000   ; qtot 0.654407
 7977         c3    298    ccc     C5   7977 0.32403300  12.010000   ; qtot 0.978440
 7978         h1    298    ccc     H3   7978 0.13386900   1.008000   ; qtot 1.112309
 7979         h1    298    ccc     H4   7979 0.10146700   1.008000   ; qtot 1.213776
 7980         h2    298    ccc     H5   7980 0.10960400   1.008000   ; qtot 1.323380
 7981         os    298    ccc     O1   7981 -0.28650000  16.000000   ; qtot 1.036880
 7982         oh    298    ccc     O2   7982 -0.86012500  16.000000   ; qtot 0.176755
 7983         oh    298    ccc     O3   7983 -0.83772800  16.000000   ; qtot -0.660973
 7984         oh    298    ccc     O4   7984 -0.77449700  16.000000   ; qtot -1.435470
 7985         c3    298    ccc     C6   7985 0.37576500  12.010000   ; qtot -1.059705
 7986         ho    298    ccc     H6   7986 0.53656000   1.008000   ; qtot -0.523145
 7987         ho    298    ccc     H7   7987 0.49492100   1.008000   ; qtot -0.028224
 7988         ho    298    ccc     H8   7988 0.51297200   1.008000   ; qtot 0.484748
 7989         h1    298    ccc     H9   7989 0.05653400   1.008000   ; qtot 0.541282
 7990         h1    298    ccc    H10   7990 0.05653400   1.008000   ; qtot 0.597816
 7991         oh    298    ccc     O5   7991 -0.84113600  16.000000   ; qtot -0.243320
 7992         ho    298    ccc    H11   7992 0.51201600   1.008000   ; qtot 0.268696
 7993         os    298    ccc     O6   7993 -0.26013600  16.000000   ; qtot 0.008560
; residue  299 ccc rtp ccc q 0.0
 7994         c3    299    ccc     C1   7994 -0.33178800  12.010000   ; qtot -0.323228
 7995         c3    299    ccc     C2   7995 0.30606500  12.010000   ; qtot -0.017163
 7996         h1    299    ccc     H1   7996 0.11662300   1.008000   ; qtot 0.099460
 7997         h1    299    ccc     H2   7997 0.11526800   1.008000   ; qtot 0.214728
 7998         c3    299    ccc     C3   7998 0.15592700  12.010000   ; qtot 0.370655
 7999         c3    299    ccc     C4   7999 0.28383300  12.010000   ; qtot 0.654488
 8000         c3    299    ccc     C5   8000 0.32403300  12.010000   ; qtot 0.978521
 8001         h1    299    ccc     H3   8001 0.13386900   1.008000   ; qtot 1.112390
 8002         h1    299    ccc     H4   8002 0.10146700   1.008000   ; qtot 1.213857
 8003         h2    299    ccc     H5   8003 0.10960400   1.008000   ; qtot 1.323461
 8004         os    299    ccc     O1   8004 -0.28650000  16.000000   ; qtot 1.036961
 8005         oh    299    ccc     O2   8005 -0.86012500  16.000000   ; qtot 0.176836
 8006         oh    299    ccc     O3   8006 -0.83772800  16.000000   ; qtot -0.660892
 8007         oh    299    ccc     O4   8007 -0.77449700  16.000000   ; qtot -1.435389
 8008         c3    299    ccc     C6   8008 0.37576500  12.010000   ; qtot -1.059624
 8009         ho    299    ccc     H6   8009 0.53656000   1.008000   ; qtot -0.523064
 8010         ho    299    ccc     H7   8010 0.49492100   1.008000   ; qtot -0.028143
 8011         ho    299    ccc     H8   8011 0.51297200   1.008000   ; qtot 0.484829
 8012         h1    299    ccc     H9   8012 0.05653400   1.008000   ; qtot 0.541363
 8013         h1    299    ccc    H10   8013 0.05653400   1.008000   ; qtot 0.597897
 8014         oh    299    ccc     O5   8014 -0.84113600  16.000000   ; qtot -0.243239
 8015         ho    299    ccc    H11   8015 0.51201600   1.008000   ; qtot 0.268777
 8016         os    299    ccc     O6   8016 -0.26013600  16.000000   ; qtot 0.008641
; residue  300 ccc rtp ccc q 0.0
 8017         c3    300    ccc     C1   8017 -0.33178800  12.010000   ; qtot -0.323147
 8018         c3    300    ccc     C2   8018 0.30606500  12.010000   ; qtot -0.017082
 8019         h1    300    ccc     H1   8019 0.11662300   1.008000   ; qtot 0.099541
 8020         h1    300    ccc     H2   8020 0.11526800   1.008000   ; qtot 0.214809
 8021         c3    300    ccc     C3   8021 0.15592700  12.010000   ; qtot 0.370736
 8022         c3    300    ccc     C4   8022 0.28383300  12.010000   ; qtot 0.654569
 8023         c3    300    ccc     C5   8023 0.32403300  12.010000   ; qtot 0.978602
 8024         h1    300    ccc     H3   8024 0.13386900   1.008000   ; qtot 1.112471
 8025         h1    300    ccc     H4   8025 0.10146700   1.008000   ; qtot 1.213938
 8026         h2    300    ccc     H5   8026 0.10960400   1.008000   ; qtot 1.323542
 8027         os    300    ccc     O1   8027 -0.28650000  16.000000   ; qtot 1.037042
 8028         oh    300    ccc     O2   8028 -0.86012500  16.000000   ; qtot 0.176917
 8029         oh    300    ccc     O3   8029 -0.83772800  16.000000   ; qtot -0.660811
 8030         oh    300    ccc     O4   8030 -0.77449700  16.000000   ; qtot -1.435308
 8031         c3    300    ccc     C6   8031 0.37576500  12.010000   ; qtot -1.059543
 8032         ho    300    ccc     H6   8032 0.53656000   1.008000   ; qtot -0.522983
 8033         ho    300    ccc     H7   8033 0.49492100   1.008000   ; qtot -0.028062
 8034         ho    300    ccc     H8   8034 0.51297200   1.008000   ; qtot 0.484910
 8035         h1    300    ccc     H9   8035 0.05653400   1.008000   ; qtot 0.541444
 8036         h1    300    ccc    H10   8036 0.05653400   1.008000   ; qtot 0.597978
 8037         oh    300    ccc     O5   8037 -0.84113600  16.000000   ; qtot -0.243158
 8038         ho    300    ccc    H11   8038 0.51201600   1.008000   ; qtot 0.268858
 8039         os    300    ccc     O6   8039 -0.26013600  16.000000   ; qtot 0.008722
; residue  301 ccc rtp ccc q 0.0
 8040         c3    301    ccc     C1   8040 -0.33178800  12.010000   ; qtot -0.323066
 8041         c3    301    ccc     C2   8041 0.30606500  12.010000   ; qtot -0.017001
 8042         h1    301    ccc     H1   8042 0.11662300   1.008000   ; qtot 0.099622
 8043         h1    301    ccc     H2   8043 0.11526800   1.008000   ; qtot 0.214890
 8044         c3    301    ccc     C3   8044 0.15592700  12.010000   ; qtot 0.370817
 8045         c3    301    ccc     C4   8045 0.28383300  12.010000   ; qtot 0.654650
 8046         c3    301    ccc     C5   8046 0.32403300  12.010000   ; qtot 0.978683
 8047         h1    301    ccc     H3   8047 0.13386900   1.008000   ; qtot 1.112552
 8048         h1    301    ccc     H4   8048 0.10146700   1.008000   ; qtot 1.214019
 8049         h2    301    ccc     H5   8049 0.10960400   1.008000   ; qtot 1.323623
 8050         os    301    ccc     O1   8050 -0.28650000  16.000000   ; qtot 1.037123
 8051         oh    301    ccc     O2   8051 -0.86012500  16.000000   ; qtot 0.176998
 8052         oh    301    ccc     O3   8052 -0.83772800  16.000000   ; qtot -0.660730
 8053         oh    301    ccc     O4   8053 -0.77449700  16.000000   ; qtot -1.435227
 8054         c3    301    ccc     C6   8054 0.37576500  12.010000   ; qtot -1.059462
 8055         ho    301    ccc     H6   8055 0.53656000   1.008000   ; qtot -0.522902
 8056         ho    301    ccc     H7   8056 0.49492100   1.008000   ; qtot -0.027981
 8057         ho    301    ccc     H8   8057 0.51297200   1.008000   ; qtot 0.484991
 8058         h1    301    ccc     H9   8058 0.05653400   1.008000   ; qtot 0.541525
 8059         h1    301    ccc    H10   8059 0.05653400   1.008000   ; qtot 0.598059
 8060         oh    301    ccc     O5   8060 -0.84113600  16.000000   ; qtot -0.243077
 8061         ho    301    ccc    H11   8061 0.51201600   1.008000   ; qtot 0.268939
 8062         os    301    ccc     O6   8062 -0.26013600  16.000000   ; qtot 0.008803
; residue  302 ccc rtp ccc q 0.0
 8063         c3    302    ccc     C1   8063 -0.33178800  12.010000   ; qtot -0.322985
 8064         c3    302    ccc     C2   8064 0.30606500  12.010000   ; qtot -0.016920
 8065         h1    302    ccc     H1   8065 0.11662300   1.008000   ; qtot 0.099703
 8066         h1    302    ccc     H2   8066 0.11526800   1.008000   ; qtot 0.214971
 8067         c3    302    ccc     C3   8067 0.15592700  12.010000   ; qtot 0.370898
 8068         c3    302    ccc     C4   8068 0.28383300  12.010000   ; qtot 0.654731
 8069         c3    302    ccc     C5   8069 0.32403300  12.010000   ; qtot 0.978764
 8070         h1    302    ccc     H3   8070 0.13386900   1.008000   ; qtot 1.112633
 8071         h1    302    ccc     H4   8071 0.10146700   1.008000   ; qtot 1.214100
 8072         h2    302    ccc     H5   8072 0.10960400   1.008000   ; qtot 1.323704
 8073         os    302    ccc     O1   8073 -0.28650000  16.000000   ; qtot 1.037204
 8074         oh    302    ccc     O2   8074 -0.86012500  16.000000   ; qtot 0.177079
 8075         oh    302    ccc     O3   8075 -0.83772800  16.000000   ; qtot -0.660649
 8076         oh    302    ccc     O4   8076 -0.77449700  16.000000   ; qtot -1.435146
 8077         c3    302    ccc     C6   8077 0.37576500  12.010000   ; qtot -1.059381
 8078         ho    302    ccc     H6   8078 0.53656000   1.008000   ; qtot -0.522821
 8079         ho    302    ccc     H7   8079 0.49492100   1.008000   ; qtot -0.027900
 8080         ho    302    ccc     H8   8080 0.51297200   1.008000   ; qtot 0.485072
 8081         h1    302    ccc     H9   8081 0.05653400   1.008000   ; qtot 0.541606
 8082         h1    302    ccc    H10   8082 0.05653400   1.008000   ; qtot 0.598140
 8083         oh    302    ccc     O5   8083 -0.84113600  16.000000   ; qtot -0.242996
 8084         ho    302    ccc    H11   8084 0.51201600   1.008000   ; qtot 0.269020
 8085         os    302    ccc     O6   8085 -0.26013600  16.000000   ; qtot 0.008884
; residue  303 ccc rtp ccc q 0.0
 8086         c3    303    ccc     C1   8086 -0.33178800  12.010000   ; qtot -0.322904
 8087         c3    303    ccc     C2   8087 0.30606500  12.010000   ; qtot -0.016839
 8088         h1    303    ccc     H1   8088 0.11662300   1.008000   ; qtot 0.099784
 8089         h1    303    ccc     H2   8089 0.11526800   1.008000   ; qtot 0.215052
 8090         c3    303    ccc     C3   8090 0.15592700  12.010000   ; qtot 0.370979
 8091         c3    303    ccc     C4   8091 0.28383300  12.010000   ; qtot 0.654812
 8092         c3    303    ccc     C5   8092 0.32403300  12.010000   ; qtot 0.978845
 8093         h1    303    ccc     H3   8093 0.13386900   1.008000   ; qtot 1.112714
 8094         h1    303    ccc     H4   8094 0.10146700   1.008000   ; qtot 1.214181
 8095         h2    303    ccc     H5   8095 0.10960400   1.008000   ; qtot 1.323785
 8096         os    303    ccc     O1   8096 -0.28650000  16.000000   ; qtot 1.037285
 8097         oh    303    ccc     O2   8097 -0.86012500  16.000000   ; qtot 0.177160
 8098         oh    303    ccc     O3   8098 -0.83772800  16.000000   ; qtot -0.660568
 8099         oh    303    ccc     O4   8099 -0.77449700  16.000000   ; qtot -1.435065
 8100         c3    303    ccc     C6   8100 0.37576500  12.010000   ; qtot -1.059300
 8101         ho    303    ccc     H6   8101 0.53656000   1.008000   ; qtot -0.522740
 8102         ho    303    ccc     H7   8102 0.49492100   1.008000   ; qtot -0.027819
 8103         ho    303    ccc     H8   8103 0.51297200   1.008000   ; qtot 0.485153
 8104         h1    303    ccc     H9   8104 0.05653400   1.008000   ; qtot 0.541687
 8105         h1    303    ccc    H10   8105 0.05653400   1.008000   ; qtot 0.598221
 8106         oh    303    ccc     O5   8106 -0.84113600  16.000000   ; qtot -0.242915
 8107         ho    303    ccc    H11   8107 0.51201600   1.008000   ; qtot 0.269101
 8108         os    303    ccc     O6   8108 -0.26013600  16.000000   ; qtot 0.008965
; residue  304 ccc rtp ccc q 0.0
 8109         c3    304    ccc     C1   8109 -0.33178800  12.010000   ; qtot -0.322823
 8110         c3    304    ccc     C2   8110 0.30606500  12.010000   ; qtot -0.016758
 8111         h1    304    ccc     H1   8111 0.11662300   1.008000   ; qtot 0.099865
 8112         h1    304    ccc     H2   8112 0.11526800   1.008000   ; qtot 0.215133
 8113         c3    304    ccc     C3   8113 0.15592700  12.010000   ; qtot 0.371060
 8114         c3    304    ccc     C4   8114 0.28383300  12.010000   ; qtot 0.654893
 8115         c3    304    ccc     C5   8115 0.32403300  12.010000   ; qtot 0.978926
 8116         h1    304    ccc     H3   8116 0.13386900   1.008000   ; qtot 1.112795
 8117         h1    304    ccc     H4   8117 0.10146700   1.008000   ; qtot 1.214262
 8118         h2    304    ccc     H5   8118 0.10960400   1.008000   ; qtot 1.323866
 8119         os    304    ccc     O1   8119 -0.28650000  16.000000   ; qtot 1.037366
 8120         oh    304    ccc     O2   8120 -0.86012500  16.000000   ; qtot 0.177241
 8121         oh    304    ccc     O3   8121 -0.83772800  16.000000   ; qtot -0.660487
 8122         oh    304    ccc     O4   8122 -0.77449700  16.000000   ; qtot -1.434984
 8123         c3    304    ccc     C6   8123 0.37576500  12.010000   ; qtot -1.059219
 8124         ho    304    ccc     H6   8124 0.53656000   1.008000   ; qtot -0.522659
 8125         ho    304    ccc     H7   8125 0.49492100   1.008000   ; qtot -0.027738
 8126         ho    304    ccc     H8   8126 0.51297200   1.008000   ; qtot 0.485234
 8127         h1    304    ccc     H9   8127 0.05653400   1.008000   ; qtot 0.541768
 8128         h1    304    ccc    H10   8128 0.05653400   1.008000   ; qtot 0.598302
 8129         oh    304    ccc     O5   8129 -0.84113600  16.000000   ; qtot -0.242834
 8130         ho    304    ccc    H11   8130 0.51201600   1.008000   ; qtot 0.269182
 8131         os    304    ccc     O6   8131 -0.26013600  16.000000   ; qtot 0.009046
; residue  305 ccc rtp ccc q 0.0
 8132         c3    305    ccc     C1   8132 -0.33178800  12.010000   ; qtot -0.322742
 8133         c3    305    ccc     C2   8133 0.30606500  12.010000   ; qtot -0.016677
 8134         h1    305    ccc     H1   8134 0.11662300   1.008000   ; qtot 0.099946
 8135         h1    305    ccc     H2   8135 0.11526800   1.008000   ; qtot 0.215214
 8136         c3    305    ccc     C3   8136 0.15592700  12.010000   ; qtot 0.371141
 8137         c3    305    ccc     C4   8137 0.28383300  12.010000   ; qtot 0.654974
 8138         c3    305    ccc     C5   8138 0.32403300  12.010000   ; qtot 0.979007
 8139         h1    305    ccc     H3   8139 0.13386900   1.008000   ; qtot 1.112876
 8140         h1    305    ccc     H4   8140 0.10146700   1.008000   ; qtot 1.214343
 8141         h2    305    ccc     H5   8141 0.10960400   1.008000   ; qtot 1.323947
 8142         os    305    ccc     O1   8142 -0.28650000  16.000000   ; qtot 1.037447
 8143         oh    305    ccc     O2   8143 -0.86012500  16.000000   ; qtot 0.177322
 8144         oh    305    ccc     O3   8144 -0.83772800  16.000000   ; qtot -0.660406
 8145         oh    305    ccc     O4   8145 -0.77449700  16.000000   ; qtot -1.434903
 8146         c3    305    ccc     C6   8146 0.37576500  12.010000   ; qtot -1.059138
 8147         ho    305    ccc     H6   8147 0.53656000   1.008000   ; qtot -0.522578
 8148         ho    305    ccc     H7   8148 0.49492100   1.008000   ; qtot -0.027657
 8149         ho    305    ccc     H8   8149 0.51297200   1.008000   ; qtot 0.485315
 8150         h1    305    ccc     H9   8150 0.05653400   1.008000   ; qtot 0.541849
 8151         h1    305    ccc    H10   8151 0.05653400   1.008000   ; qtot 0.598383
 8152         oh    305    ccc     O5   8152 -0.84113600  16.000000   ; qtot -0.242753
 8153         ho    305    ccc    H11   8153 0.51201600   1.008000   ; qtot 0.269263
 8154         os    305    ccc     O6   8154 -0.26013600  16.000000   ; qtot 0.009127
; residue  306 ccc rtp ccc q 0.0
 8155         c3    306    ccc     C1   8155 -0.33178800  12.010000   ; qtot -0.322661
 8156         c3    306    ccc     C2   8156 0.30606500  12.010000   ; qtot -0.016596
 8157         h1    306    ccc     H1   8157 0.11662300   1.008000   ; qtot 0.100027
 8158         h1    306    ccc     H2   8158 0.11526800   1.008000   ; qtot 0.215295
 8159         c3    306    ccc     C3   8159 0.15592700  12.010000   ; qtot 0.371222
 8160         c3    306    ccc     C4   8160 0.28383300  12.010000   ; qtot 0.655055
 8161         c3    306    ccc     C5   8161 0.32403300  12.010000   ; qtot 0.979088
 8162         h1    306    ccc     H3   8162 0.13386900   1.008000   ; qtot 1.112957
 8163         h1    306    ccc     H4   8163 0.10146700   1.008000   ; qtot 1.214424
 8164         h2    306    ccc     H5   8164 0.10960400   1.008000   ; qtot 1.324028
 8165         os    306    ccc     O1   8165 -0.28650000  16.000000   ; qtot 1.037528
 8166         oh    306    ccc     O2   8166 -0.86012500  16.000000   ; qtot 0.177403
 8167         oh    306    ccc     O3   8167 -0.83772800  16.000000   ; qtot -0.660325
 8168         oh    306    ccc     O4   8168 -0.77449700  16.000000   ; qtot -1.434822
 8169         c3    306    ccc     C6   8169 0.37576500  12.010000   ; qtot -1.059057
 8170         ho    306    ccc     H6   8170 0.53656000   1.008000   ; qtot -0.522497
 8171         ho    306    ccc     H7   8171 0.49492100   1.008000   ; qtot -0.027576
 8172         ho    306    ccc     H8   8172 0.51297200   1.008000   ; qtot 0.485396
 8173         h1    306    ccc     H9   8173 0.05653400   1.008000   ; qtot 0.541930
 8174         h1    306    ccc    H10   8174 0.05653400   1.008000   ; qtot 0.598464
 8175         oh    306    ccc     O5   8175 -0.84113600  16.000000   ; qtot -0.242672
 8176         ho    306    ccc    H11   8176 0.51201600   1.008000   ; qtot 0.269344
 8177         os    306    ccc     O6   8177 -0.26013600  16.000000   ; qtot 0.009208
; residue  307 ccc rtp ccc q 0.0
 8178         c3    307    ccc     C1   8178 -0.33178800  12.010000   ; qtot -0.322580
 8179         c3    307    ccc     C2   8179 0.30606500  12.010000   ; qtot -0.016515
 8180         h1    307    ccc     H1   8180 0.11662300   1.008000   ; qtot 0.100108
 8181         h1    307    ccc     H2   8181 0.11526800   1.008000   ; qtot 0.215376
 8182         c3    307    ccc     C3   8182 0.15592700  12.010000   ; qtot 0.371303
 8183         c3    307    ccc     C4   8183 0.28383300  12.010000   ; qtot 0.655136
 8184         c3    307    ccc     C5   8184 0.32403300  12.010000   ; qtot 0.979169
 8185         h1    307    ccc     H3   8185 0.13386900   1.008000   ; qtot 1.113038
 8186         h1    307    ccc     H4   8186 0.10146700   1.008000   ; qtot 1.214505
 8187         h2    307    ccc     H5   8187 0.10960400   1.008000   ; qtot 1.324109
 8188         os    307    ccc     O1   8188 -0.28650000  16.000000   ; qtot 1.037609
 8189         oh    307    ccc     O2   8189 -0.86012500  16.000000   ; qtot 0.177484
 8190         oh    307    ccc     O3   8190 -0.83772800  16.000000   ; qtot -0.660244
 8191         oh    307    ccc     O4   8191 -0.77449700  16.000000   ; qtot -1.434741
 8192         c3    307    ccc     C6   8192 0.37576500  12.010000   ; qtot -1.058976
 8193         ho    307    ccc     H6   8193 0.53656000   1.008000   ; qtot -0.522416
 8194         ho    307    ccc     H7   8194 0.49492100   1.008000   ; qtot -0.027495
 8195         ho    307    ccc     H8   8195 0.51297200   1.008000   ; qtot 0.485477
 8196         h1    307    ccc     H9   8196 0.05653400   1.008000   ; qtot 0.542011
 8197         h1    307    ccc    H10   8197 0.05653400   1.008000   ; qtot 0.598545
 8198         oh    307    ccc     O5   8198 -0.84113600  16.000000   ; qtot -0.242591
 8199         ho    307    ccc    H11   8199 0.51201600   1.008000   ; qtot 0.269425
 8200         os    307    ccc     O6   8200 -0.26013600  16.000000   ; qtot 0.009289
; residue  308 ccc rtp ccc q 0.0
 8201         c3    308    ccc     C1   8201 -0.33178800  12.010000   ; qtot -0.322499
 8202         c3    308    ccc     C2   8202 0.30606500  12.010000   ; qtot -0.016434
 8203         h1    308    ccc     H1   8203 0.11662300   1.008000   ; qtot 0.100189
 8204         h1    308    ccc     H2   8204 0.11526800   1.008000   ; qtot 0.215457
 8205         c3    308    ccc     C3   8205 0.15592700  12.010000   ; qtot 0.371384
 8206         c3    308    ccc     C4   8206 0.28383300  12.010000   ; qtot 0.655217
 8207         c3    308    ccc     C5   8207 0.32403300  12.010000   ; qtot 0.979250
 8208         h1    308    ccc     H3   8208 0.13386900   1.008000   ; qtot 1.113119
 8209         h1    308    ccc     H4   8209 0.10146700   1.008000   ; qtot 1.214586
 8210         h2    308    ccc     H5   8210 0.10960400   1.008000   ; qtot 1.324190
 8211         os    308    ccc     O1   8211 -0.28650000  16.000000   ; qtot 1.037690
 8212         oh    308    ccc     O2   8212 -0.86012500  16.000000   ; qtot 0.177565
 8213         oh    308    ccc     O3   8213 -0.83772800  16.000000   ; qtot -0.660163
 8214         oh    308    ccc     O4   8214 -0.77449700  16.000000   ; qtot -1.434660
 8215         c3    308    ccc     C6   8215 0.37576500  12.010000   ; qtot -1.058895
 8216         ho    308    ccc     H6   8216 0.53656000   1.008000   ; qtot -0.522335
 8217         ho    308    ccc     H7   8217 0.49492100   1.008000   ; qtot -0.027414
 8218         ho    308    ccc     H8   8218 0.51297200   1.008000   ; qtot 0.485558
 8219         h1    308    ccc     H9   8219 0.05653400   1.008000   ; qtot 0.542092
 8220         h1    308    ccc    H10   8220 0.05653400   1.008000   ; qtot 0.598626
 8221         oh    308    ccc     O5   8221 -0.84113600  16.000000   ; qtot -0.242510
 8222         ho    308    ccc    H11   8222 0.51201600   1.008000   ; qtot 0.269506
 8223         os    308    ccc     O6   8223 -0.26013600  16.000000   ; qtot 0.009370
; residue  309 ccc rtp ccc q 0.0
 8224         c3    309    ccc     C1   8224 -0.33178800  12.010000   ; qtot -0.322418
 8225         c3    309    ccc     C2   8225 0.30606500  12.010000   ; qtot -0.016353
 8226         h1    309    ccc     H1   8226 0.11662300   1.008000   ; qtot 0.100270
 8227         h1    309    ccc     H2   8227 0.11526800   1.008000   ; qtot 0.215538
 8228         c3    309    ccc     C3   8228 0.15592700  12.010000   ; qtot 0.371465
 8229         c3    309    ccc     C4   8229 0.28383300  12.010000   ; qtot 0.655298
 8230         c3    309    ccc     C5   8230 0.32403300  12.010000   ; qtot 0.979331
 8231         h1    309    ccc     H3   8231 0.13386900   1.008000   ; qtot 1.113200
 8232         h1    309    ccc     H4   8232 0.10146700   1.008000   ; qtot 1.214667
 8233         h2    309    ccc     H5   8233 0.10960400   1.008000   ; qtot 1.324271
 8234         os    309    ccc     O1   8234 -0.28650000  16.000000   ; qtot 1.037771
 8235         oh    309    ccc     O2   8235 -0.86012500  16.000000   ; qtot 0.177646
 8236         oh    309    ccc     O3   8236 -0.83772800  16.000000   ; qtot -0.660082
 8237         oh    309    ccc     O4   8237 -0.77449700  16.000000   ; qtot -1.434579
 8238         c3    309    ccc     C6   8238 0.37576500  12.010000   ; qtot -1.058814
 8239         ho    309    ccc     H6   8239 0.53656000   1.008000   ; qtot -0.522254
 8240         ho    309    ccc     H7   8240 0.49492100   1.008000   ; qtot -0.027333
 8241         ho    309    ccc     H8   8241 0.51297200   1.008000   ; qtot 0.485639
 8242         h1    309    ccc     H9   8242 0.05653400   1.008000   ; qtot 0.542173
 8243         h1    309    ccc    H10   8243 0.05653400   1.008000   ; qtot 0.598707
 8244         oh    309    ccc     O5   8244 -0.84113600  16.000000   ; qtot -0.242429
 8245         ho    309    ccc    H11   8245 0.51201600   1.008000   ; qtot 0.269587
 8246         os    309    ccc     O6   8246 -0.26013600  16.000000   ; qtot 0.009451
; residue  310 ccc rtp ccc q 0.0
 8247         c3    310    ccc     C1   8247 -0.33178800  12.010000   ; qtot -0.322337
 8248         c3    310    ccc     C2   8248 0.30606500  12.010000   ; qtot -0.016272
 8249         h1    310    ccc     H1   8249 0.11662300   1.008000   ; qtot 0.100351
 8250         h1    310    ccc     H2   8250 0.11526800   1.008000   ; qtot 0.215619
 8251         c3    310    ccc     C3   8251 0.15592700  12.010000   ; qtot 0.371546
 8252         c3    310    ccc     C4   8252 0.28383300  12.010000   ; qtot 0.655379
 8253         c3    310    ccc     C5   8253 0.32403300  12.010000   ; qtot 0.979412
 8254         h1    310    ccc     H3   8254 0.13386900   1.008000   ; qtot 1.113281
 8255         h1    310    ccc     H4   8255 0.10146700   1.008000   ; qtot 1.214748
 8256         h2    310    ccc     H5   8256 0.10960400   1.008000   ; qtot 1.324352
 8257         os    310    ccc     O1   8257 -0.28650000  16.000000   ; qtot 1.037852
 8258         oh    310    ccc     O2   8258 -0.86012500  16.000000   ; qtot 0.177727
 8259         oh    310    ccc     O3   8259 -0.83772800  16.000000   ; qtot -0.660001
 8260         oh    310    ccc     O4   8260 -0.77449700  16.000000   ; qtot -1.434498
 8261         c3    310    ccc     C6   8261 0.37576500  12.010000   ; qtot -1.058733
 8262         ho    310    ccc     H6   8262 0.53656000   1.008000   ; qtot -0.522173
 8263         ho    310    ccc     H7   8263 0.49492100   1.008000   ; qtot -0.027252
 8264         ho    310    ccc     H8   8264 0.51297200   1.008000   ; qtot 0.485720
 8265         h1    310    ccc     H9   8265 0.05653400   1.008000   ; qtot 0.542254
 8266         h1    310    ccc    H10   8266 0.05653400   1.008000   ; qtot 0.598788
 8267         oh    310    ccc     O5   8267 -0.84113600  16.000000   ; qtot -0.242348
 8268         ho    310    ccc    H11   8268 0.51201600   1.008000   ; qtot 0.269668
 8269         os    310    ccc     O6   8269 -0.26013600  16.000000   ; qtot 0.009532
; residue  311 ccc rtp ccc q 0.0
 8270         c3    311    ccc     C1   8270 -0.33178800  12.010000   ; qtot -0.322256
 8271         c3    311    ccc     C2   8271 0.30606500  12.010000   ; qtot -0.016191
 8272         h1    311    ccc     H1   8272 0.11662300   1.008000   ; qtot 0.100432
 8273         h1    311    ccc     H2   8273 0.11526800   1.008000   ; qtot 0.215700
 8274         c3    311    ccc     C3   8274 0.15592700  12.010000   ; qtot 0.371627
 8275         c3    311    ccc     C4   8275 0.28383300  12.010000   ; qtot 0.655460
 8276         c3    311    ccc     C5   8276 0.32403300  12.010000   ; qtot 0.979493
 8277         h1    311    ccc     H3   8277 0.13386900   1.008000   ; qtot 1.113362
 8278         h1    311    ccc     H4   8278 0.10146700   1.008000   ; qtot 1.214829
 8279         h2    311    ccc     H5   8279 0.10960400   1.008000   ; qtot 1.324433
 8280         os    311    ccc     O1   8280 -0.28650000  16.000000   ; qtot 1.037933
 8281         oh    311    ccc     O2   8281 -0.86012500  16.000000   ; qtot 0.177808
 8282         oh    311    ccc     O3   8282 -0.83772800  16.000000   ; qtot -0.659920
 8283         oh    311    ccc     O4   8283 -0.77449700  16.000000   ; qtot -1.434417
 8284         c3    311    ccc     C6   8284 0.37576500  12.010000   ; qtot -1.058652
 8285         ho    311    ccc     H6   8285 0.53656000   1.008000   ; qtot -0.522092
 8286         ho    311    ccc     H7   8286 0.49492100   1.008000   ; qtot -0.027171
 8287         ho    311    ccc     H8   8287 0.51297200   1.008000   ; qtot 0.485801
 8288         h1    311    ccc     H9   8288 0.05653400   1.008000   ; qtot 0.542335
 8289         h1    311    ccc    H10   8289 0.05653400   1.008000   ; qtot 0.598869
 8290         oh    311    ccc     O5   8290 -0.84113600  16.000000   ; qtot -0.242267
 8291         ho    311    ccc    H11   8291 0.51201600   1.008000   ; qtot 0.269749
 8292         os    311    ccc     O6   8292 -0.26013600  16.000000   ; qtot 0.009613
; residue  312 ccc rtp ccc q 0.0
 8293         c3    312    ccc     C1   8293 -0.33178800  12.010000   ; qtot -0.322175
 8294         c3    312    ccc     C2   8294 0.30606500  12.010000   ; qtot -0.016110
 8295         h1    312    ccc     H1   8295 0.11662300   1.008000   ; qtot 0.100513
 8296         h1    312    ccc     H2   8296 0.11526800   1.008000   ; qtot 0.215781
 8297         c3    312    ccc     C3   8297 0.15592700  12.010000   ; qtot 0.371708
 8298         c3    312    ccc     C4   8298 0.28383300  12.010000   ; qtot 0.655541
 8299         c3    312    ccc     C5   8299 0.32403300  12.010000   ; qtot 0.979574
 8300         h1    312    ccc     H3   8300 0.13386900   1.008000   ; qtot 1.113443
 8301         h1    312    ccc     H4   8301 0.10146700   1.008000   ; qtot 1.214910
 8302         h2    312    ccc     H5   8302 0.10960400   1.008000   ; qtot 1.324514
 8303         os    312    ccc     O1   8303 -0.28650000  16.000000   ; qtot 1.038014
 8304         oh    312    ccc     O2   8304 -0.86012500  16.000000   ; qtot 0.177889
 8305         oh    312    ccc     O3   8305 -0.83772800  16.000000   ; qtot -0.659839
 8306         oh    312    ccc     O4   8306 -0.77449700  16.000000   ; qtot -1.434336
 8307         c3    312    ccc     C6   8307 0.37576500  12.010000   ; qtot -1.058571
 8308         ho    312    ccc     H6   8308 0.53656000   1.008000   ; qtot -0.522011
 8309         ho    312    ccc     H7   8309 0.49492100   1.008000   ; qtot -0.027090
 8310         ho    312    ccc     H8   8310 0.51297200   1.008000   ; qtot 0.485882
 8311         h1    312    ccc     H9   8311 0.05653400   1.008000   ; qtot 0.542416
 8312         h1    312    ccc    H10   8312 0.05653400   1.008000   ; qtot 0.598950
 8313         oh    312    ccc     O5   8313 -0.84113600  16.000000   ; qtot -0.242186
 8314         ho    312    ccc    H11   8314 0.51201600   1.008000   ; qtot 0.269830
 8315         os    312    ccc     O6   8315 -0.26013600  16.000000   ; qtot 0.009694
; residue  313 ccc rtp ccc q 0.0
 8316         c3    313    ccc     C1   8316 -0.33178800  12.010000   ; qtot -0.322094
 8317         c3    313    ccc     C2   8317 0.30606500  12.010000   ; qtot -0.016029
 8318         h1    313    ccc     H1   8318 0.11662300   1.008000   ; qtot 0.100594
 8319         h1    313    ccc     H2   8319 0.11526800   1.008000   ; qtot 0.215862
 8320         c3    313    ccc     C3   8320 0.15592700  12.010000   ; qtot 0.371789
 8321         c3    313    ccc     C4   8321 0.28383300  12.010000   ; qtot 0.655622
 8322         c3    313    ccc     C5   8322 0.32403300  12.010000   ; qtot 0.979655
 8323         h1    313    ccc     H3   8323 0.13386900   1.008000   ; qtot 1.113524
 8324         h1    313    ccc     H4   8324 0.10146700   1.008000   ; qtot 1.214991
 8325         h2    313    ccc     H5   8325 0.10960400   1.008000   ; qtot 1.324595
 8326         os    313    ccc     O1   8326 -0.28650000  16.000000   ; qtot 1.038095
 8327         oh    313    ccc     O2   8327 -0.86012500  16.000000   ; qtot 0.177970
 8328         oh    313    ccc     O3   8328 -0.83772800  16.000000   ; qtot -0.659758
 8329         oh    313    ccc     O4   8329 -0.77449700  16.000000   ; qtot -1.434255
 8330         c3    313    ccc     C6   8330 0.37576500  12.010000   ; qtot -1.058490
 8331         ho    313    ccc     H6   8331 0.53656000   1.008000   ; qtot -0.521930
 8332         ho    313    ccc     H7   8332 0.49492100   1.008000   ; qtot -0.027009
 8333         ho    313    ccc     H8   8333 0.51297200   1.008000   ; qtot 0.485963
 8334         h1    313    ccc     H9   8334 0.05653400   1.008000   ; qtot 0.542497
 8335         h1    313    ccc    H10   8335 0.05653400   1.008000   ; qtot 0.599031
 8336         oh    313    ccc     O5   8336 -0.84113600  16.000000   ; qtot -0.242105
 8337         ho    313    ccc    H11   8337 0.51201600   1.008000   ; qtot 0.269911
 8338         os    313    ccc     O6   8338 -0.26013600  16.000000   ; qtot 0.009775
; residue  314 ccc rtp ccc q 0.0
 8339         c3    314    ccc     C1   8339 -0.33178800  12.010000   ; qtot -0.322013
 8340         c3    314    ccc     C2   8340 0.30606500  12.010000   ; qtot -0.015948
 8341         h1    314    ccc     H1   8341 0.11662300   1.008000   ; qtot 0.100675
 8342         h1    314    ccc     H2   8342 0.11526800   1.008000   ; qtot 0.215943
 8343         c3    314    ccc     C3   8343 0.15592700  12.010000   ; qtot 0.371870
 8344         c3    314    ccc     C4   8344 0.28383300  12.010000   ; qtot 0.655703
 8345         c3    314    ccc     C5   8345 0.32403300  12.010000   ; qtot 0.979736
 8346         h1    314    ccc     H3   8346 0.13386900   1.008000   ; qtot 1.113605
 8347         h1    314    ccc     H4   8347 0.10146700   1.008000   ; qtot 1.215072
 8348         h2    314    ccc     H5   8348 0.10960400   1.008000   ; qtot 1.324676
 8349         os    314    ccc     O1   8349 -0.28650000  16.000000   ; qtot 1.038176
 8350         oh    314    ccc     O2   8350 -0.86012500  16.000000   ; qtot 0.178051
 8351         oh    314    ccc     O3   8351 -0.83772800  16.000000   ; qtot -0.659677
 8352         oh    314    ccc     O4   8352 -0.77449700  16.000000   ; qtot -1.434174
 8353         c3    314    ccc     C6   8353 0.37576500  12.010000   ; qtot -1.058409
 8354         ho    314    ccc     H6   8354 0.53656000   1.008000   ; qtot -0.521849
 8355         ho    314    ccc     H7   8355 0.49492100   1.008000   ; qtot -0.026928
 8356         ho    314    ccc     H8   8356 0.51297200   1.008000   ; qtot 0.486044
 8357         h1    314    ccc     H9   8357 0.05653400   1.008000   ; qtot 0.542578
 8358         h1    314    ccc    H10   8358 0.05653400   1.008000   ; qtot 0.599112
 8359         oh    314    ccc     O5   8359 -0.84113600  16.000000   ; qtot -0.242024
 8360         ho    314    ccc    H11   8360 0.51201600   1.008000   ; qtot 0.269992
 8361         os    314    ccc     O6   8361 -0.26013600  16.000000   ; qtot 0.009856
; residue  315 ccc rtp ccc q 0.0
 8362         c3    315    ccc     C1   8362 -0.33178800  12.010000   ; qtot -0.321932
 8363         c3    315    ccc     C2   8363 0.30606500  12.010000   ; qtot -0.015867
 8364         h1    315    ccc     H1   8364 0.11662300   1.008000   ; qtot 0.100756
 8365         h1    315    ccc     H2   8365 0.11526800   1.008000   ; qtot 0.216024
 8366         c3    315    ccc     C3   8366 0.15592700  12.010000   ; qtot 0.371951
 8367         c3    315    ccc     C4   8367 0.28383300  12.010000   ; qtot 0.655784
 8368         c3    315    ccc     C5   8368 0.32403300  12.010000   ; qtot 0.979817
 8369         h1    315    ccc     H3   8369 0.13386900   1.008000   ; qtot 1.113686
 8370         h1    315    ccc     H4   8370 0.10146700   1.008000   ; qtot 1.215153
 8371         h2    315    ccc     H5   8371 0.10960400   1.008000   ; qtot 1.324757
 8372         os    315    ccc     O1   8372 -0.28650000  16.000000   ; qtot 1.038257
 8373         oh    315    ccc     O2   8373 -0.86012500  16.000000   ; qtot 0.178132
 8374         oh    315    ccc     O3   8374 -0.83772800  16.000000   ; qtot -0.659596
 8375         oh    315    ccc     O4   8375 -0.77449700  16.000000   ; qtot -1.434093
 8376         c3    315    ccc     C6   8376 0.37576500  12.010000   ; qtot -1.058328
 8377         ho    315    ccc     H6   8377 0.53656000   1.008000   ; qtot -0.521768
 8378         ho    315    ccc     H7   8378 0.49492100   1.008000   ; qtot -0.026847
 8379         ho    315    ccc     H8   8379 0.51297200   1.008000   ; qtot 0.486125
 8380         h1    315    ccc     H9   8380 0.05653400   1.008000   ; qtot 0.542659
 8381         h1    315    ccc    H10   8381 0.05653400   1.008000   ; qtot 0.599193
 8382         oh    315    ccc     O5   8382 -0.84113600  16.000000   ; qtot -0.241943
 8383         ho    315    ccc    H11   8383 0.51201600   1.008000   ; qtot 0.270073
 8384         os    315    ccc     O6   8384 -0.26013600  16.000000   ; qtot 0.009937
; residue  316 ccc rtp ccc q 0.0
 8385         c3    316    ccc     C1   8385 -0.33178800  12.010000   ; qtot -0.321851
 8386         c3    316    ccc     C2   8386 0.30606500  12.010000   ; qtot -0.015786
 8387         h1    316    ccc     H1   8387 0.11662300   1.008000   ; qtot 0.100837
 8388         h1    316    ccc     H2   8388 0.11526800   1.008000   ; qtot 0.216105
 8389         c3    316    ccc     C3   8389 0.15592700  12.010000   ; qtot 0.372032
 8390         c3    316    ccc     C4   8390 0.28383300  12.010000   ; qtot 0.655865
 8391         c3    316    ccc     C5   8391 0.32403300  12.010000   ; qtot 0.979898
 8392         h1    316    ccc     H3   8392 0.13386900   1.008000   ; qtot 1.113767
 8393         h1    316    ccc     H4   8393 0.10146700   1.008000   ; qtot 1.215234
 8394         h2    316    ccc     H5   8394 0.10960400   1.008000   ; qtot 1.324838
 8395         os    316    ccc     O1   8395 -0.28650000  16.000000   ; qtot 1.038338
 8396         oh    316    ccc     O2   8396 -0.86012500  16.000000   ; qtot 0.178213
 8397         oh    316    ccc     O3   8397 -0.83772800  16.000000   ; qtot -0.659515
 8398         oh    316    ccc     O4   8398 -0.77449700  16.000000   ; qtot -1.434012
 8399         c3    316    ccc     C6   8399 0.37576500  12.010000   ; qtot -1.058247
 8400         ho    316    ccc     H6   8400 0.53656000   1.008000   ; qtot -0.521687
 8401         ho    316    ccc     H7   8401 0.49492100   1.008000   ; qtot -0.026766
 8402         ho    316    ccc     H8   8402 0.51297200   1.008000   ; qtot 0.486206
 8403         h1    316    ccc     H9   8403 0.05653400   1.008000   ; qtot 0.542740
 8404         h1    316    ccc    H10   8404 0.05653400   1.008000   ; qtot 0.599274
 8405         oh    316    ccc     O5   8405 -0.84113600  16.000000   ; qtot -0.241862
 8406         ho    316    ccc    H11   8406 0.51201600   1.008000   ; qtot 0.270154
 8407         os    316    ccc     O6   8407 -0.26013600  16.000000   ; qtot 0.010018
; residue  317 ccc rtp ccc q 0.0
 8408         c3    317    ccc     C1   8408 -0.33178800  12.010000   ; qtot -0.321770
 8409         c3    317    ccc     C2   8409 0.30606500  12.010000   ; qtot -0.015705
 8410         h1    317    ccc     H1   8410 0.11662300   1.008000   ; qtot 0.100918
 8411         h1    317    ccc     H2   8411 0.11526800   1.008000   ; qtot 0.216186
 8412         c3    317    ccc     C3   8412 0.15592700  12.010000   ; qtot 0.372113
 8413         c3    317    ccc     C4   8413 0.28383300  12.010000   ; qtot 0.655946
 8414         c3    317    ccc     C5   8414 0.32403300  12.010000   ; qtot 0.979979
 8415         h1    317    ccc     H3   8415 0.13386900   1.008000   ; qtot 1.113848
 8416         h1    317    ccc     H4   8416 0.10146700   1.008000   ; qtot 1.215315
 8417         h2    317    ccc     H5   8417 0.10960400   1.008000   ; qtot 1.324919
 8418         os    317    ccc     O1   8418 -0.28650000  16.000000   ; qtot 1.038419
 8419         oh    317    ccc     O2   8419 -0.86012500  16.000000   ; qtot 0.178294
 8420         oh    317    ccc     O3   8420 -0.83772800  16.000000   ; qtot -0.659434
 8421         oh    317    ccc     O4   8421 -0.77449700  16.000000   ; qtot -1.433931
 8422         c3    317    ccc     C6   8422 0.37576500  12.010000   ; qtot -1.058166
 8423         ho    317    ccc     H6   8423 0.53656000   1.008000   ; qtot -0.521606
 8424         ho    317    ccc     H7   8424 0.49492100   1.008000   ; qtot -0.026685
 8425         ho    317    ccc     H8   8425 0.51297200   1.008000   ; qtot 0.486287
 8426         h1    317    ccc     H9   8426 0.05653400   1.008000   ; qtot 0.542821
 8427         h1    317    ccc    H10   8427 0.05653400   1.008000   ; qtot 0.599355
 8428         oh    317    ccc     O5   8428 -0.84113600  16.000000   ; qtot -0.241781
 8429         ho    317    ccc    H11   8429 0.51201600   1.008000   ; qtot 0.270235
 8430         os    317    ccc     O6   8430 -0.26013600  16.000000   ; qtot 0.010099
; residue  318 ccc rtp ccc q 0.0
 8431         c3    318    ccc     C1   8431 -0.33178800  12.010000   ; qtot -0.321689
 8432         c3    318    ccc     C2   8432 0.30606500  12.010000   ; qtot -0.015624
 8433         h1    318    ccc     H1   8433 0.11662300   1.008000   ; qtot 0.100999
 8434         h1    318    ccc     H2   8434 0.11526800   1.008000   ; qtot 0.216267
 8435         c3    318    ccc     C3   8435 0.15592700  12.010000   ; qtot 0.372194
 8436         c3    318    ccc     C4   8436 0.28383300  12.010000   ; qtot 0.656027
 8437         c3    318    ccc     C5   8437 0.32403300  12.010000   ; qtot 0.980060
 8438         h1    318    ccc     H3   8438 0.13386900   1.008000   ; qtot 1.113929
 8439         h1    318    ccc     H4   8439 0.10146700   1.008000   ; qtot 1.215396
 8440         h2    318    ccc     H5   8440 0.10960400   1.008000   ; qtot 1.325000
 8441         os    318    ccc     O1   8441 -0.28650000  16.000000   ; qtot 1.038500
 8442         oh    318    ccc     O2   8442 -0.86012500  16.000000   ; qtot 0.178375
 8443         oh    318    ccc     O3   8443 -0.83772800  16.000000   ; qtot -0.659353
 8444         oh    318    ccc     O4   8444 -0.77449700  16.000000   ; qtot -1.433850
 8445         c3    318    ccc     C6   8445 0.37576500  12.010000   ; qtot -1.058085
 8446         ho    318    ccc     H6   8446 0.53656000   1.008000   ; qtot -0.521525
 8447         ho    318    ccc     H7   8447 0.49492100   1.008000   ; qtot -0.026604
 8448         ho    318    ccc     H8   8448 0.51297200   1.008000   ; qtot 0.486368
 8449         h1    318    ccc     H9   8449 0.05653400   1.008000   ; qtot 0.542902
 8450         h1    318    ccc    H10   8450 0.05653400   1.008000   ; qtot 0.599436
 8451         oh    318    ccc     O5   8451 -0.84113600  16.000000   ; qtot -0.241700
 8452         ho    318    ccc    H11   8452 0.51201600   1.008000   ; qtot 0.270316
 8453         os    318    ccc     O6   8453 -0.26013600  16.000000   ; qtot 0.010180
; residue  319 ccc rtp ccc q 0.0
 8454         c3    319    ccc     C1   8454 -0.33178800  12.010000   ; qtot -0.321608
 8455         c3    319    ccc     C2   8455 0.30606500  12.010000   ; qtot -0.015543
 8456         h1    319    ccc     H1   8456 0.11662300   1.008000   ; qtot 0.101080
 8457         h1    319    ccc     H2   8457 0.11526800   1.008000   ; qtot 0.216348
 8458         c3    319    ccc     C3   8458 0.15592700  12.010000   ; qtot 0.372275
 8459         c3    319    ccc     C4   8459 0.28383300  12.010000   ; qtot 0.656108
 8460         c3    319    ccc     C5   8460 0.32403300  12.010000   ; qtot 0.980141
 8461         h1    319    ccc     H3   8461 0.13386900   1.008000   ; qtot 1.114010
 8462         h1    319    ccc     H4   8462 0.10146700   1.008000   ; qtot 1.215477
 8463         h2    319    ccc     H5   8463 0.10960400   1.008000   ; qtot 1.325081
 8464         os    319    ccc     O1   8464 -0.28650000  16.000000   ; qtot 1.038581
 8465         oh    319    ccc     O2   8465 -0.86012500  16.000000   ; qtot 0.178456
 8466         oh    319    ccc     O3   8466 -0.83772800  16.000000   ; qtot -0.659272
 8467         oh    319    ccc     O4   8467 -0.77449700  16.000000   ; qtot -1.433769
 8468         c3    319    ccc     C6   8468 0.37576500  12.010000   ; qtot -1.058004
 8469         ho    319    ccc     H6   8469 0.53656000   1.008000   ; qtot -0.521444
 8470         ho    319    ccc     H7   8470 0.49492100   1.008000   ; qtot -0.026523
 8471         ho    319    ccc     H8   8471 0.51297200   1.008000   ; qtot 0.486449
 8472         h1    319    ccc     H9   8472 0.05653400   1.008000   ; qtot 0.542983
 8473         h1    319    ccc    H10   8473 0.05653400   1.008000   ; qtot 0.599517
 8474         oh    319    ccc     O5   8474 -0.84113600  16.000000   ; qtot -0.241619
 8475         ho    319    ccc    H11   8475 0.51201600   1.008000   ; qtot 0.270397
 8476         os    319    ccc     O6   8476 -0.26013600  16.000000   ; qtot 0.010261
; residue  320 ccc rtp ccc q 0.0
 8477         c3    320    ccc     C1   8477 -0.33178800  12.010000   ; qtot -0.321527
 8478         c3    320    ccc     C2   8478 0.30606500  12.010000   ; qtot -0.015462
 8479         h1    320    ccc     H1   8479 0.11662300   1.008000   ; qtot 0.101161
 8480         h1    320    ccc     H2   8480 0.11526800   1.008000   ; qtot 0.216429
 8481         c3    320    ccc     C3   8481 0.15592700  12.010000   ; qtot 0.372356
 8482         c3    320    ccc     C4   8482 0.28383300  12.010000   ; qtot 0.656189
 8483         c3    320    ccc     C5   8483 0.32403300  12.010000   ; qtot 0.980222
 8484         h1    320    ccc     H3   8484 0.13386900   1.008000   ; qtot 1.114091
 8485         h1    320    ccc     H4   8485 0.10146700   1.008000   ; qtot 1.215558
 8486         h2    320    ccc     H5   8486 0.10960400   1.008000   ; qtot 1.325162
 8487         os    320    ccc     O1   8487 -0.28650000  16.000000   ; qtot 1.038662
 8488         oh    320    ccc     O2   8488 -0.86012500  16.000000   ; qtot 0.178537
 8489         oh    320    ccc     O3   8489 -0.83772800  16.000000   ; qtot -0.659191
 8490         oh    320    ccc     O4   8490 -0.77449700  16.000000   ; qtot -1.433688
 8491         c3    320    ccc     C6   8491 0.37576500  12.010000   ; qtot -1.057923
 8492         ho    320    ccc     H6   8492 0.53656000   1.008000   ; qtot -0.521363
 8493         ho    320    ccc     H7   8493 0.49492100   1.008000   ; qtot -0.026442
 8494         ho    320    ccc     H8   8494 0.51297200   1.008000   ; qtot 0.486530
 8495         h1    320    ccc     H9   8495 0.05653400   1.008000   ; qtot 0.543064
 8496         h1    320    ccc    H10   8496 0.05653400   1.008000   ; qtot 0.599598
 8497         oh    320    ccc     O5   8497 -0.84113600  16.000000   ; qtot -0.241538
 8498         ho    320    ccc    H11   8498 0.51201600   1.008000   ; qtot 0.270478
 8499         os    320    ccc     O6   8499 -0.26013600  16.000000   ; qtot 0.010342
; residue  321 ccc rtp ccc q 0.0
 8500         c3    321    ccc     C1   8500 -0.33178800  12.010000   ; qtot -0.321446
 8501         c3    321    ccc     C2   8501 0.30606500  12.010000   ; qtot -0.015381
 8502         h1    321    ccc     H1   8502 0.11662300   1.008000   ; qtot 0.101242
 8503         h1    321    ccc     H2   8503 0.11526800   1.008000   ; qtot 0.216510
 8504         c3    321    ccc     C3   8504 0.15592700  12.010000   ; qtot 0.372437
 8505         c3    321    ccc     C4   8505 0.28383300  12.010000   ; qtot 0.656270
 8506         c3    321    ccc     C5   8506 0.32403300  12.010000   ; qtot 0.980303
 8507         h1    321    ccc     H3   8507 0.13386900   1.008000   ; qtot 1.114172
 8508         h1    321    ccc     H4   8508 0.10146700   1.008000   ; qtot 1.215639
 8509         h2    321    ccc     H5   8509 0.10960400   1.008000   ; qtot 1.325243
 8510         os    321    ccc     O1   8510 -0.28650000  16.000000   ; qtot 1.038743
 8511         oh    321    ccc     O2   8511 -0.86012500  16.000000   ; qtot 0.178618
 8512         oh    321    ccc     O3   8512 -0.83772800  16.000000   ; qtot -0.659110
 8513         oh    321    ccc     O4   8513 -0.77449700  16.000000   ; qtot -1.433607
 8514         c3    321    ccc     C6   8514 0.37576500  12.010000   ; qtot -1.057842
 8515         ho    321    ccc     H6   8515 0.53656000   1.008000   ; qtot -0.521282
 8516         ho    321    ccc     H7   8516 0.49492100   1.008000   ; qtot -0.026361
 8517         ho    321    ccc     H8   8517 0.51297200   1.008000   ; qtot 0.486611
 8518         h1    321    ccc     H9   8518 0.05653400   1.008000   ; qtot 0.543145
 8519         h1    321    ccc    H10   8519 0.05653400   1.008000   ; qtot 0.599679
 8520         oh    321    ccc     O5   8520 -0.84113600  16.000000   ; qtot -0.241457
 8521         ho    321    ccc    H11   8521 0.51201600   1.008000   ; qtot 0.270559
 8522         os    321    ccc     O6   8522 -0.26013600  16.000000   ; qtot 0.010423
; residue  322 ccc rtp ccc q 0.0
 8523         c3    322    ccc     C1   8523 -0.33178800  12.010000   ; qtot -0.321365
 8524         c3    322    ccc     C2   8524 0.30606500  12.010000   ; qtot -0.015300
 8525         h1    322    ccc     H1   8525 0.11662300   1.008000   ; qtot 0.101323
 8526         h1    322    ccc     H2   8526 0.11526800   1.008000   ; qtot 0.216591
 8527         c3    322    ccc     C3   8527 0.15592700  12.010000   ; qtot 0.372518
 8528         c3    322    ccc     C4   8528 0.28383300  12.010000   ; qtot 0.656351
 8529         c3    322    ccc     C5   8529 0.32403300  12.010000   ; qtot 0.980384
 8530         h1    322    ccc     H3   8530 0.13386900   1.008000   ; qtot 1.114253
 8531         h1    322    ccc     H4   8531 0.10146700   1.008000   ; qtot 1.215720
 8532         h2    322    ccc     H5   8532 0.10960400   1.008000   ; qtot 1.325324
 8533         os    322    ccc     O1   8533 -0.28650000  16.000000   ; qtot 1.038824
 8534         oh    322    ccc     O2   8534 -0.86012500  16.000000   ; qtot 0.178699
 8535         oh    322    ccc     O3   8535 -0.83772800  16.000000   ; qtot -0.659029
 8536         oh    322    ccc     O4   8536 -0.77449700  16.000000   ; qtot -1.433526
 8537         c3    322    ccc     C6   8537 0.37576500  12.010000   ; qtot -1.057761
 8538         ho    322    ccc     H6   8538 0.53656000   1.008000   ; qtot -0.521201
 8539         ho    322    ccc     H7   8539 0.49492100   1.008000   ; qtot -0.026280
 8540         ho    322    ccc     H8   8540 0.51297200   1.008000   ; qtot 0.486692
 8541         h1    322    ccc     H9   8541 0.05653400   1.008000   ; qtot 0.543226
 8542         h1    322    ccc    H10   8542 0.05653400   1.008000   ; qtot 0.599760
 8543         oh    322    ccc     O5   8543 -0.84113600  16.000000   ; qtot -0.241376
 8544         ho    322    ccc    H11   8544 0.51201600   1.008000   ; qtot 0.270640
 8545         os    322    ccc     O6   8545 -0.26013600  16.000000   ; qtot 0.010504
; residue  323 ccc rtp ccc q 0.0
 8546         c3    323    ccc     C1   8546 -0.33178800  12.010000   ; qtot -0.321284
 8547         c3    323    ccc     C2   8547 0.30606500  12.010000   ; qtot -0.015219
 8548         h1    323    ccc     H1   8548 0.11662300   1.008000   ; qtot 0.101404
 8549         h1    323    ccc     H2   8549 0.11526800   1.008000   ; qtot 0.216672
 8550         c3    323    ccc     C3   8550 0.15592700  12.010000   ; qtot 0.372599
 8551         c3    323    ccc     C4   8551 0.28383300  12.010000   ; qtot 0.656432
 8552         c3    323    ccc     C5   8552 0.32403300  12.010000   ; qtot 0.980465
 8553         h1    323    ccc     H3   8553 0.13386900   1.008000   ; qtot 1.114334
 8554         h1    323    ccc     H4   8554 0.10146700   1.008000   ; qtot 1.215801
 8555         h2    323    ccc     H5   8555 0.10960400   1.008000   ; qtot 1.325405
 8556         os    323    ccc     O1   8556 -0.28650000  16.000000   ; qtot 1.038905
 8557         oh    323    ccc     O2   8557 -0.86012500  16.000000   ; qtot 0.178780
 8558         oh    323    ccc     O3   8558 -0.83772800  16.000000   ; qtot -0.658948
 8559         oh    323    ccc     O4   8559 -0.77449700  16.000000   ; qtot -1.433445
 8560         c3    323    ccc     C6   8560 0.37576500  12.010000   ; qtot -1.057680
 8561         ho    323    ccc     H6   8561 0.53656000   1.008000   ; qtot -0.521120
 8562         ho    323    ccc     H7   8562 0.49492100   1.008000   ; qtot -0.026199
 8563         ho    323    ccc     H8   8563 0.51297200   1.008000   ; qtot 0.486773
 8564         h1    323    ccc     H9   8564 0.05653400   1.008000   ; qtot 0.543307
 8565         h1    323    ccc    H10   8565 0.05653400   1.008000   ; qtot 0.599841
 8566         oh    323    ccc     O5   8566 -0.84113600  16.000000   ; qtot -0.241295
 8567         ho    323    ccc    H11   8567 0.51201600   1.008000   ; qtot 0.270721
 8568         os    323    ccc     O6   8568 -0.26013600  16.000000   ; qtot 0.010585
; residue  324 ccc rtp ccc q 0.0
 8569         c3    324    ccc     C1   8569 -0.33178800  12.010000   ; qtot -0.321203
 8570         c3    324    ccc     C2   8570 0.30606500  12.010000   ; qtot -0.015138
 8571         h1    324    ccc     H1   8571 0.11662300   1.008000   ; qtot 0.101485
 8572         h1    324    ccc     H2   8572 0.11526800   1.008000   ; qtot 0.216753
 8573         c3    324    ccc     C3   8573 0.15592700  12.010000   ; qtot 0.372680
 8574         c3    324    ccc     C4   8574 0.28383300  12.010000   ; qtot 0.656513
 8575         c3    324    ccc     C5   8575 0.32403300  12.010000   ; qtot 0.980546
 8576         h1    324    ccc     H3   8576 0.13386900   1.008000   ; qtot 1.114415
 8577         h1    324    ccc     H4   8577 0.10146700   1.008000   ; qtot 1.215882
 8578         h2    324    ccc     H5   8578 0.10960400   1.008000   ; qtot 1.325486
 8579         os    324    ccc     O1   8579 -0.28650000  16.000000   ; qtot 1.038986
 8580         oh    324    ccc     O2   8580 -0.86012500  16.000000   ; qtot 0.178861
 8581         oh    324    ccc     O3   8581 -0.83772800  16.000000   ; qtot -0.658867
 8582         oh    324    ccc     O4   8582 -0.77449700  16.000000   ; qtot -1.433364
 8583         c3    324    ccc     C6   8583 0.37576500  12.010000   ; qtot -1.057599
 8584         ho    324    ccc     H6   8584 0.53656000   1.008000   ; qtot -0.521039
 8585         ho    324    ccc     H7   8585 0.49492100   1.008000   ; qtot -0.026118
 8586         ho    324    ccc     H8   8586 0.51297200   1.008000   ; qtot 0.486854
 8587         h1    324    ccc     H9   8587 0.05653400   1.008000   ; qtot 0.543388
 8588         h1    324    ccc    H10   8588 0.05653400   1.008000   ; qtot 0.599922
 8589         oh    324    ccc     O5   8589 -0.84113600  16.000000   ; qtot -0.241214
 8590         ho    324    ccc    H11   8590 0.51201600   1.008000   ; qtot 0.270802
 8591         os    324    ccc     O6   8591 -0.26013600  16.000000   ; qtot 0.010666
; residue  325 ccc rtp ccc q 0.0
 8592         c3    325    ccc     C1   8592 -0.33178800  12.010000   ; qtot -0.321122
 8593         c3    325    ccc     C2   8593 0.30606500  12.010000   ; qtot -0.015057
 8594         h1    325    ccc     H1   8594 0.11662300   1.008000   ; qtot 0.101566
 8595         h1    325    ccc     H2   8595 0.11526800   1.008000   ; qtot 0.216834
 8596         c3    325    ccc     C3   8596 0.15592700  12.010000   ; qtot 0.372761
 8597         c3    325    ccc     C4   8597 0.28383300  12.010000   ; qtot 0.656594
 8598         c3    325    ccc     C5   8598 0.32403300  12.010000   ; qtot 0.980627
 8599         h1    325    ccc     H3   8599 0.13386900   1.008000   ; qtot 1.114496
 8600         h1    325    ccc     H4   8600 0.10146700   1.008000   ; qtot 1.215963
 8601         h2    325    ccc     H5   8601 0.10960400   1.008000   ; qtot 1.325567
 8602         os    325    ccc     O1   8602 -0.28650000  16.000000   ; qtot 1.039067
 8603         oh    325    ccc     O2   8603 -0.86012500  16.000000   ; qtot 0.178942
 8604         oh    325    ccc     O3   8604 -0.83772800  16.000000   ; qtot -0.658786
 8605         oh    325    ccc     O4   8605 -0.77449700  16.000000   ; qtot -1.433283
 8606         c3    325    ccc     C6   8606 0.37576500  12.010000   ; qtot -1.057518
 8607         ho    325    ccc     H6   8607 0.53656000   1.008000   ; qtot -0.520958
 8608         ho    325    ccc     H7   8608 0.49492100   1.008000   ; qtot -0.026037
 8609         ho    325    ccc     H8   8609 0.51297200   1.008000   ; qtot 0.486935
 8610         h1    325    ccc     H9   8610 0.05653400   1.008000   ; qtot 0.543469
 8611         h1    325    ccc    H10   8611 0.05653400   1.008000   ; qtot 0.600003
 8612         oh    325    ccc     O5   8612 -0.84113600  16.000000   ; qtot -0.241133
 8613         ho    325    ccc    H11   8613 0.51201600   1.008000   ; qtot 0.270883
 8614         os    325    ccc     O6   8614 -0.26013600  16.000000   ; qtot 0.010747
; residue  326 ccc rtp ccc q 0.0
 8615         c3    326    ccc     C1   8615 -0.33178800  12.010000   ; qtot -0.321041
 8616         c3    326    ccc     C2   8616 0.30606500  12.010000   ; qtot -0.014976
 8617         h1    326    ccc     H1   8617 0.11662300   1.008000   ; qtot 0.101647
 8618         h1    326    ccc     H2   8618 0.11526800   1.008000   ; qtot 0.216915
 8619         c3    326    ccc     C3   8619 0.15592700  12.010000   ; qtot 0.372842
 8620         c3    326    ccc     C4   8620 0.28383300  12.010000   ; qtot 0.656675
 8621         c3    326    ccc     C5   8621 0.32403300  12.010000   ; qtot 0.980708
 8622         h1    326    ccc     H3   8622 0.13386900   1.008000   ; qtot 1.114577
 8623         h1    326    ccc     H4   8623 0.10146700   1.008000   ; qtot 1.216044
 8624         h2    326    ccc     H5   8624 0.10960400   1.008000   ; qtot 1.325648
 8625         os    326    ccc     O1   8625 -0.28650000  16.000000   ; qtot 1.039148
 8626         oh    326    ccc     O2   8626 -0.86012500  16.000000   ; qtot 0.179023
 8627         oh    326    ccc     O3   8627 -0.83772800  16.000000   ; qtot -0.658705
 8628         oh    326    ccc     O4   8628 -0.77449700  16.000000   ; qtot -1.433202
 8629         c3    326    ccc     C6   8629 0.37576500  12.010000   ; qtot -1.057437
 8630         ho    326    ccc     H6   8630 0.53656000   1.008000   ; qtot -0.520877
 8631         ho    326    ccc     H7   8631 0.49492100   1.008000   ; qtot -0.025956
 8632         ho    326    ccc     H8   8632 0.51297200   1.008000   ; qtot 0.487016
 8633         h1    326    ccc     H9   8633 0.05653400   1.008000   ; qtot 0.543550
 8634         h1    326    ccc    H10   8634 0.05653400   1.008000   ; qtot 0.600084
 8635         oh    326    ccc     O5   8635 -0.84113600  16.000000   ; qtot -0.241052
 8636         ho    326    ccc    H11   8636 0.51201600   1.008000   ; qtot 0.270964
 8637         os    326    ccc     O6   8637 -0.26013600  16.000000   ; qtot 0.010828
; residue  327 ccc rtp ccc q 0.0
 8638         c3    327    ccc     C1   8638 -0.33178800  12.010000   ; qtot -0.320960
 8639         c3    327    ccc     C2   8639 0.30606500  12.010000   ; qtot -0.014895
 8640         h1    327    ccc     H1   8640 0.11662300   1.008000   ; qtot 0.101728
 8641         h1    327    ccc     H2   8641 0.11526800   1.008000   ; qtot 0.216996
 8642         c3    327    ccc     C3   8642 0.15592700  12.010000   ; qtot 0.372923
 8643         c3    327    ccc     C4   8643 0.28383300  12.010000   ; qtot 0.656756
 8644         c3    327    ccc     C5   8644 0.32403300  12.010000   ; qtot 0.980789
 8645         h1    327    ccc     H3   8645 0.13386900   1.008000   ; qtot 1.114658
 8646         h1    327    ccc     H4   8646 0.10146700   1.008000   ; qtot 1.216125
 8647         h2    327    ccc     H5   8647 0.10960400   1.008000   ; qtot 1.325729
 8648         os    327    ccc     O1   8648 -0.28650000  16.000000   ; qtot 1.039229
 8649         oh    327    ccc     O2   8649 -0.86012500  16.000000   ; qtot 0.179104
 8650         oh    327    ccc     O3   8650 -0.83772800  16.000000   ; qtot -0.658624
 8651         oh    327    ccc     O4   8651 -0.77449700  16.000000   ; qtot -1.433121
 8652         c3    327    ccc     C6   8652 0.37576500  12.010000   ; qtot -1.057356
 8653         ho    327    ccc     H6   8653 0.53656000   1.008000   ; qtot -0.520796
 8654         ho    327    ccc     H7   8654 0.49492100   1.008000   ; qtot -0.025875
 8655         ho    327    ccc     H8   8655 0.51297200   1.008000   ; qtot 0.487097
 8656         h1    327    ccc     H9   8656 0.05653400   1.008000   ; qtot 0.543631
 8657         h1    327    ccc    H10   8657 0.05653400   1.008000   ; qtot 0.600165
 8658         oh    327    ccc     O5   8658 -0.84113600  16.000000   ; qtot -0.240971
 8659         ho    327    ccc    H11   8659 0.51201600   1.008000   ; qtot 0.271045
 8660         os    327    ccc     O6   8660 -0.26013600  16.000000   ; qtot 0.010909
; residue  328 ccc rtp ccc q 0.0
 8661         c3    328    ccc     C1   8661 -0.33178800  12.010000   ; qtot -0.320879
 8662         c3    328    ccc     C2   8662 0.30606500  12.010000   ; qtot -0.014814
 8663         h1    328    ccc     H1   8663 0.11662300   1.008000   ; qtot 0.101809
 8664         h1    328    ccc     H2   8664 0.11526800   1.008000   ; qtot 0.217077
 8665         c3    328    ccc     C3   8665 0.15592700  12.010000   ; qtot 0.373004
 8666         c3    328    ccc     C4   8666 0.28383300  12.010000   ; qtot 0.656837
 8667         c3    328    ccc     C5   8667 0.32403300  12.010000   ; qtot 0.980870
 8668         h1    328    ccc     H3   8668 0.13386900   1.008000   ; qtot 1.114739
 8669         h1    328    ccc     H4   8669 0.10146700   1.008000   ; qtot 1.216206
 8670         h2    328    ccc     H5   8670 0.10960400   1.008000   ; qtot 1.325810
 8671         os    328    ccc     O1   8671 -0.28650000  16.000000   ; qtot 1.039310
 8672         oh    328    ccc     O2   8672 -0.86012500  16.000000   ; qtot 0.179185
 8673         oh    328    ccc     O3   8673 -0.83772800  16.000000   ; qtot -0.658543
 8674         oh    328    ccc     O4   8674 -0.77449700  16.000000   ; qtot -1.433040
 8675         c3    328    ccc     C6   8675 0.37576500  12.010000   ; qtot -1.057275
 8676         ho    328    ccc     H6   8676 0.53656000   1.008000   ; qtot -0.520715
 8677         ho    328    ccc     H7   8677 0.49492100   1.008000   ; qtot -0.025794
 8678         ho    328    ccc     H8   8678 0.51297200   1.008000   ; qtot 0.487178
 8679         h1    328    ccc     H9   8679 0.05653400   1.008000   ; qtot 0.543712
 8680         h1    328    ccc    H10   8680 0.05653400   1.008000   ; qtot 0.600246
 8681         oh    328    ccc     O5   8681 -0.84113600  16.000000   ; qtot -0.240890
 8682         ho    328    ccc    H11   8682 0.51201600   1.008000   ; qtot 0.271126
 8683         os    328    ccc     O6   8683 -0.26013600  16.000000   ; qtot 0.010990
; residue  329 ccc rtp ccc q 0.0
 8684         c3    329    ccc     C1   8684 -0.33178800  12.010000   ; qtot -0.320798
 8685         c3    329    ccc     C2   8685 0.30606500  12.010000   ; qtot -0.014733
 8686         h1    329    ccc     H1   8686 0.11662300   1.008000   ; qtot 0.101890
 8687         h1    329    ccc     H2   8687 0.11526800   1.008000   ; qtot 0.217158
 8688         c3    329    ccc     C3   8688 0.15592700  12.010000   ; qtot 0.373085
 8689         c3    329    ccc     C4   8689 0.28383300  12.010000   ; qtot 0.656918
 8690         c3    329    ccc     C5   8690 0.32403300  12.010000   ; qtot 0.980951
 8691         h1    329    ccc     H3   8691 0.13386900   1.008000   ; qtot 1.114820
 8692         h1    329    ccc     H4   8692 0.10146700   1.008000   ; qtot 1.216287
 8693         h2    329    ccc     H5   8693 0.10960400   1.008000   ; qtot 1.325891
 8694         os    329    ccc     O1   8694 -0.28650000  16.000000   ; qtot 1.039391
 8695         oh    329    ccc     O2   8695 -0.86012500  16.000000   ; qtot 0.179266
 8696         oh    329    ccc     O3   8696 -0.83772800  16.000000   ; qtot -0.658462
 8697         oh    329    ccc     O4   8697 -0.77449700  16.000000   ; qtot -1.432959
 8698         c3    329    ccc     C6   8698 0.37576500  12.010000   ; qtot -1.057194
 8699         ho    329    ccc     H6   8699 0.53656000   1.008000   ; qtot -0.520634
 8700         ho    329    ccc     H7   8700 0.49492100   1.008000   ; qtot -0.025713
 8701         ho    329    ccc     H8   8701 0.51297200   1.008000   ; qtot 0.487259
 8702         h1    329    ccc     H9   8702 0.05653400   1.008000   ; qtot 0.543793
 8703         h1    329    ccc    H10   8703 0.05653400   1.008000   ; qtot 0.600327
 8704         oh    329    ccc     O5   8704 -0.84113600  16.000000   ; qtot -0.240809
 8705         ho    329    ccc    H11   8705 0.51201600   1.008000   ; qtot 0.271207
 8706         os    329    ccc     O6   8706 -0.26013600  16.000000   ; qtot 0.011071
; residue  330 ccc rtp ccc q 0.0
 8707         c3    330    ccc     C1   8707 -0.33178800  12.010000   ; qtot -0.320717
 8708         c3    330    ccc     C2   8708 0.30606500  12.010000   ; qtot -0.014652
 8709         h1    330    ccc     H1   8709 0.11662300   1.008000   ; qtot 0.101971
 8710         h1    330    ccc     H2   8710 0.11526800   1.008000   ; qtot 0.217239
 8711         c3    330    ccc     C3   8711 0.15592700  12.010000   ; qtot 0.373166
 8712         c3    330    ccc     C4   8712 0.28383300  12.010000   ; qtot 0.656999
 8713         c3    330    ccc     C5   8713 0.32403300  12.010000   ; qtot 0.981032
 8714         h1    330    ccc     H3   8714 0.13386900   1.008000   ; qtot 1.114901
 8715         h1    330    ccc     H4   8715 0.10146700   1.008000   ; qtot 1.216368
 8716         h2    330    ccc     H5   8716 0.10960400   1.008000   ; qtot 1.325972
 8717         os    330    ccc     O1   8717 -0.28650000  16.000000   ; qtot 1.039472
 8718         oh    330    ccc     O2   8718 -0.86012500  16.000000   ; qtot 0.179347
 8719         oh    330    ccc     O3   8719 -0.83772800  16.000000   ; qtot -0.658381
 8720         oh    330    ccc     O4   8720 -0.77449700  16.000000   ; qtot -1.432878
 8721         c3    330    ccc     C6   8721 0.37576500  12.010000   ; qtot -1.057113
 8722         ho    330    ccc     H6   8722 0.53656000   1.008000   ; qtot -0.520553
 8723         ho    330    ccc     H7   8723 0.49492100   1.008000   ; qtot -0.025632
 8724         ho    330    ccc     H8   8724 0.51297200   1.008000   ; qtot 0.487340
 8725         h1    330    ccc     H9   8725 0.05653400   1.008000   ; qtot 0.543874
 8726         h1    330    ccc    H10   8726 0.05653400   1.008000   ; qtot 0.600408
 8727         oh    330    ccc     O5   8727 -0.84113600  16.000000   ; qtot -0.240728
 8728         ho    330    ccc    H11   8728 0.51201600   1.008000   ; qtot 0.271288
 8729         os    330    ccc     O6   8729 -0.26013600  16.000000   ; qtot 0.011152
; residue  331 ccc rtp ccc q 0.0
 8730         c3    331    ccc     C1   8730 -0.33178800  12.010000   ; qtot -0.320636
 8731         c3    331    ccc     C2   8731 0.30606500  12.010000   ; qtot -0.014571
 8732         h1    331    ccc     H1   8732 0.11662300   1.008000   ; qtot 0.102052
 8733         h1    331    ccc     H2   8733 0.11526800   1.008000   ; qtot 0.217320
 8734         c3    331    ccc     C3   8734 0.15592700  12.010000   ; qtot 0.373247
 8735         c3    331    ccc     C4   8735 0.28383300  12.010000   ; qtot 0.657080
 8736         c3    331    ccc     C5   8736 0.32403300  12.010000   ; qtot 0.981113
 8737         h1    331    ccc     H3   8737 0.13386900   1.008000   ; qtot 1.114982
 8738         h1    331    ccc     H4   8738 0.10146700   1.008000   ; qtot 1.216449
 8739         h2    331    ccc     H5   8739 0.10960400   1.008000   ; qtot 1.326053
 8740         os    331    ccc     O1   8740 -0.28650000  16.000000   ; qtot 1.039553
 8741         oh    331    ccc     O2   8741 -0.86012500  16.000000   ; qtot 0.179428
 8742         oh    331    ccc     O3   8742 -0.83772800  16.000000   ; qtot -0.658300
 8743         oh    331    ccc     O4   8743 -0.77449700  16.000000   ; qtot -1.432797
 8744         c3    331    ccc     C6   8744 0.37576500  12.010000   ; qtot -1.057032
 8745         ho    331    ccc     H6   8745 0.53656000   1.008000   ; qtot -0.520472
 8746         ho    331    ccc     H7   8746 0.49492100   1.008000   ; qtot -0.025551
 8747         ho    331    ccc     H8   8747 0.51297200   1.008000   ; qtot 0.487421
 8748         h1    331    ccc     H9   8748 0.05653400   1.008000   ; qtot 0.543955
 8749         h1    331    ccc    H10   8749 0.05653400   1.008000   ; qtot 0.600489
 8750         oh    331    ccc     O5   8750 -0.84113600  16.000000   ; qtot -0.240647
 8751         ho    331    ccc    H11   8751 0.51201600   1.008000   ; qtot 0.271369
 8752         os    331    ccc     O6   8752 -0.26013600  16.000000   ; qtot 0.011233
; residue  332 ccc rtp ccc q 0.0
 8753         c3    332    ccc     C1   8753 -0.33178800  12.010000   ; qtot -0.320555
 8754         c3    332    ccc     C2   8754 0.30606500  12.010000   ; qtot -0.014490
 8755         h1    332    ccc     H1   8755 0.11662300   1.008000   ; qtot 0.102133
 8756         h1    332    ccc     H2   8756 0.11526800   1.008000   ; qtot 0.217401
 8757         c3    332    ccc     C3   8757 0.15592700  12.010000   ; qtot 0.373328
 8758         c3    332    ccc     C4   8758 0.28383300  12.010000   ; qtot 0.657161
 8759         c3    332    ccc     C5   8759 0.32403300  12.010000   ; qtot 0.981194
 8760         h1    332    ccc     H3   8760 0.13386900   1.008000   ; qtot 1.115063
 8761         h1    332    ccc     H4   8761 0.10146700   1.008000   ; qtot 1.216530
 8762         h2    332    ccc     H5   8762 0.10960400   1.008000   ; qtot 1.326134
 8763         os    332    ccc     O1   8763 -0.28650000  16.000000   ; qtot 1.039634
 8764         oh    332    ccc     O2   8764 -0.86012500  16.000000   ; qtot 0.179509
 8765         oh    332    ccc     O3   8765 -0.83772800  16.000000   ; qtot -0.658219
 8766         oh    332    ccc     O4   8766 -0.77449700  16.000000   ; qtot -1.432716
 8767         c3    332    ccc     C6   8767 0.37576500  12.010000   ; qtot -1.056951
 8768         ho    332    ccc     H6   8768 0.53656000   1.008000   ; qtot -0.520391
 8769         ho    332    ccc     H7   8769 0.49492100   1.008000   ; qtot -0.025470
 8770         ho    332    ccc     H8   8770 0.51297200   1.008000   ; qtot 0.487502
 8771         h1    332    ccc     H9   8771 0.05653400   1.008000   ; qtot 0.544036
 8772         h1    332    ccc    H10   8772 0.05653400   1.008000   ; qtot 0.600570
 8773         oh    332    ccc     O5   8773 -0.84113600  16.000000   ; qtot -0.240566
 8774         ho    332    ccc    H11   8774 0.51201600   1.008000   ; qtot 0.271450
 8775         os    332    ccc     O6   8775 -0.26013600  16.000000   ; qtot 0.011314
; residue  333 ccc rtp ccc q 0.0
 8776         c3    333    ccc     C1   8776 -0.33178800  12.010000   ; qtot -0.320474
 8777         c3    333    ccc     C2   8777 0.30606500  12.010000   ; qtot -0.014409
 8778         h1    333    ccc     H1   8778 0.11662300   1.008000   ; qtot 0.102214
 8779         h1    333    ccc     H2   8779 0.11526800   1.008000   ; qtot 0.217482
 8780         c3    333    ccc     C3   8780 0.15592700  12.010000   ; qtot 0.373409
 8781         c3    333    ccc     C4   8781 0.28383300  12.010000   ; qtot 0.657242
 8782         c3    333    ccc     C5   8782 0.32403300  12.010000   ; qtot 0.981275
 8783         h1    333    ccc     H3   8783 0.13386900   1.008000   ; qtot 1.115144
 8784         h1    333    ccc     H4   8784 0.10146700   1.008000   ; qtot 1.216611
 8785         h2    333    ccc     H5   8785 0.10960400   1.008000   ; qtot 1.326215
 8786         os    333    ccc     O1   8786 -0.28650000  16.000000   ; qtot 1.039715
 8787         oh    333    ccc     O2   8787 -0.86012500  16.000000   ; qtot 0.179590
 8788         oh    333    ccc     O3   8788 -0.83772800  16.000000   ; qtot -0.658138
 8789         oh    333    ccc     O4   8789 -0.77449700  16.000000   ; qtot -1.432635
 8790         c3    333    ccc     C6   8790 0.37576500  12.010000   ; qtot -1.056870
 8791         ho    333    ccc     H6   8791 0.53656000   1.008000   ; qtot -0.520310
 8792         ho    333    ccc     H7   8792 0.49492100   1.008000   ; qtot -0.025389
 8793         ho    333    ccc     H8   8793 0.51297200   1.008000   ; qtot 0.487583
 8794         h1    333    ccc     H9   8794 0.05653400   1.008000   ; qtot 0.544117
 8795         h1    333    ccc    H10   8795 0.05653400   1.008000   ; qtot 0.600651
 8796         oh    333    ccc     O5   8796 -0.84113600  16.000000   ; qtot -0.240485
 8797         ho    333    ccc    H11   8797 0.51201600   1.008000   ; qtot 0.271531
 8798         os    333    ccc     O6   8798 -0.26013600  16.000000   ; qtot 0.011395
; residue  334 ccc rtp ccc q 0.0
 8799         c3    334    ccc     C1   8799 -0.33178800  12.010000   ; qtot -0.320393
 8800         c3    334    ccc     C2   8800 0.30606500  12.010000   ; qtot -0.014328
 8801         h1    334    ccc     H1   8801 0.11662300   1.008000   ; qtot 0.102295
 8802         h1    334    ccc     H2   8802 0.11526800   1.008000   ; qtot 0.217563
 8803         c3    334    ccc     C3   8803 0.15592700  12.010000   ; qtot 0.373490
 8804         c3    334    ccc     C4   8804 0.28383300  12.010000   ; qtot 0.657323
 8805         c3    334    ccc     C5   8805 0.32403300  12.010000   ; qtot 0.981356
 8806         h1    334    ccc     H3   8806 0.13386900   1.008000   ; qtot 1.115225
 8807         h1    334    ccc     H4   8807 0.10146700   1.008000   ; qtot 1.216692
 8808         h2    334    ccc     H5   8808 0.10960400   1.008000   ; qtot 1.326296
 8809         os    334    ccc     O1   8809 -0.28650000  16.000000   ; qtot 1.039796
 8810         oh    334    ccc     O2   8810 -0.86012500  16.000000   ; qtot 0.179671
 8811         oh    334    ccc     O3   8811 -0.83772800  16.000000   ; qtot -0.658057
 8812         oh    334    ccc     O4   8812 -0.77449700  16.000000   ; qtot -1.432554
 8813         c3    334    ccc     C6   8813 0.37576500  12.010000   ; qtot -1.056789
 8814         ho    334    ccc     H6   8814 0.53656000   1.008000   ; qtot -0.520229
 8815         ho    334    ccc     H7   8815 0.49492100   1.008000   ; qtot -0.025308
 8816         ho    334    ccc     H8   8816 0.51297200   1.008000   ; qtot 0.487664
 8817         h1    334    ccc     H9   8817 0.05653400   1.008000   ; qtot 0.544198
 8818         h1    334    ccc    H10   8818 0.05653400   1.008000   ; qtot 0.600732
 8819         oh    334    ccc     O5   8819 -0.84113600  16.000000   ; qtot -0.240404
 8820         ho    334    ccc    H11   8820 0.51201600   1.008000   ; qtot 0.271612
 8821         os    334    ccc     O6   8821 -0.26013600  16.000000   ; qtot 0.011476
; residue  335 ccc rtp ccc q 0.0
 8822         c3    335    ccc     C1   8822 -0.33178800  12.010000   ; qtot -0.320312
 8823         c3    335    ccc     C2   8823 0.30606500  12.010000   ; qtot -0.014247
 8824         h1    335    ccc     H1   8824 0.11662300   1.008000   ; qtot 0.102376
 8825         h1    335    ccc     H2   8825 0.11526800   1.008000   ; qtot 0.217644
 8826         c3    335    ccc     C3   8826 0.15592700  12.010000   ; qtot 0.373571
 8827         c3    335    ccc     C4   8827 0.28383300  12.010000   ; qtot 0.657404
 8828         c3    335    ccc     C5   8828 0.32403300  12.010000   ; qtot 0.981437
 8829         h1    335    ccc     H3   8829 0.13386900   1.008000   ; qtot 1.115306
 8830         h1    335    ccc     H4   8830 0.10146700   1.008000   ; qtot 1.216773
 8831         h2    335    ccc     H5   8831 0.10960400   1.008000   ; qtot 1.326377
 8832         os    335    ccc     O1   8832 -0.28650000  16.000000   ; qtot 1.039877
 8833         oh    335    ccc     O2   8833 -0.86012500  16.000000   ; qtot 0.179752
 8834         oh    335    ccc     O3   8834 -0.83772800  16.000000   ; qtot -0.657976
 8835         oh    335    ccc     O4   8835 -0.77449700  16.000000   ; qtot -1.432473
 8836         c3    335    ccc     C6   8836 0.37576500  12.010000   ; qtot -1.056708
 8837         ho    335    ccc     H6   8837 0.53656000   1.008000   ; qtot -0.520148
 8838         ho    335    ccc     H7   8838 0.49492100   1.008000   ; qtot -0.025227
 8839         ho    335    ccc     H8   8839 0.51297200   1.008000   ; qtot 0.487745
 8840         h1    335    ccc     H9   8840 0.05653400   1.008000   ; qtot 0.544279
 8841         h1    335    ccc    H10   8841 0.05653400   1.008000   ; qtot 0.600813
 8842         oh    335    ccc     O5   8842 -0.84113600  16.000000   ; qtot -0.240323
 8843         ho    335    ccc    H11   8843 0.51201600   1.008000   ; qtot 0.271693
 8844         os    335    ccc     O6   8844 -0.26013600  16.000000   ; qtot 0.011557
; residue  336 ccc rtp ccc q 0.0
 8845         c3    336    ccc     C1   8845 -0.33178800  12.010000   ; qtot -0.320231
 8846         c3    336    ccc     C2   8846 0.30606500  12.010000   ; qtot -0.014166
 8847         h1    336    ccc     H1   8847 0.11662300   1.008000   ; qtot 0.102457
 8848         h1    336    ccc     H2   8848 0.11526800   1.008000   ; qtot 0.217725
 8849         c3    336    ccc     C3   8849 0.15592700  12.010000   ; qtot 0.373652
 8850         c3    336    ccc     C4   8850 0.28383300  12.010000   ; qtot 0.657485
 8851         c3    336    ccc     C5   8851 0.32403300  12.010000   ; qtot 0.981518
 8852         h1    336    ccc     H3   8852 0.13386900   1.008000   ; qtot 1.115387
 8853         h1    336    ccc     H4   8853 0.10146700   1.008000   ; qtot 1.216854
 8854         h2    336    ccc     H5   8854 0.10960400   1.008000   ; qtot 1.326458
 8855         os    336    ccc     O1   8855 -0.28650000  16.000000   ; qtot 1.039958
 8856         oh    336    ccc     O2   8856 -0.86012500  16.000000   ; qtot 0.179833
 8857         oh    336    ccc     O3   8857 -0.83772800  16.000000   ; qtot -0.657895
 8858         oh    336    ccc     O4   8858 -0.77449700  16.000000   ; qtot -1.432392
 8859         c3    336    ccc     C6   8859 0.37576500  12.010000   ; qtot -1.056627
 8860         ho    336    ccc     H6   8860 0.53656000   1.008000   ; qtot -0.520067
 8861         ho    336    ccc     H7   8861 0.49492100   1.008000   ; qtot -0.025146
 8862         ho    336    ccc     H8   8862 0.51297200   1.008000   ; qtot 0.487826
 8863         h1    336    ccc     H9   8863 0.05653400   1.008000   ; qtot 0.544360
 8864         h1    336    ccc    H10   8864 0.05653400   1.008000   ; qtot 0.600894
 8865         oh    336    ccc     O5   8865 -0.84113600  16.000000   ; qtot -0.240242
 8866         ho    336    ccc    H11   8866 0.51201600   1.008000   ; qtot 0.271774
 8867         os    336    ccc     O6   8867 -0.26013600  16.000000   ; qtot 0.011638
; residue  337 ccc rtp ccc q 0.0
 8868         c3    337    ccc     C1   8868 -0.33178800  12.010000   ; qtot -0.320150
 8869         c3    337    ccc     C2   8869 0.30606500  12.010000   ; qtot -0.014085
 8870         h1    337    ccc     H1   8870 0.11662300   1.008000   ; qtot 0.102538
 8871         h1    337    ccc     H2   8871 0.11526800   1.008000   ; qtot 0.217806
 8872         c3    337    ccc     C3   8872 0.15592700  12.010000   ; qtot 0.373733
 8873         c3    337    ccc     C4   8873 0.28383300  12.010000   ; qtot 0.657566
 8874         c3    337    ccc     C5   8874 0.32403300  12.010000   ; qtot 0.981599
 8875         h1    337    ccc     H3   8875 0.13386900   1.008000   ; qtot 1.115468
 8876         h1    337    ccc     H4   8876 0.10146700   1.008000   ; qtot 1.216935
 8877         h2    337    ccc     H5   8877 0.10960400   1.008000   ; qtot 1.326539
 8878         os    337    ccc     O1   8878 -0.28650000  16.000000   ; qtot 1.040039
 8879         oh    337    ccc     O2   8879 -0.86012500  16.000000   ; qtot 0.179914
 8880         oh    337    ccc     O3   8880 -0.83772800  16.000000   ; qtot -0.657814
 8881         oh    337    ccc     O4   8881 -0.77449700  16.000000   ; qtot -1.432311
 8882         c3    337    ccc     C6   8882 0.37576500  12.010000   ; qtot -1.056546
 8883         ho    337    ccc     H6   8883 0.53656000   1.008000   ; qtot -0.519986
 8884         ho    337    ccc     H7   8884 0.49492100   1.008000   ; qtot -0.025065
 8885         ho    337    ccc     H8   8885 0.51297200   1.008000   ; qtot 0.487907
 8886         h1    337    ccc     H9   8886 0.05653400   1.008000   ; qtot 0.544441
 8887         h1    337    ccc    H10   8887 0.05653400   1.008000   ; qtot 0.600975
 8888         oh    337    ccc     O5   8888 -0.84113600  16.000000   ; qtot -0.240161
 8889         ho    337    ccc    H11   8889 0.51201600   1.008000   ; qtot 0.271855
 8890         os    337    ccc     O6   8890 -0.26013600  16.000000   ; qtot 0.011719
; residue  338 ccc rtp ccc q 0.0
 8891         c3    338    ccc     C1   8891 -0.33178800  12.010000   ; qtot -0.320069
 8892         c3    338    ccc     C2   8892 0.30606500  12.010000   ; qtot -0.014004
 8893         h1    338    ccc     H1   8893 0.11662300   1.008000   ; qtot 0.102619
 8894         h1    338    ccc     H2   8894 0.11526800   1.008000   ; qtot 0.217887
 8895         c3    338    ccc     C3   8895 0.15592700  12.010000   ; qtot 0.373814
 8896         c3    338    ccc     C4   8896 0.28383300  12.010000   ; qtot 0.657647
 8897         c3    338    ccc     C5   8897 0.32403300  12.010000   ; qtot 0.981680
 8898         h1    338    ccc     H3   8898 0.13386900   1.008000   ; qtot 1.115549
 8899         h1    338    ccc     H4   8899 0.10146700   1.008000   ; qtot 1.217016
 8900         h2    338    ccc     H5   8900 0.10960400   1.008000   ; qtot 1.326620
 8901         os    338    ccc     O1   8901 -0.28650000  16.000000   ; qtot 1.040120
 8902         oh    338    ccc     O2   8902 -0.86012500  16.000000   ; qtot 0.179995
 8903         oh    338    ccc     O3   8903 -0.83772800  16.000000   ; qtot -0.657733
 8904         oh    338    ccc     O4   8904 -0.77449700  16.000000   ; qtot -1.432230
 8905         c3    338    ccc     C6   8905 0.37576500  12.010000   ; qtot -1.056465
 8906         ho    338    ccc     H6   8906 0.53656000   1.008000   ; qtot -0.519905
 8907         ho    338    ccc     H7   8907 0.49492100   1.008000   ; qtot -0.024984
 8908         ho    338    ccc     H8   8908 0.51297200   1.008000   ; qtot 0.487988
 8909         h1    338    ccc     H9   8909 0.05653400   1.008000   ; qtot 0.544522
 8910         h1    338    ccc    H10   8910 0.05653400   1.008000   ; qtot 0.601056
 8911         oh    338    ccc     O5   8911 -0.84113600  16.000000   ; qtot -0.240080
 8912         ho    338    ccc    H11   8912 0.51201600   1.008000   ; qtot 0.271936
 8913         os    338    ccc     O6   8913 -0.26013600  16.000000   ; qtot 0.011800
; residue  339 ccc rtp ccc q 0.0
 8914         c3    339    ccc     C1   8914 -0.33178800  12.010000   ; qtot -0.319988
 8915         c3    339    ccc     C2   8915 0.30606500  12.010000   ; qtot -0.013923
 8916         h1    339    ccc     H1   8916 0.11662300   1.008000   ; qtot 0.102700
 8917         h1    339    ccc     H2   8917 0.11526800   1.008000   ; qtot 0.217968
 8918         c3    339    ccc     C3   8918 0.15592700  12.010000   ; qtot 0.373895
 8919         c3    339    ccc     C4   8919 0.28383300  12.010000   ; qtot 0.657728
 8920         c3    339    ccc     C5   8920 0.32403300  12.010000   ; qtot 0.981761
 8921         h1    339    ccc     H3   8921 0.13386900   1.008000   ; qtot 1.115630
 8922         h1    339    ccc     H4   8922 0.10146700   1.008000   ; qtot 1.217097
 8923         h2    339    ccc     H5   8923 0.10960400   1.008000   ; qtot 1.326701
 8924         os    339    ccc     O1   8924 -0.28650000  16.000000   ; qtot 1.040201
 8925         oh    339    ccc     O2   8925 -0.86012500  16.000000   ; qtot 0.180076
 8926         oh    339    ccc     O3   8926 -0.83772800  16.000000   ; qtot -0.657652
 8927         oh    339    ccc     O4   8927 -0.77449700  16.000000   ; qtot -1.432149
 8928         c3    339    ccc     C6   8928 0.37576500  12.010000   ; qtot -1.056384
 8929         ho    339    ccc     H6   8929 0.53656000   1.008000   ; qtot -0.519824
 8930         ho    339    ccc     H7   8930 0.49492100   1.008000   ; qtot -0.024903
 8931         ho    339    ccc     H8   8931 0.51297200   1.008000   ; qtot 0.488069
 8932         h1    339    ccc     H9   8932 0.05653400   1.008000   ; qtot 0.544603
 8933         h1    339    ccc    H10   8933 0.05653400   1.008000   ; qtot 0.601137
 8934         oh    339    ccc     O5   8934 -0.84113600  16.000000   ; qtot -0.239999
 8935         ho    339    ccc    H11   8935 0.51201600   1.008000   ; qtot 0.272017
 8936         os    339    ccc     O6   8936 -0.26013600  16.000000   ; qtot 0.011881
; residue  340 ccc rtp ccc q 0.0
 8937         c3    340    ccc     C1   8937 -0.33178800  12.010000   ; qtot -0.319907
 8938         c3    340    ccc     C2   8938 0.30606500  12.010000   ; qtot -0.013842
 8939         h1    340    ccc     H1   8939 0.11662300   1.008000   ; qtot 0.102781
 8940         h1    340    ccc     H2   8940 0.11526800   1.008000   ; qtot 0.218049
 8941         c3    340    ccc     C3   8941 0.15592700  12.010000   ; qtot 0.373976
 8942         c3    340    ccc     C4   8942 0.28383300  12.010000   ; qtot 0.657809
 8943         c3    340    ccc     C5   8943 0.32403300  12.010000   ; qtot 0.981842
 8944         h1    340    ccc     H3   8944 0.13386900   1.008000   ; qtot 1.115711
 8945         h1    340    ccc     H4   8945 0.10146700   1.008000   ; qtot 1.217178
 8946         h2    340    ccc     H5   8946 0.10960400   1.008000   ; qtot 1.326782
 8947         os    340    ccc     O1   8947 -0.28650000  16.000000   ; qtot 1.040282
 8948         oh    340    ccc     O2   8948 -0.86012500  16.000000   ; qtot 0.180157
 8949         oh    340    ccc     O3   8949 -0.83772800  16.000000   ; qtot -0.657571
 8950         oh    340    ccc     O4   8950 -0.77449700  16.000000   ; qtot -1.432068
 8951         c3    340    ccc     C6   8951 0.37576500  12.010000   ; qtot -1.056303
 8952         ho    340    ccc     H6   8952 0.53656000   1.008000   ; qtot -0.519743
 8953         ho    340    ccc     H7   8953 0.49492100   1.008000   ; qtot -0.024822
 8954         ho    340    ccc     H8   8954 0.51297200   1.008000   ; qtot 0.488150
 8955         h1    340    ccc     H9   8955 0.05653400   1.008000   ; qtot 0.544684
 8956         h1    340    ccc    H10   8956 0.05653400   1.008000   ; qtot 0.601218
 8957         oh    340    ccc     O5   8957 -0.84113600  16.000000   ; qtot -0.239918
 8958         ho    340    ccc    H11   8958 0.51201600   1.008000   ; qtot 0.272098
 8959         os    340    ccc     O6   8959 -0.26013600  16.000000   ; qtot 0.011962
; residue  341 ccc rtp ccc q 0.0
 8960         c3    341    ccc     C1   8960 -0.33178800  12.010000   ; qtot -0.319826
 8961         c3    341    ccc     C2   8961 0.30606500  12.010000   ; qtot -0.013761
 8962         h1    341    ccc     H1   8962 0.11662300   1.008000   ; qtot 0.102862
 8963         h1    341    ccc     H2   8963 0.11526800   1.008000   ; qtot 0.218130
 8964         c3    341    ccc     C3   8964 0.15592700  12.010000   ; qtot 0.374057
 8965         c3    341    ccc     C4   8965 0.28383300  12.010000   ; qtot 0.657890
 8966         c3    341    ccc     C5   8966 0.32403300  12.010000   ; qtot 0.981923
 8967         h1    341    ccc     H3   8967 0.13386900   1.008000   ; qtot 1.115792
 8968         h1    341    ccc     H4   8968 0.10146700   1.008000   ; qtot 1.217259
 8969         h2    341    ccc     H5   8969 0.10960400   1.008000   ; qtot 1.326863
 8970         os    341    ccc     O1   8970 -0.28650000  16.000000   ; qtot 1.040363
 8971         oh    341    ccc     O2   8971 -0.86012500  16.000000   ; qtot 0.180238
 8972         oh    341    ccc     O3   8972 -0.83772800  16.000000   ; qtot -0.657490
 8973         oh    341    ccc     O4   8973 -0.77449700  16.000000   ; qtot -1.431987
 8974         c3    341    ccc     C6   8974 0.37576500  12.010000   ; qtot -1.056222
 8975         ho    341    ccc     H6   8975 0.53656000   1.008000   ; qtot -0.519662
 8976         ho    341    ccc     H7   8976 0.49492100   1.008000   ; qtot -0.024741
 8977         ho    341    ccc     H8   8977 0.51297200   1.008000   ; qtot 0.488231
 8978         h1    341    ccc     H9   8978 0.05653400   1.008000   ; qtot 0.544765
 8979         h1    341    ccc    H10   8979 0.05653400   1.008000   ; qtot 0.601299
 8980         oh    341    ccc     O5   8980 -0.84113600  16.000000   ; qtot -0.239837
 8981         ho    341    ccc    H11   8981 0.51201600   1.008000   ; qtot 0.272179
 8982         os    341    ccc     O6   8982 -0.26013600  16.000000   ; qtot 0.012043
; residue  342 ccc rtp ccc q 0.0
 8983         c3    342    ccc     C1   8983 -0.33178800  12.010000   ; qtot -0.319745
 8984         c3    342    ccc     C2   8984 0.30606500  12.010000   ; qtot -0.013680
 8985         h1    342    ccc     H1   8985 0.11662300   1.008000   ; qtot 0.102943
 8986         h1    342    ccc     H2   8986 0.11526800   1.008000   ; qtot 0.218211
 8987         c3    342    ccc     C3   8987 0.15592700  12.010000   ; qtot 0.374138
 8988         c3    342    ccc     C4   8988 0.28383300  12.010000   ; qtot 0.657971
 8989         c3    342    ccc     C5   8989 0.32403300  12.010000   ; qtot 0.982004
 8990         h1    342    ccc     H3   8990 0.13386900   1.008000   ; qtot 1.115873
 8991         h1    342    ccc     H4   8991 0.10146700   1.008000   ; qtot 1.217340
 8992         h2    342    ccc     H5   8992 0.10960400   1.008000   ; qtot 1.326944
 8993         os    342    ccc     O1   8993 -0.28650000  16.000000   ; qtot 1.040444
 8994         oh    342    ccc     O2   8994 -0.86012500  16.000000   ; qtot 0.180319
 8995         oh    342    ccc     O3   8995 -0.83772800  16.000000   ; qtot -0.657409
 8996         oh    342    ccc     O4   8996 -0.77449700  16.000000   ; qtot -1.431906
 8997         c3    342    ccc     C6   8997 0.37576500  12.010000   ; qtot -1.056141
 8998         ho    342    ccc     H6   8998 0.53656000   1.008000   ; qtot -0.519581
 8999         ho    342    ccc     H7   8999 0.49492100   1.008000   ; qtot -0.024660
 9000         ho    342    ccc     H8   9000 0.51297200   1.008000   ; qtot 0.488312
 9001         h1    342    ccc     H9   9001 0.05653400   1.008000   ; qtot 0.544846
 9002         h1    342    ccc    H10   9002 0.05653400   1.008000   ; qtot 0.601380
 9003         oh    342    ccc     O5   9003 -0.84113600  16.000000   ; qtot -0.239756
 9004         ho    342    ccc    H11   9004 0.51201600   1.008000   ; qtot 0.272260
 9005         os    342    ccc     O6   9005 -0.26013600  16.000000   ; qtot 0.012124
; residue  343 ccc rtp ccc q 0.0
 9006         c3    343    ccc     C1   9006 -0.33178800  12.010000   ; qtot -0.319664
 9007         c3    343    ccc     C2   9007 0.30606500  12.010000   ; qtot -0.013599
 9008         h1    343    ccc     H1   9008 0.11662300   1.008000   ; qtot 0.103024
 9009         h1    343    ccc     H2   9009 0.11526800   1.008000   ; qtot 0.218292
 9010         c3    343    ccc     C3   9010 0.15592700  12.010000   ; qtot 0.374219
 9011         c3    343    ccc     C4   9011 0.28383300  12.010000   ; qtot 0.658052
 9012         c3    343    ccc     C5   9012 0.32403300  12.010000   ; qtot 0.982085
 9013         h1    343    ccc     H3   9013 0.13386900   1.008000   ; qtot 1.115954
 9014         h1    343    ccc     H4   9014 0.10146700   1.008000   ; qtot 1.217421
 9015         h2    343    ccc     H5   9015 0.10960400   1.008000   ; qtot 1.327025
 9016         os    343    ccc     O1   9016 -0.28650000  16.000000   ; qtot 1.040525
 9017         oh    343    ccc     O2   9017 -0.86012500  16.000000   ; qtot 0.180400
 9018         oh    343    ccc     O3   9018 -0.83772800  16.000000   ; qtot -0.657328
 9019         oh    343    ccc     O4   9019 -0.77449700  16.000000   ; qtot -1.431825
 9020         c3    343    ccc     C6   9020 0.37576500  12.010000   ; qtot -1.056060
 9021         ho    343    ccc     H6   9021 0.53656000   1.008000   ; qtot -0.519500
 9022         ho    343    ccc     H7   9022 0.49492100   1.008000   ; qtot -0.024579
 9023         ho    343    ccc     H8   9023 0.51297200   1.008000   ; qtot 0.488393
 9024         h1    343    ccc     H9   9024 0.05653400   1.008000   ; qtot 0.544927
 9025         h1    343    ccc    H10   9025 0.05653400   1.008000   ; qtot 0.601461
 9026         oh    343    ccc     O5   9026 -0.84113600  16.000000   ; qtot -0.239675
 9027         ho    343    ccc    H11   9027 0.51201600   1.008000   ; qtot 0.272341
 9028         os    343    ccc     O6   9028 -0.26013600  16.000000   ; qtot 0.012205
; residue  344 ccc rtp ccc q 0.0
 9029         c3    344    ccc     C1   9029 -0.33178800  12.010000   ; qtot -0.319583
 9030         c3    344    ccc     C2   9030 0.30606500  12.010000   ; qtot -0.013518
 9031         h1    344    ccc     H1   9031 0.11662300   1.008000   ; qtot 0.103105
 9032         h1    344    ccc     H2   9032 0.11526800   1.008000   ; qtot 0.218373
 9033         c3    344    ccc     C3   9033 0.15592700  12.010000   ; qtot 0.374300
 9034         c3    344    ccc     C4   9034 0.28383300  12.010000   ; qtot 0.658133
 9035         c3    344    ccc     C5   9035 0.32403300  12.010000   ; qtot 0.982166
 9036         h1    344    ccc     H3   9036 0.13386900   1.008000   ; qtot 1.116035
 9037         h1    344    ccc     H4   9037 0.10146700   1.008000   ; qtot 1.217502
 9038         h2    344    ccc     H5   9038 0.10960400   1.008000   ; qtot 1.327106
 9039         os    344    ccc     O1   9039 -0.28650000  16.000000   ; qtot 1.040606
 9040         oh    344    ccc     O2   9040 -0.86012500  16.000000   ; qtot 0.180481
 9041         oh    344    ccc     O3   9041 -0.83772800  16.000000   ; qtot -0.657247
 9042         oh    344    ccc     O4   9042 -0.77449700  16.000000   ; qtot -1.431744
 9043         c3    344    ccc     C6   9043 0.37576500  12.010000   ; qtot -1.055979
 9044         ho    344    ccc     H6   9044 0.53656000   1.008000   ; qtot -0.519419
 9045         ho    344    ccc     H7   9045 0.49492100   1.008000   ; qtot -0.024498
 9046         ho    344    ccc     H8   9046 0.51297200   1.008000   ; qtot 0.488474
 9047         h1    344    ccc     H9   9047 0.05653400   1.008000   ; qtot 0.545008
 9048         h1    344    ccc    H10   9048 0.05653400   1.008000   ; qtot 0.601542
 9049         oh    344    ccc     O5   9049 -0.84113600  16.000000   ; qtot -0.239594
 9050         ho    344    ccc    H11   9050 0.51201600   1.008000   ; qtot 0.272422
 9051         os    344    ccc     O6   9051 -0.26013600  16.000000   ; qtot 0.012286
; residue  345 ccc rtp ccc q 0.0
 9052         c3    345    ccc     C1   9052 -0.33178800  12.010000   ; qtot -0.319502
 9053         c3    345    ccc     C2   9053 0.30606500  12.010000   ; qtot -0.013437
 9054         h1    345    ccc     H1   9054 0.11662300   1.008000   ; qtot 0.103186
 9055         h1    345    ccc     H2   9055 0.11526800   1.008000   ; qtot 0.218454
 9056         c3    345    ccc     C3   9056 0.15592700  12.010000   ; qtot 0.374381
 9057         c3    345    ccc     C4   9057 0.28383300  12.010000   ; qtot 0.658214
 9058         c3    345    ccc     C5   9058 0.32403300  12.010000   ; qtot 0.982247
 9059         h1    345    ccc     H3   9059 0.13386900   1.008000   ; qtot 1.116116
 9060         h1    345    ccc     H4   9060 0.10146700   1.008000   ; qtot 1.217583
 9061         h2    345    ccc     H5   9061 0.10960400   1.008000   ; qtot 1.327187
 9062         os    345    ccc     O1   9062 -0.28650000  16.000000   ; qtot 1.040687
 9063         oh    345    ccc     O2   9063 -0.86012500  16.000000   ; qtot 0.180562
 9064         oh    345    ccc     O3   9064 -0.83772800  16.000000   ; qtot -0.657166
 9065         oh    345    ccc     O4   9065 -0.77449700  16.000000   ; qtot -1.431663
 9066         c3    345    ccc     C6   9066 0.37576500  12.010000   ; qtot -1.055898
 9067         ho    345    ccc     H6   9067 0.53656000   1.008000   ; qtot -0.519338
 9068         ho    345    ccc     H7   9068 0.49492100   1.008000   ; qtot -0.024417
 9069         ho    345    ccc     H8   9069 0.51297200   1.008000   ; qtot 0.488555
 9070         h1    345    ccc     H9   9070 0.05653400   1.008000   ; qtot 0.545089
 9071         h1    345    ccc    H10   9071 0.05653400   1.008000   ; qtot 0.601623
 9072         oh    345    ccc     O5   9072 -0.84113600  16.000000   ; qtot -0.239513
 9073         ho    345    ccc    H11   9073 0.51201600   1.008000   ; qtot 0.272503
 9074         os    345    ccc     O6   9074 -0.26013600  16.000000   ; qtot 0.012367
; residue  346 ccc rtp ccc q 0.0
 9075         c3    346    ccc     C1   9075 -0.33178800  12.010000   ; qtot -0.319421
 9076         c3    346    ccc     C2   9076 0.30606500  12.010000   ; qtot -0.013356
 9077         h1    346    ccc     H1   9077 0.11662300   1.008000   ; qtot 0.103267
 9078         h1    346    ccc     H2   9078 0.11526800   1.008000   ; qtot 0.218535
 9079         c3    346    ccc     C3   9079 0.15592700  12.010000   ; qtot 0.374462
 9080         c3    346    ccc     C4   9080 0.28383300  12.010000   ; qtot 0.658295
 9081         c3    346    ccc     C5   9081 0.32403300  12.010000   ; qtot 0.982328
 9082         h1    346    ccc     H3   9082 0.13386900   1.008000   ; qtot 1.116197
 9083         h1    346    ccc     H4   9083 0.10146700   1.008000   ; qtot 1.217664
 9084         h2    346    ccc     H5   9084 0.10960400   1.008000   ; qtot 1.327268
 9085         os    346    ccc     O1   9085 -0.28650000  16.000000   ; qtot 1.040768
 9086         oh    346    ccc     O2   9086 -0.86012500  16.000000   ; qtot 0.180643
 9087         oh    346    ccc     O3   9087 -0.83772800  16.000000   ; qtot -0.657085
 9088         oh    346    ccc     O4   9088 -0.77449700  16.000000   ; qtot -1.431582
 9089         c3    346    ccc     C6   9089 0.37576500  12.010000   ; qtot -1.055817
 9090         ho    346    ccc     H6   9090 0.53656000   1.008000   ; qtot -0.519257
 9091         ho    346    ccc     H7   9091 0.49492100   1.008000   ; qtot -0.024336
 9092         ho    346    ccc     H8   9092 0.51297200   1.008000   ; qtot 0.488636
 9093         h1    346    ccc     H9   9093 0.05653400   1.008000   ; qtot 0.545170
 9094         h1    346    ccc    H10   9094 0.05653400   1.008000   ; qtot 0.601704
 9095         oh    346    ccc     O5   9095 -0.84113600  16.000000   ; qtot -0.239432
 9096         ho    346    ccc    H11   9096 0.51201600   1.008000   ; qtot 0.272584
 9097         os    346    ccc     O6   9097 -0.26013600  16.000000   ; qtot 0.012448
; residue  347 ccc rtp ccc q 0.0
 9098         c3    347    ccc     C1   9098 -0.33178800  12.010000   ; qtot -0.319340
 9099         c3    347    ccc     C2   9099 0.30606500  12.010000   ; qtot -0.013275
 9100         h1    347    ccc     H1   9100 0.11662300   1.008000   ; qtot 0.103348
 9101         h1    347    ccc     H2   9101 0.11526800   1.008000   ; qtot 0.218616
 9102         c3    347    ccc     C3   9102 0.15592700  12.010000   ; qtot 0.374543
 9103         c3    347    ccc     C4   9103 0.28383300  12.010000   ; qtot 0.658376
 9104         c3    347    ccc     C5   9104 0.32403300  12.010000   ; qtot 0.982409
 9105         h1    347    ccc     H3   9105 0.13386900   1.008000   ; qtot 1.116278
 9106         h1    347    ccc     H4   9106 0.10146700   1.008000   ; qtot 1.217745
 9107         h2    347    ccc     H5   9107 0.10960400   1.008000   ; qtot 1.327349
 9108         os    347    ccc     O1   9108 -0.28650000  16.000000   ; qtot 1.040849
 9109         oh    347    ccc     O2   9109 -0.86012500  16.000000   ; qtot 0.180724
 9110         oh    347    ccc     O3   9110 -0.83772800  16.000000   ; qtot -0.657004
 9111         oh    347    ccc     O4   9111 -0.77449700  16.000000   ; qtot -1.431501
 9112         c3    347    ccc     C6   9112 0.37576500  12.010000   ; qtot -1.055736
 9113         ho    347    ccc     H6   9113 0.53656000   1.008000   ; qtot -0.519176
 9114         ho    347    ccc     H7   9114 0.49492100   1.008000   ; qtot -0.024255
 9115         ho    347    ccc     H8   9115 0.51297200   1.008000   ; qtot 0.488717
 9116         h1    347    ccc     H9   9116 0.05653400   1.008000   ; qtot 0.545251
 9117         h1    347    ccc    H10   9117 0.05653400   1.008000   ; qtot 0.601785
 9118         oh    347    ccc     O5   9118 -0.84113600  16.000000   ; qtot -0.239351
 9119         ho    347    ccc    H11   9119 0.51201600   1.008000   ; qtot 0.272665
 9120         os    347    ccc     O6   9120 -0.26013600  16.000000   ; qtot 0.012529
; residue  348 ccc rtp ccc q 0.0
 9121         c3    348    ccc     C1   9121 -0.33178800  12.010000   ; qtot -0.319259
 9122         c3    348    ccc     C2   9122 0.30606500  12.010000   ; qtot -0.013194
 9123         h1    348    ccc     H1   9123 0.11662300   1.008000   ; qtot 0.103429
 9124         h1    348    ccc     H2   9124 0.11526800   1.008000   ; qtot 0.218697
 9125         c3    348    ccc     C3   9125 0.15592700  12.010000   ; qtot 0.374624
 9126         c3    348    ccc     C4   9126 0.28383300  12.010000   ; qtot 0.658457
 9127         c3    348    ccc     C5   9127 0.32403300  12.010000   ; qtot 0.982490
 9128         h1    348    ccc     H3   9128 0.13386900   1.008000   ; qtot 1.116359
 9129         h1    348    ccc     H4   9129 0.10146700   1.008000   ; qtot 1.217826
 9130         h2    348    ccc     H5   9130 0.10960400   1.008000   ; qtot 1.327430
 9131         os    348    ccc     O1   9131 -0.28650000  16.000000   ; qtot 1.040930
 9132         oh    348    ccc     O2   9132 -0.86012500  16.000000   ; qtot 0.180805
 9133         oh    348    ccc     O3   9133 -0.83772800  16.000000   ; qtot -0.656923
 9134         oh    348    ccc     O4   9134 -0.77449700  16.000000   ; qtot -1.431420
 9135         c3    348    ccc     C6   9135 0.37576500  12.010000   ; qtot -1.055655
 9136         ho    348    ccc     H6   9136 0.53656000   1.008000   ; qtot -0.519095
 9137         ho    348    ccc     H7   9137 0.49492100   1.008000   ; qtot -0.024174
 9138         ho    348    ccc     H8   9138 0.51297200   1.008000   ; qtot 0.488798
 9139         h1    348    ccc     H9   9139 0.05653400   1.008000   ; qtot 0.545332
 9140         h1    348    ccc    H10   9140 0.05653400   1.008000   ; qtot 0.601866
 9141         oh    348    ccc     O5   9141 -0.84113600  16.000000   ; qtot -0.239270
 9142         ho    348    ccc    H11   9142 0.51201600   1.008000   ; qtot 0.272746
 9143         os    348    ccc     O6   9143 -0.26013600  16.000000   ; qtot 0.012610
; residue  349 ccc rtp ccc q 0.0
 9144         c3    349    ccc     C1   9144 -0.33178800  12.010000   ; qtot -0.319178
 9145         c3    349    ccc     C2   9145 0.30606500  12.010000   ; qtot -0.013113
 9146         h1    349    ccc     H1   9146 0.11662300   1.008000   ; qtot 0.103510
 9147         h1    349    ccc     H2   9147 0.11526800   1.008000   ; qtot 0.218778
 9148         c3    349    ccc     C3   9148 0.15592700  12.010000   ; qtot 0.374705
 9149         c3    349    ccc     C4   9149 0.28383300  12.010000   ; qtot 0.658538
 9150         c3    349    ccc     C5   9150 0.32403300  12.010000   ; qtot 0.982571
 9151         h1    349    ccc     H3   9151 0.13386900   1.008000   ; qtot 1.116440
 9152         h1    349    ccc     H4   9152 0.10146700   1.008000   ; qtot 1.217907
 9153         h2    349    ccc     H5   9153 0.10960400   1.008000   ; qtot 1.327511
 9154         os    349    ccc     O1   9154 -0.28650000  16.000000   ; qtot 1.041011
 9155         oh    349    ccc     O2   9155 -0.86012500  16.000000   ; qtot 0.180886
 9156         oh    349    ccc     O3   9156 -0.83772800  16.000000   ; qtot -0.656842
 9157         oh    349    ccc     O4   9157 -0.77449700  16.000000   ; qtot -1.431339
 9158         c3    349    ccc     C6   9158 0.37576500  12.010000   ; qtot -1.055574
 9159         ho    349    ccc     H6   9159 0.53656000   1.008000   ; qtot -0.519014
 9160         ho    349    ccc     H7   9160 0.49492100   1.008000   ; qtot -0.024093
 9161         ho    349    ccc     H8   9161 0.51297200   1.008000   ; qtot 0.488879
 9162         h1    349    ccc     H9   9162 0.05653400   1.008000   ; qtot 0.545413
 9163         h1    349    ccc    H10   9163 0.05653400   1.008000   ; qtot 0.601947
 9164         oh    349    ccc     O5   9164 -0.84113600  16.000000   ; qtot -0.239189
 9165         ho    349    ccc    H11   9165 0.51201600   1.008000   ; qtot 0.272827
 9166         os    349    ccc     O6   9166 -0.26013600  16.000000   ; qtot 0.012691
; residue  350 ccc rtp ccc q 0.0
 9167         c3    350    ccc     C1   9167 -0.33178800  12.010000   ; qtot -0.319097
 9168         c3    350    ccc     C2   9168 0.30606500  12.010000   ; qtot -0.013032
 9169         h1    350    ccc     H1   9169 0.11662300   1.008000   ; qtot 0.103591
 9170         h1    350    ccc     H2   9170 0.11526800   1.008000   ; qtot 0.218859
 9171         c3    350    ccc     C3   9171 0.15592700  12.010000   ; qtot 0.374786
 9172         c3    350    ccc     C4   9172 0.28383300  12.010000   ; qtot 0.658619
 9173         c3    350    ccc     C5   9173 0.32403300  12.010000   ; qtot 0.982652
 9174         h1    350    ccc     H3   9174 0.13386900   1.008000   ; qtot 1.116521
 9175         h1    350    ccc     H4   9175 0.10146700   1.008000   ; qtot 1.217988
 9176         h2    350    ccc     H5   9176 0.10960400   1.008000   ; qtot 1.327592
 9177         os    350    ccc     O1   9177 -0.28650000  16.000000   ; qtot 1.041092
 9178         oh    350    ccc     O2   9178 -0.86012500  16.000000   ; qtot 0.180967
 9179         oh    350    ccc     O3   9179 -0.83772800  16.000000   ; qtot -0.656761
 9180         oh    350    ccc     O4   9180 -0.77449700  16.000000   ; qtot -1.431258
 9181         c3    350    ccc     C6   9181 0.37576500  12.010000   ; qtot -1.055493
 9182         ho    350    ccc     H6   9182 0.53656000   1.008000   ; qtot -0.518933
 9183         ho    350    ccc     H7   9183 0.49492100   1.008000   ; qtot -0.024012
 9184         ho    350    ccc     H8   9184 0.51297200   1.008000   ; qtot 0.488960
 9185         h1    350    ccc     H9   9185 0.05653400   1.008000   ; qtot 0.545494
 9186         h1    350    ccc    H10   9186 0.05653400   1.008000   ; qtot 0.602028
 9187         oh    350    ccc     O5   9187 -0.84113600  16.000000   ; qtot -0.239108
 9188         ho    350    ccc    H11   9188 0.51201600   1.008000   ; qtot 0.272908
 9189         os    350    ccc     O6   9189 -0.26013600  16.000000   ; qtot 0.012772
; residue  351 ccc rtp ccc q 0.0
 9190         c3    351    ccc     C1   9190 -0.33178800  12.010000   ; qtot -0.319016
 9191         c3    351    ccc     C2   9191 0.30606500  12.010000   ; qtot -0.012951
 9192         h1    351    ccc     H1   9192 0.11662300   1.008000   ; qtot 0.103672
 9193         h1    351    ccc     H2   9193 0.11526800   1.008000   ; qtot 0.218940
 9194         c3    351    ccc     C3   9194 0.15592700  12.010000   ; qtot 0.374867
 9195         c3    351    ccc     C4   9195 0.28383300  12.010000   ; qtot 0.658700
 9196         c3    351    ccc     C5   9196 0.32403300  12.010000   ; qtot 0.982733
 9197         h1    351    ccc     H3   9197 0.13386900   1.008000   ; qtot 1.116602
 9198         h1    351    ccc     H4   9198 0.10146700   1.008000   ; qtot 1.218069
 9199         h2    351    ccc     H5   9199 0.10960400   1.008000   ; qtot 1.327673
 9200         os    351    ccc     O1   9200 -0.28650000  16.000000   ; qtot 1.041173
 9201         oh    351    ccc     O2   9201 -0.86012500  16.000000   ; qtot 0.181048
 9202         oh    351    ccc     O3   9202 -0.83772800  16.000000   ; qtot -0.656680
 9203         oh    351    ccc     O4   9203 -0.77449700  16.000000   ; qtot -1.431177
 9204         c3    351    ccc     C6   9204 0.37576500  12.010000   ; qtot -1.055412
 9205         ho    351    ccc     H6   9205 0.53656000   1.008000   ; qtot -0.518852
 9206         ho    351    ccc     H7   9206 0.49492100   1.008000   ; qtot -0.023931
 9207         ho    351    ccc     H8   9207 0.51297200   1.008000   ; qtot 0.489041
 9208         h1    351    ccc     H9   9208 0.05653400   1.008000   ; qtot 0.545575
 9209         h1    351    ccc    H10   9209 0.05653400   1.008000   ; qtot 0.602109
 9210         oh    351    ccc     O5   9210 -0.84113600  16.000000   ; qtot -0.239027
 9211         ho    351    ccc    H11   9211 0.51201600   1.008000   ; qtot 0.272989
 9212         os    351    ccc     O6   9212 -0.26013600  16.000000   ; qtot 0.012853
; residue  352 ccc rtp ccc q 0.0
 9213         c3    352    ccc     C1   9213 -0.33178800  12.010000   ; qtot -0.318935
 9214         c3    352    ccc     C2   9214 0.30606500  12.010000   ; qtot -0.012870
 9215         h1    352    ccc     H1   9215 0.11662300   1.008000   ; qtot 0.103753
 9216         h1    352    ccc     H2   9216 0.11526800   1.008000   ; qtot 0.219021
 9217         c3    352    ccc     C3   9217 0.15592700  12.010000   ; qtot 0.374948
 9218         c3    352    ccc     C4   9218 0.28383300  12.010000   ; qtot 0.658781
 9219         c3    352    ccc     C5   9219 0.32403300  12.010000   ; qtot 0.982814
 9220         h1    352    ccc     H3   9220 0.13386900   1.008000   ; qtot 1.116683
 9221         h1    352    ccc     H4   9221 0.10146700   1.008000   ; qtot 1.218150
 9222         h2    352    ccc     H5   9222 0.10960400   1.008000   ; qtot 1.327754
 9223         os    352    ccc     O1   9223 -0.28650000  16.000000   ; qtot 1.041254
 9224         oh    352    ccc     O2   9224 -0.86012500  16.000000   ; qtot 0.181129
 9225         oh    352    ccc     O3   9225 -0.83772800  16.000000   ; qtot -0.656599
 9226         oh    352    ccc     O4   9226 -0.77449700  16.000000   ; qtot -1.431096
 9227         c3    352    ccc     C6   9227 0.37576500  12.010000   ; qtot -1.055331
 9228         ho    352    ccc     H6   9228 0.53656000   1.008000   ; qtot -0.518771
 9229         ho    352    ccc     H7   9229 0.49492100   1.008000   ; qtot -0.023850
 9230         ho    352    ccc     H8   9230 0.51297200   1.008000   ; qtot 0.489122
 9231         h1    352    ccc     H9   9231 0.05653400   1.008000   ; qtot 0.545656
 9232         h1    352    ccc    H10   9232 0.05653400   1.008000   ; qtot 0.602190
 9233         oh    352    ccc     O5   9233 -0.84113600  16.000000   ; qtot -0.238946
 9234         ho    352    ccc    H11   9234 0.51201600   1.008000   ; qtot 0.273070
 9235         os    352    ccc     O6   9235 -0.26013600  16.000000   ; qtot 0.012934
; residue  353 ccc rtp ccc q 0.0
 9236         c3    353    ccc     C1   9236 -0.33178800  12.010000   ; qtot -0.318854
 9237         c3    353    ccc     C2   9237 0.30606500  12.010000   ; qtot -0.012789
 9238         h1    353    ccc     H1   9238 0.11662300   1.008000   ; qtot 0.103834
 9239         h1    353    ccc     H2   9239 0.11526800   1.008000   ; qtot 0.219102
 9240         c3    353    ccc     C3   9240 0.15592700  12.010000   ; qtot 0.375029
 9241         c3    353    ccc     C4   9241 0.28383300  12.010000   ; qtot 0.658862
 9242         c3    353    ccc     C5   9242 0.32403300  12.010000   ; qtot 0.982895
 9243         h1    353    ccc     H3   9243 0.13386900   1.008000   ; qtot 1.116764
 9244         h1    353    ccc     H4   9244 0.10146700   1.008000   ; qtot 1.218231
 9245         h2    353    ccc     H5   9245 0.10960400   1.008000   ; qtot 1.327835
 9246         os    353    ccc     O1   9246 -0.28650000  16.000000   ; qtot 1.041335
 9247         oh    353    ccc     O2   9247 -0.86012500  16.000000   ; qtot 0.181210
 9248         oh    353    ccc     O3   9248 -0.83772800  16.000000   ; qtot -0.656518
 9249         oh    353    ccc     O4   9249 -0.77449700  16.000000   ; qtot -1.431015
 9250         c3    353    ccc     C6   9250 0.37576500  12.010000   ; qtot -1.055250
 9251         ho    353    ccc     H6   9251 0.53656000   1.008000   ; qtot -0.518690
 9252         ho    353    ccc     H7   9252 0.49492100   1.008000   ; qtot -0.023769
 9253         ho    353    ccc     H8   9253 0.51297200   1.008000   ; qtot 0.489203
 9254         h1    353    ccc     H9   9254 0.05653400   1.008000   ; qtot 0.545737
 9255         h1    353    ccc    H10   9255 0.05653400   1.008000   ; qtot 0.602271
 9256         oh    353    ccc     O5   9256 -0.84113600  16.000000   ; qtot -0.238865
 9257         ho    353    ccc    H11   9257 0.51201600   1.008000   ; qtot 0.273151
 9258         os    353    ccc     O6   9258 -0.26013600  16.000000   ; qtot 0.013015
; residue  354 ccc rtp ccc q 0.0
 9259         c3    354    ccc     C1   9259 -0.33178800  12.010000   ; qtot -0.318773
 9260         c3    354    ccc     C2   9260 0.30606500  12.010000   ; qtot -0.012708
 9261         h1    354    ccc     H1   9261 0.11662300   1.008000   ; qtot 0.103915
 9262         h1    354    ccc     H2   9262 0.11526800   1.008000   ; qtot 0.219183
 9263         c3    354    ccc     C3   9263 0.15592700  12.010000   ; qtot 0.375110
 9264         c3    354    ccc     C4   9264 0.28383300  12.010000   ; qtot 0.658943
 9265         c3    354    ccc     C5   9265 0.32403300  12.010000   ; qtot 0.982976
 9266         h1    354    ccc     H3   9266 0.13386900   1.008000   ; qtot 1.116845
 9267         h1    354    ccc     H4   9267 0.10146700   1.008000   ; qtot 1.218312
 9268         h2    354    ccc     H5   9268 0.10960400   1.008000   ; qtot 1.327916
 9269         os    354    ccc     O1   9269 -0.28650000  16.000000   ; qtot 1.041416
 9270         oh    354    ccc     O2   9270 -0.86012500  16.000000   ; qtot 0.181291
 9271         oh    354    ccc     O3   9271 -0.83772800  16.000000   ; qtot -0.656437
 9272         oh    354    ccc     O4   9272 -0.77449700  16.000000   ; qtot -1.430934
 9273         c3    354    ccc     C6   9273 0.37576500  12.010000   ; qtot -1.055169
 9274         ho    354    ccc     H6   9274 0.53656000   1.008000   ; qtot -0.518609
 9275         ho    354    ccc     H7   9275 0.49492100   1.008000   ; qtot -0.023688
 9276         ho    354    ccc     H8   9276 0.51297200   1.008000   ; qtot 0.489284
 9277         h1    354    ccc     H9   9277 0.05653400   1.008000   ; qtot 0.545818
 9278         h1    354    ccc    H10   9278 0.05653400   1.008000   ; qtot 0.602352
 9279         oh    354    ccc     O5   9279 -0.84113600  16.000000   ; qtot -0.238784
 9280         ho    354    ccc    H11   9280 0.51201600   1.008000   ; qtot 0.273232
 9281         os    354    ccc     O6   9281 -0.26013600  16.000000   ; qtot 0.013096
; residue  355 ccc rtp ccc q 0.0
 9282         c3    355    ccc     C1   9282 -0.33178800  12.010000   ; qtot -0.318692
 9283         c3    355    ccc     C2   9283 0.30606500  12.010000   ; qtot -0.012627
 9284         h1    355    ccc     H1   9284 0.11662300   1.008000   ; qtot 0.103996
 9285         h1    355    ccc     H2   9285 0.11526800   1.008000   ; qtot 0.219264
 9286         c3    355    ccc     C3   9286 0.15592700  12.010000   ; qtot 0.375191
 9287         c3    355    ccc     C4   9287 0.28383300  12.010000   ; qtot 0.659024
 9288         c3    355    ccc     C5   9288 0.32403300  12.010000   ; qtot 0.983057
 9289         h1    355    ccc     H3   9289 0.13386900   1.008000   ; qtot 1.116926
 9290         h1    355    ccc     H4   9290 0.10146700   1.008000   ; qtot 1.218393
 9291         h2    355    ccc     H5   9291 0.10960400   1.008000   ; qtot 1.327997
 9292         os    355    ccc     O1   9292 -0.28650000  16.000000   ; qtot 1.041497
 9293         oh    355    ccc     O2   9293 -0.86012500  16.000000   ; qtot 0.181372
 9294         oh    355    ccc     O3   9294 -0.83772800  16.000000   ; qtot -0.656356
 9295         oh    355    ccc     O4   9295 -0.77449700  16.000000   ; qtot -1.430853
 9296         c3    355    ccc     C6   9296 0.37576500  12.010000   ; qtot -1.055088
 9297         ho    355    ccc     H6   9297 0.53656000   1.008000   ; qtot -0.518528
 9298         ho    355    ccc     H7   9298 0.49492100   1.008000   ; qtot -0.023607
 9299         ho    355    ccc     H8   9299 0.51297200   1.008000   ; qtot 0.489365
 9300         h1    355    ccc     H9   9300 0.05653400   1.008000   ; qtot 0.545899
 9301         h1    355    ccc    H10   9301 0.05653400   1.008000   ; qtot 0.602433
 9302         oh    355    ccc     O5   9302 -0.84113600  16.000000   ; qtot -0.238703
 9303         ho    355    ccc    H11   9303 0.51201600   1.008000   ; qtot 0.273313
 9304         os    355    ccc     O6   9304 -0.26013600  16.000000   ; qtot 0.013177
; residue  356 ccc rtp ccc q 0.0
 9305         c3    356    ccc     C1   9305 -0.33178800  12.010000   ; qtot -0.318611
 9306         c3    356    ccc     C2   9306 0.30606500  12.010000   ; qtot -0.012546
 9307         h1    356    ccc     H1   9307 0.11662300   1.008000   ; qtot 0.104077
 9308         h1    356    ccc     H2   9308 0.11526800   1.008000   ; qtot 0.219345
 9309         c3    356    ccc     C3   9309 0.15592700  12.010000   ; qtot 0.375272
 9310         c3    356    ccc     C4   9310 0.28383300  12.010000   ; qtot 0.659105
 9311         c3    356    ccc     C5   9311 0.32403300  12.010000   ; qtot 0.983138
 9312         h1    356    ccc     H3   9312 0.13386900   1.008000   ; qtot 1.117007
 9313         h1    356    ccc     H4   9313 0.10146700   1.008000   ; qtot 1.218474
 9314         h2    356    ccc     H5   9314 0.10960400   1.008000   ; qtot 1.328078
 9315         os    356    ccc     O1   9315 -0.28650000  16.000000   ; qtot 1.041578
 9316         oh    356    ccc     O2   9316 -0.86012500  16.000000   ; qtot 0.181453
 9317         oh    356    ccc     O3   9317 -0.83772800  16.000000   ; qtot -0.656275
 9318         oh    356    ccc     O4   9318 -0.77449700  16.000000   ; qtot -1.430772
 9319         c3    356    ccc     C6   9319 0.37576500  12.010000   ; qtot -1.055007
 9320         ho    356    ccc     H6   9320 0.53656000   1.008000   ; qtot -0.518447
 9321         ho    356    ccc     H7   9321 0.49492100   1.008000   ; qtot -0.023526
 9322         ho    356    ccc     H8   9322 0.51297200   1.008000   ; qtot 0.489446
 9323         h1    356    ccc     H9   9323 0.05653400   1.008000   ; qtot 0.545980
 9324         h1    356    ccc    H10   9324 0.05653400   1.008000   ; qtot 0.602514
 9325         oh    356    ccc     O5   9325 -0.84113600  16.000000   ; qtot -0.238622
 9326         ho    356    ccc    H11   9326 0.51201600   1.008000   ; qtot 0.273394
 9327         os    356    ccc     O6   9327 -0.26013600  16.000000   ; qtot 0.013258
; residue  357 ccc rtp ccc q 0.0
 9328         c3    357    ccc     C1   9328 -0.33178800  12.010000   ; qtot -0.318530
 9329         c3    357    ccc     C2   9329 0.30606500  12.010000   ; qtot -0.012465
 9330         h1    357    ccc     H1   9330 0.11662300   1.008000   ; qtot 0.104158
 9331         h1    357    ccc     H2   9331 0.11526800   1.008000   ; qtot 0.219426
 9332         c3    357    ccc     C3   9332 0.15592700  12.010000   ; qtot 0.375353
 9333         c3    357    ccc     C4   9333 0.28383300  12.010000   ; qtot 0.659186
 9334         c3    357    ccc     C5   9334 0.32403300  12.010000   ; qtot 0.983219
 9335         h1    357    ccc     H3   9335 0.13386900   1.008000   ; qtot 1.117088
 9336         h1    357    ccc     H4   9336 0.10146700   1.008000   ; qtot 1.218555
 9337         h2    357    ccc     H5   9337 0.10960400   1.008000   ; qtot 1.328159
 9338         os    357    ccc     O1   9338 -0.28650000  16.000000   ; qtot 1.041659
 9339         oh    357    ccc     O2   9339 -0.86012500  16.000000   ; qtot 0.181534
 9340         oh    357    ccc     O3   9340 -0.83772800  16.000000   ; qtot -0.656194
 9341         oh    357    ccc     O4   9341 -0.77449700  16.000000   ; qtot -1.430691
 9342         c3    357    ccc     C6   9342 0.37576500  12.010000   ; qtot -1.054926
 9343         ho    357    ccc     H6   9343 0.53656000   1.008000   ; qtot -0.518366
 9344         ho    357    ccc     H7   9344 0.49492100   1.008000   ; qtot -0.023445
 9345         ho    357    ccc     H8   9345 0.51297200   1.008000   ; qtot 0.489527
 9346         h1    357    ccc     H9   9346 0.05653400   1.008000   ; qtot 0.546061
 9347         h1    357    ccc    H10   9347 0.05653400   1.008000   ; qtot 0.602595
 9348         oh    357    ccc     O5   9348 -0.84113600  16.000000   ; qtot -0.238541
 9349         ho    357    ccc    H11   9349 0.51201600   1.008000   ; qtot 0.273475
 9350         os    357    ccc     O6   9350 -0.26013600  16.000000   ; qtot 0.013339
; residue  358 ccc rtp ccc q 0.0
 9351         c3    358    ccc     C1   9351 -0.33178800  12.010000   ; qtot -0.318449
 9352         c3    358    ccc     C2   9352 0.30606500  12.010000   ; qtot -0.012384
 9353         h1    358    ccc     H1   9353 0.11662300   1.008000   ; qtot 0.104239
 9354         h1    358    ccc     H2   9354 0.11526800   1.008000   ; qtot 0.219507
 9355         c3    358    ccc     C3   9355 0.15592700  12.010000   ; qtot 0.375434
 9356         c3    358    ccc     C4   9356 0.28383300  12.010000   ; qtot 0.659267
 9357         c3    358    ccc     C5   9357 0.32403300  12.010000   ; qtot 0.983300
 9358         h1    358    ccc     H3   9358 0.13386900   1.008000   ; qtot 1.117169
 9359         h1    358    ccc     H4   9359 0.10146700   1.008000   ; qtot 1.218636
 9360         h2    358    ccc     H5   9360 0.10960400   1.008000   ; qtot 1.328240
 9361         os    358    ccc     O1   9361 -0.28650000  16.000000   ; qtot 1.041740
 9362         oh    358    ccc     O2   9362 -0.86012500  16.000000   ; qtot 0.181615
 9363         oh    358    ccc     O3   9363 -0.83772800  16.000000   ; qtot -0.656113
 9364         oh    358    ccc     O4   9364 -0.77449700  16.000000   ; qtot -1.430610
 9365         c3    358    ccc     C6   9365 0.37576500  12.010000   ; qtot -1.054845
 9366         ho    358    ccc     H6   9366 0.53656000   1.008000   ; qtot -0.518285
 9367         ho    358    ccc     H7   9367 0.49492100   1.008000   ; qtot -0.023364
 9368         ho    358    ccc     H8   9368 0.51297200   1.008000   ; qtot 0.489608
 9369         h1    358    ccc     H9   9369 0.05653400   1.008000   ; qtot 0.546142
 9370         h1    358    ccc    H10   9370 0.05653400   1.008000   ; qtot 0.602676
 9371         oh    358    ccc     O5   9371 -0.84113600  16.000000   ; qtot -0.238460
 9372         ho    358    ccc    H11   9372 0.51201600   1.008000   ; qtot 0.273556
 9373         os    358    ccc     O6   9373 -0.26013600  16.000000   ; qtot 0.013420
; residue  359 ccc rtp ccc q 0.0
 9374         c3    359    ccc     C1   9374 -0.33178800  12.010000   ; qtot -0.318368
 9375         c3    359    ccc     C2   9375 0.30606500  12.010000   ; qtot -0.012303
 9376         h1    359    ccc     H1   9376 0.11662300   1.008000   ; qtot 0.104320
 9377         h1    359    ccc     H2   9377 0.11526800   1.008000   ; qtot 0.219588
 9378         c3    359    ccc     C3   9378 0.15592700  12.010000   ; qtot 0.375515
 9379         c3    359    ccc     C4   9379 0.28383300  12.010000   ; qtot 0.659348
 9380         c3    359    ccc     C5   9380 0.32403300  12.010000   ; qtot 0.983381
 9381         h1    359    ccc     H3   9381 0.13386900   1.008000   ; qtot 1.117250
 9382         h1    359    ccc     H4   9382 0.10146700   1.008000   ; qtot 1.218717
 9383         h2    359    ccc     H5   9383 0.10960400   1.008000   ; qtot 1.328321
 9384         os    359    ccc     O1   9384 -0.28650000  16.000000   ; qtot 1.041821
 9385         oh    359    ccc     O2   9385 -0.86012500  16.000000   ; qtot 0.181696
 9386         oh    359    ccc     O3   9386 -0.83772800  16.000000   ; qtot -0.656032
 9387         oh    359    ccc     O4   9387 -0.77449700  16.000000   ; qtot -1.430529
 9388         c3    359    ccc     C6   9388 0.37576500  12.010000   ; qtot -1.054764
 9389         ho    359    ccc     H6   9389 0.53656000   1.008000   ; qtot -0.518204
 9390         ho    359    ccc     H7   9390 0.49492100   1.008000   ; qtot -0.023283
 9391         ho    359    ccc     H8   9391 0.51297200   1.008000   ; qtot 0.489689
 9392         h1    359    ccc     H9   9392 0.05653400   1.008000   ; qtot 0.546223
 9393         h1    359    ccc    H10   9393 0.05653400   1.008000   ; qtot 0.602757
 9394         oh    359    ccc     O5   9394 -0.84113600  16.000000   ; qtot -0.238379
 9395         ho    359    ccc    H11   9395 0.51201600   1.008000   ; qtot 0.273637
 9396         os    359    ccc     O6   9396 -0.26013600  16.000000   ; qtot 0.013501
; residue  360 ccc rtp ccc q 0.0
 9397         c3    360    ccc     C1   9397 -0.33178800  12.010000   ; qtot -0.318287
 9398         c3    360    ccc     C2   9398 0.30606500  12.010000   ; qtot -0.012222
 9399         h1    360    ccc     H1   9399 0.11662300   1.008000   ; qtot 0.104401
 9400         h1    360    ccc     H2   9400 0.11526800   1.008000   ; qtot 0.219669
 9401         c3    360    ccc     C3   9401 0.15592700  12.010000   ; qtot 0.375596
 9402         c3    360    ccc     C4   9402 0.28383300  12.010000   ; qtot 0.659429
 9403         c3    360    ccc     C5   9403 0.32403300  12.010000   ; qtot 0.983462
 9404         h1    360    ccc     H3   9404 0.13386900   1.008000   ; qtot 1.117331
 9405         h1    360    ccc     H4   9405 0.10146700   1.008000   ; qtot 1.218798
 9406         h2    360    ccc     H5   9406 0.10960400   1.008000   ; qtot 1.328402
 9407         os    360    ccc     O1   9407 -0.28650000  16.000000   ; qtot 1.041902
 9408         oh    360    ccc     O2   9408 -0.86012500  16.000000   ; qtot 0.181777
 9409         oh    360    ccc     O3   9409 -0.83772800  16.000000   ; qtot -0.655951
 9410         oh    360    ccc     O4   9410 -0.77449700  16.000000   ; qtot -1.430448
 9411         c3    360    ccc     C6   9411 0.37576500  12.010000   ; qtot -1.054683
 9412         ho    360    ccc     H6   9412 0.53656000   1.008000   ; qtot -0.518123
 9413         ho    360    ccc     H7   9413 0.49492100   1.008000   ; qtot -0.023202
 9414         ho    360    ccc     H8   9414 0.51297200   1.008000   ; qtot 0.489770
 9415         h1    360    ccc     H9   9415 0.05653400   1.008000   ; qtot 0.546304
 9416         h1    360    ccc    H10   9416 0.05653400   1.008000   ; qtot 0.602838
 9417         oh    360    ccc     O5   9417 -0.84113600  16.000000   ; qtot -0.238298
 9418         ho    360    ccc    H11   9418 0.51201600   1.008000   ; qtot 0.273718
 9419         os    360    ccc     O6   9419 -0.26013600  16.000000   ; qtot 0.013582
; residue  361 ccc rtp ccc q 0.0
 9420         c3    361    ccc     C1   9420 -0.33178800  12.010000   ; qtot -0.318206
 9421         c3    361    ccc     C2   9421 0.30606500  12.010000   ; qtot -0.012141
 9422         h1    361    ccc     H1   9422 0.11662300   1.008000   ; qtot 0.104482
 9423         h1    361    ccc     H2   9423 0.11526800   1.008000   ; qtot 0.219750
 9424         c3    361    ccc     C3   9424 0.15592700  12.010000   ; qtot 0.375677
 9425         c3    361    ccc     C4   9425 0.28383300  12.010000   ; qtot 0.659510
 9426         c3    361    ccc     C5   9426 0.32403300  12.010000   ; qtot 0.983543
 9427         h1    361    ccc     H3   9427 0.13386900   1.008000   ; qtot 1.117412
 9428         h1    361    ccc     H4   9428 0.10146700   1.008000   ; qtot 1.218879
 9429         h2    361    ccc     H5   9429 0.10960400   1.008000   ; qtot 1.328483
 9430         os    361    ccc     O1   9430 -0.28650000  16.000000   ; qtot 1.041983
 9431         oh    361    ccc     O2   9431 -0.86012500  16.000000   ; qtot 0.181858
 9432         oh    361    ccc     O3   9432 -0.83772800  16.000000   ; qtot -0.655870
 9433         oh    361    ccc     O4   9433 -0.77449700  16.000000   ; qtot -1.430367
 9434         c3    361    ccc     C6   9434 0.37576500  12.010000   ; qtot -1.054602
 9435         ho    361    ccc     H6   9435 0.53656000   1.008000   ; qtot -0.518042
 9436         ho    361    ccc     H7   9436 0.49492100   1.008000   ; qtot -0.023121
 9437         ho    361    ccc     H8   9437 0.51297200   1.008000   ; qtot 0.489851
 9438         h1    361    ccc     H9   9438 0.05653400   1.008000   ; qtot 0.546385
 9439         h1    361    ccc    H10   9439 0.05653400   1.008000   ; qtot 0.602919
 9440         oh    361    ccc     O5   9440 -0.84113600  16.000000   ; qtot -0.238217
 9441         ho    361    ccc    H11   9441 0.51201600   1.008000   ; qtot 0.273799
 9442         os    361    ccc     O6   9442 -0.26013600  16.000000   ; qtot 0.013663
; residue  362 ccc rtp ccc q 0.0
 9443         c3    362    ccc     C1   9443 -0.33178800  12.010000   ; qtot -0.318125
 9444         c3    362    ccc     C2   9444 0.30606500  12.010000   ; qtot -0.012060
 9445         h1    362    ccc     H1   9445 0.11662300   1.008000   ; qtot 0.104563
 9446         h1    362    ccc     H2   9446 0.11526800   1.008000   ; qtot 0.219831
 9447         c3    362    ccc     C3   9447 0.15592700  12.010000   ; qtot 0.375758
 9448         c3    362    ccc     C4   9448 0.28383300  12.010000   ; qtot 0.659591
 9449         c3    362    ccc     C5   9449 0.32403300  12.010000   ; qtot 0.983624
 9450         h1    362    ccc     H3   9450 0.13386900   1.008000   ; qtot 1.117493
 9451         h1    362    ccc     H4   9451 0.10146700   1.008000   ; qtot 1.218960
 9452         h2    362    ccc     H5   9452 0.10960400   1.008000   ; qtot 1.328564
 9453         os    362    ccc     O1   9453 -0.28650000  16.000000   ; qtot 1.042064
 9454         oh    362    ccc     O2   9454 -0.86012500  16.000000   ; qtot 0.181939
 9455         oh    362    ccc     O3   9455 -0.83772800  16.000000   ; qtot -0.655789
 9456         oh    362    ccc     O4   9456 -0.77449700  16.000000   ; qtot -1.430286
 9457         c3    362    ccc     C6   9457 0.37576500  12.010000   ; qtot -1.054521
 9458         ho    362    ccc     H6   9458 0.53656000   1.008000   ; qtot -0.517961
 9459         ho    362    ccc     H7   9459 0.49492100   1.008000   ; qtot -0.023040
 9460         ho    362    ccc     H8   9460 0.51297200   1.008000   ; qtot 0.489932
 9461         h1    362    ccc     H9   9461 0.05653400   1.008000   ; qtot 0.546466
 9462         h1    362    ccc    H10   9462 0.05653400   1.008000   ; qtot 0.603000
 9463         oh    362    ccc     O5   9463 -0.84113600  16.000000   ; qtot -0.238136
 9464         ho    362    ccc    H11   9464 0.51201600   1.008000   ; qtot 0.273880
 9465         os    362    ccc     O6   9465 -0.26013600  16.000000   ; qtot 0.013744
; residue  363 ccc rtp ccc q 0.0
 9466         c3    363    ccc     C1   9466 -0.33178800  12.010000   ; qtot -0.318044
 9467         c3    363    ccc     C2   9467 0.30606500  12.010000   ; qtot -0.011979
 9468         h1    363    ccc     H1   9468 0.11662300   1.008000   ; qtot 0.104644
 9469         h1    363    ccc     H2   9469 0.11526800   1.008000   ; qtot 0.219912
 9470         c3    363    ccc     C3   9470 0.15592700  12.010000   ; qtot 0.375839
 9471         c3    363    ccc     C4   9471 0.28383300  12.010000   ; qtot 0.659672
 9472         c3    363    ccc     C5   9472 0.32403300  12.010000   ; qtot 0.983705
 9473         h1    363    ccc     H3   9473 0.13386900   1.008000   ; qtot 1.117574
 9474         h1    363    ccc     H4   9474 0.10146700   1.008000   ; qtot 1.219041
 9475         h2    363    ccc     H5   9475 0.10960400   1.008000   ; qtot 1.328645
 9476         os    363    ccc     O1   9476 -0.28650000  16.000000   ; qtot 1.042145
 9477         oh    363    ccc     O2   9477 -0.86012500  16.000000   ; qtot 0.182020
 9478         oh    363    ccc     O3   9478 -0.83772800  16.000000   ; qtot -0.655708
 9479         oh    363    ccc     O4   9479 -0.77449700  16.000000   ; qtot -1.430205
 9480         c3    363    ccc     C6   9480 0.37576500  12.010000   ; qtot -1.054440
 9481         ho    363    ccc     H6   9481 0.53656000   1.008000   ; qtot -0.517880
 9482         ho    363    ccc     H7   9482 0.49492100   1.008000   ; qtot -0.022959
 9483         ho    363    ccc     H8   9483 0.51297200   1.008000   ; qtot 0.490013
 9484         h1    363    ccc     H9   9484 0.05653400   1.008000   ; qtot 0.546547
 9485         h1    363    ccc    H10   9485 0.05653400   1.008000   ; qtot 0.603081
 9486         oh    363    ccc     O5   9486 -0.84113600  16.000000   ; qtot -0.238055
 9487         ho    363    ccc    H11   9487 0.51201600   1.008000   ; qtot 0.273961
 9488         os    363    ccc     O6   9488 -0.26013600  16.000000   ; qtot 0.013825
; residue  364 ccc rtp ccc q 0.0
 9489         c3    364    ccc     C1   9489 -0.33178800  12.010000   ; qtot -0.317963
 9490         c3    364    ccc     C2   9490 0.30606500  12.010000   ; qtot -0.011898
 9491         h1    364    ccc     H1   9491 0.11662300   1.008000   ; qtot 0.104725
 9492         h1    364    ccc     H2   9492 0.11526800   1.008000   ; qtot 0.219993
 9493         c3    364    ccc     C3   9493 0.15592700  12.010000   ; qtot 0.375920
 9494         c3    364    ccc     C4   9494 0.28383300  12.010000   ; qtot 0.659753
 9495         c3    364    ccc     C5   9495 0.32403300  12.010000   ; qtot 0.983786
 9496         h1    364    ccc     H3   9496 0.13386900   1.008000   ; qtot 1.117655
 9497         h1    364    ccc     H4   9497 0.10146700   1.008000   ; qtot 1.219122
 9498         h2    364    ccc     H5   9498 0.10960400   1.008000   ; qtot 1.328726
 9499         os    364    ccc     O1   9499 -0.28650000  16.000000   ; qtot 1.042226
 9500         oh    364    ccc     O2   9500 -0.86012500  16.000000   ; qtot 0.182101
 9501         oh    364    ccc     O3   9501 -0.83772800  16.000000   ; qtot -0.655627
 9502         oh    364    ccc     O4   9502 -0.77449700  16.000000   ; qtot -1.430124
 9503         c3    364    ccc     C6   9503 0.37576500  12.010000   ; qtot -1.054359
 9504         ho    364    ccc     H6   9504 0.53656000   1.008000   ; qtot -0.517799
 9505         ho    364    ccc     H7   9505 0.49492100   1.008000   ; qtot -0.022878
 9506         ho    364    ccc     H8   9506 0.51297200   1.008000   ; qtot 0.490094
 9507         h1    364    ccc     H9   9507 0.05653400   1.008000   ; qtot 0.546628
 9508         h1    364    ccc    H10   9508 0.05653400   1.008000   ; qtot 0.603162
 9509         oh    364    ccc     O5   9509 -0.84113600  16.000000   ; qtot -0.237974
 9510         ho    364    ccc    H11   9510 0.51201600   1.008000   ; qtot 0.274042
 9511         os    364    ccc     O6   9511 -0.26013600  16.000000   ; qtot 0.013906
; residue  365 ccc rtp ccc q 0.0
 9512         c3    365    ccc     C1   9512 -0.33178800  12.010000   ; qtot -0.317882
 9513         c3    365    ccc     C2   9513 0.30606500  12.010000   ; qtot -0.011817
 9514         h1    365    ccc     H1   9514 0.11662300   1.008000   ; qtot 0.104806
 9515         h1    365    ccc     H2   9515 0.11526800   1.008000   ; qtot 0.220074
 9516         c3    365    ccc     C3   9516 0.15592700  12.010000   ; qtot 0.376001
 9517         c3    365    ccc     C4   9517 0.28383300  12.010000   ; qtot 0.659834
 9518         c3    365    ccc     C5   9518 0.32403300  12.010000   ; qtot 0.983867
 9519         h1    365    ccc     H3   9519 0.13386900   1.008000   ; qtot 1.117736
 9520         h1    365    ccc     H4   9520 0.10146700   1.008000   ; qtot 1.219203
 9521         h2    365    ccc     H5   9521 0.10960400   1.008000   ; qtot 1.328807
 9522         os    365    ccc     O1   9522 -0.28650000  16.000000   ; qtot 1.042307
 9523         oh    365    ccc     O2   9523 -0.86012500  16.000000   ; qtot 0.182182
 9524         oh    365    ccc     O3   9524 -0.83772800  16.000000   ; qtot -0.655546
 9525         oh    365    ccc     O4   9525 -0.77449700  16.000000   ; qtot -1.430043
 9526         c3    365    ccc     C6   9526 0.37576500  12.010000   ; qtot -1.054278
 9527         ho    365    ccc     H6   9527 0.53656000   1.008000   ; qtot -0.517718
 9528         ho    365    ccc     H7   9528 0.49492100   1.008000   ; qtot -0.022797
 9529         ho    365    ccc     H8   9529 0.51297200   1.008000   ; qtot 0.490175
 9530         h1    365    ccc     H9   9530 0.05653400   1.008000   ; qtot 0.546709
 9531         h1    365    ccc    H10   9531 0.05653400   1.008000   ; qtot 0.603243
 9532         oh    365    ccc     O5   9532 -0.84113600  16.000000   ; qtot -0.237893
 9533         ho    365    ccc    H11   9533 0.51201600   1.008000   ; qtot 0.274123
 9534         os    365    ccc     O6   9534 -0.26013600  16.000000   ; qtot 0.013987
; residue  366 ccc rtp ccc q 0.0
 9535         c3    366    ccc     C1   9535 -0.33178800  12.010000   ; qtot -0.317801
 9536         c3    366    ccc     C2   9536 0.30606500  12.010000   ; qtot -0.011736
 9537         h1    366    ccc     H1   9537 0.11662300   1.008000   ; qtot 0.104887
 9538         h1    366    ccc     H2   9538 0.11526800   1.008000   ; qtot 0.220155
 9539         c3    366    ccc     C3   9539 0.15592700  12.010000   ; qtot 0.376082
 9540         c3    366    ccc     C4   9540 0.28383300  12.010000   ; qtot 0.659915
 9541         c3    366    ccc     C5   9541 0.32403300  12.010000   ; qtot 0.983948
 9542         h1    366    ccc     H3   9542 0.13386900   1.008000   ; qtot 1.117817
 9543         h1    366    ccc     H4   9543 0.10146700   1.008000   ; qtot 1.219284
 9544         h2    366    ccc     H5   9544 0.10960400   1.008000   ; qtot 1.328888
 9545         os    366    ccc     O1   9545 -0.28650000  16.000000   ; qtot 1.042388
 9546         oh    366    ccc     O2   9546 -0.86012500  16.000000   ; qtot 0.182263
 9547         oh    366    ccc     O3   9547 -0.83772800  16.000000   ; qtot -0.655465
 9548         oh    366    ccc     O4   9548 -0.77449700  16.000000   ; qtot -1.429962
 9549         c3    366    ccc     C6   9549 0.37576500  12.010000   ; qtot -1.054197
 9550         ho    366    ccc     H6   9550 0.53656000   1.008000   ; qtot -0.517637
 9551         ho    366    ccc     H7   9551 0.49492100   1.008000   ; qtot -0.022716
 9552         ho    366    ccc     H8   9552 0.51297200   1.008000   ; qtot 0.490256
 9553         h1    366    ccc     H9   9553 0.05653400   1.008000   ; qtot 0.546790
 9554         h1    366    ccc    H10   9554 0.05653400   1.008000   ; qtot 0.603324
 9555         oh    366    ccc     O5   9555 -0.84113600  16.000000   ; qtot -0.237812
 9556         ho    366    ccc    H11   9556 0.51201600   1.008000   ; qtot 0.274204
 9557         os    366    ccc     O6   9557 -0.26013600  16.000000   ; qtot 0.014068
; residue  367 ccc rtp ccc q 0.0
 9558         c3    367    ccc     C1   9558 -0.33178800  12.010000   ; qtot -0.317720
 9559         c3    367    ccc     C2   9559 0.30606500  12.010000   ; qtot -0.011655
 9560         h1    367    ccc     H1   9560 0.11662300   1.008000   ; qtot 0.104968
 9561         h1    367    ccc     H2   9561 0.11526800   1.008000   ; qtot 0.220236
 9562         c3    367    ccc     C3   9562 0.15592700  12.010000   ; qtot 0.376163
 9563         c3    367    ccc     C4   9563 0.28383300  12.010000   ; qtot 0.659996
 9564         c3    367    ccc     C5   9564 0.32403300  12.010000   ; qtot 0.984029
 9565         h1    367    ccc     H3   9565 0.13386900   1.008000   ; qtot 1.117898
 9566         h1    367    ccc     H4   9566 0.10146700   1.008000   ; qtot 1.219365
 9567         h2    367    ccc     H5   9567 0.10960400   1.008000   ; qtot 1.328969
 9568         os    367    ccc     O1   9568 -0.28650000  16.000000   ; qtot 1.042469
 9569         oh    367    ccc     O2   9569 -0.86012500  16.000000   ; qtot 0.182344
 9570         oh    367    ccc     O3   9570 -0.83772800  16.000000   ; qtot -0.655384
 9571         oh    367    ccc     O4   9571 -0.77449700  16.000000   ; qtot -1.429881
 9572         c3    367    ccc     C6   9572 0.37576500  12.010000   ; qtot -1.054116
 9573         ho    367    ccc     H6   9573 0.53656000   1.008000   ; qtot -0.517556
 9574         ho    367    ccc     H7   9574 0.49492100   1.008000   ; qtot -0.022635
 9575         ho    367    ccc     H8   9575 0.51297200   1.008000   ; qtot 0.490337
 9576         h1    367    ccc     H9   9576 0.05653400   1.008000   ; qtot 0.546871
 9577         h1    367    ccc    H10   9577 0.05653400   1.008000   ; qtot 0.603405
 9578         oh    367    ccc     O5   9578 -0.84113600  16.000000   ; qtot -0.237731
 9579         ho    367    ccc    H11   9579 0.51201600   1.008000   ; qtot 0.274285
 9580         os    367    ccc     O6   9580 -0.26013600  16.000000   ; qtot 0.014149
; residue  368 ccc rtp ccc q 0.0
 9581         c3    368    ccc     C1   9581 -0.33178800  12.010000   ; qtot -0.317639
 9582         c3    368    ccc     C2   9582 0.30606500  12.010000   ; qtot -0.011574
 9583         h1    368    ccc     H1   9583 0.11662300   1.008000   ; qtot 0.105049
 9584         h1    368    ccc     H2   9584 0.11526800   1.008000   ; qtot 0.220317
 9585         c3    368    ccc     C3   9585 0.15592700  12.010000   ; qtot 0.376244
 9586         c3    368    ccc     C4   9586 0.28383300  12.010000   ; qtot 0.660077
 9587         c3    368    ccc     C5   9587 0.32403300  12.010000   ; qtot 0.984110
 9588         h1    368    ccc     H3   9588 0.13386900   1.008000   ; qtot 1.117979
 9589         h1    368    ccc     H4   9589 0.10146700   1.008000   ; qtot 1.219446
 9590         h2    368    ccc     H5   9590 0.10960400   1.008000   ; qtot 1.329050
 9591         os    368    ccc     O1   9591 -0.28650000  16.000000   ; qtot 1.042550
 9592         oh    368    ccc     O2   9592 -0.86012500  16.000000   ; qtot 0.182425
 9593         oh    368    ccc     O3   9593 -0.83772800  16.000000   ; qtot -0.655303
 9594         oh    368    ccc     O4   9594 -0.77449700  16.000000   ; qtot -1.429800
 9595         c3    368    ccc     C6   9595 0.37576500  12.010000   ; qtot -1.054035
 9596         ho    368    ccc     H6   9596 0.53656000   1.008000   ; qtot -0.517475
 9597         ho    368    ccc     H7   9597 0.49492100   1.008000   ; qtot -0.022554
 9598         ho    368    ccc     H8   9598 0.51297200   1.008000   ; qtot 0.490418
 9599         h1    368    ccc     H9   9599 0.05653400   1.008000   ; qtot 0.546952
 9600         h1    368    ccc    H10   9600 0.05653400   1.008000   ; qtot 0.603486
 9601         oh    368    ccc     O5   9601 -0.84113600  16.000000   ; qtot -0.237650
 9602         ho    368    ccc    H11   9602 0.51201600   1.008000   ; qtot 0.274366
 9603         os    368    ccc     O6   9603 -0.26013600  16.000000   ; qtot 0.014230
; residue  369 ccc rtp ccc q 0.0
 9604         c3    369    ccc     C1   9604 -0.33178800  12.010000   ; qtot -0.317558
 9605         c3    369    ccc     C2   9605 0.30606500  12.010000   ; qtot -0.011493
 9606         h1    369    ccc     H1   9606 0.11662300   1.008000   ; qtot 0.105130
 9607         h1    369    ccc     H2   9607 0.11526800   1.008000   ; qtot 0.220398
 9608         c3    369    ccc     C3   9608 0.15592700  12.010000   ; qtot 0.376325
 9609         c3    369    ccc     C4   9609 0.28383300  12.010000   ; qtot 0.660158
 9610         c3    369    ccc     C5   9610 0.32403300  12.010000   ; qtot 0.984191
 9611         h1    369    ccc     H3   9611 0.13386900   1.008000   ; qtot 1.118060
 9612         h1    369    ccc     H4   9612 0.10146700   1.008000   ; qtot 1.219527
 9613         h2    369    ccc     H5   9613 0.10960400   1.008000   ; qtot 1.329131
 9614         os    369    ccc     O1   9614 -0.28650000  16.000000   ; qtot 1.042631
 9615         oh    369    ccc     O2   9615 -0.86012500  16.000000   ; qtot 0.182506
 9616         oh    369    ccc     O3   9616 -0.83772800  16.000000   ; qtot -0.655222
 9617         oh    369    ccc     O4   9617 -0.77449700  16.000000   ; qtot -1.429719
 9618         c3    369    ccc     C6   9618 0.37576500  12.010000   ; qtot -1.053954
 9619         ho    369    ccc     H6   9619 0.53656000   1.008000   ; qtot -0.517394
 9620         ho    369    ccc     H7   9620 0.49492100   1.008000   ; qtot -0.022473
 9621         ho    369    ccc     H8   9621 0.51297200   1.008000   ; qtot 0.490499
 9622         h1    369    ccc     H9   9622 0.05653400   1.008000   ; qtot 0.547033
 9623         h1    369    ccc    H10   9623 0.05653400   1.008000   ; qtot 0.603567
 9624         oh    369    ccc     O5   9624 -0.84113600  16.000000   ; qtot -0.237569
 9625         ho    369    ccc    H11   9625 0.51201600   1.008000   ; qtot 0.274447
 9626         os    369    ccc     O6   9626 -0.26013600  16.000000   ; qtot 0.014311
; residue  370 ccc rtp ccc q 0.0
 9627         c3    370    ccc     C1   9627 -0.33178800  12.010000   ; qtot -0.317477
 9628         c3    370    ccc     C2   9628 0.30606500  12.010000   ; qtot -0.011412
 9629         h1    370    ccc     H1   9629 0.11662300   1.008000   ; qtot 0.105211
 9630         h1    370    ccc     H2   9630 0.11526800   1.008000   ; qtot 0.220479
 9631         c3    370    ccc     C3   9631 0.15592700  12.010000   ; qtot 0.376406
 9632         c3    370    ccc     C4   9632 0.28383300  12.010000   ; qtot 0.660239
 9633         c3    370    ccc     C5   9633 0.32403300  12.010000   ; qtot 0.984272
 9634         h1    370    ccc     H3   9634 0.13386900   1.008000   ; qtot 1.118141
 9635         h1    370    ccc     H4   9635 0.10146700   1.008000   ; qtot 1.219608
 9636         h2    370    ccc     H5   9636 0.10960400   1.008000   ; qtot 1.329212
 9637         os    370    ccc     O1   9637 -0.28650000  16.000000   ; qtot 1.042712
 9638         oh    370    ccc     O2   9638 -0.86012500  16.000000   ; qtot 0.182587
 9639         oh    370    ccc     O3   9639 -0.83772800  16.000000   ; qtot -0.655141
 9640         oh    370    ccc     O4   9640 -0.77449700  16.000000   ; qtot -1.429638
 9641         c3    370    ccc     C6   9641 0.37576500  12.010000   ; qtot -1.053873
 9642         ho    370    ccc     H6   9642 0.53656000   1.008000   ; qtot -0.517313
 9643         ho    370    ccc     H7   9643 0.49492100   1.008000   ; qtot -0.022392
 9644         ho    370    ccc     H8   9644 0.51297200   1.008000   ; qtot 0.490580
 9645         h1    370    ccc     H9   9645 0.05653400   1.008000   ; qtot 0.547114
 9646         h1    370    ccc    H10   9646 0.05653400   1.008000   ; qtot 0.603648
 9647         oh    370    ccc     O5   9647 -0.84113600  16.000000   ; qtot -0.237488
 9648         ho    370    ccc    H11   9648 0.51201600   1.008000   ; qtot 0.274528
 9649         os    370    ccc     O6   9649 -0.26013600  16.000000   ; qtot 0.014392
; residue  371 ccc rtp ccc q 0.0
 9650         c3    371    ccc     C1   9650 -0.33178800  12.010000   ; qtot -0.317396
 9651         c3    371    ccc     C2   9651 0.30606500  12.010000   ; qtot -0.011331
 9652         h1    371    ccc     H1   9652 0.11662300   1.008000   ; qtot 0.105292
 9653         h1    371    ccc     H2   9653 0.11526800   1.008000   ; qtot 0.220560
 9654         c3    371    ccc     C3   9654 0.15592700  12.010000   ; qtot 0.376487
 9655         c3    371    ccc     C4   9655 0.28383300  12.010000   ; qtot 0.660320
 9656         c3    371    ccc     C5   9656 0.32403300  12.010000   ; qtot 0.984353
 9657         h1    371    ccc     H3   9657 0.13386900   1.008000   ; qtot 1.118222
 9658         h1    371    ccc     H4   9658 0.10146700   1.008000   ; qtot 1.219689
 9659         h2    371    ccc     H5   9659 0.10960400   1.008000   ; qtot 1.329293
 9660         os    371    ccc     O1   9660 -0.28650000  16.000000   ; qtot 1.042793
 9661         oh    371    ccc     O2   9661 -0.86012500  16.000000   ; qtot 0.182668
 9662         oh    371    ccc     O3   9662 -0.83772800  16.000000   ; qtot -0.655060
 9663         oh    371    ccc     O4   9663 -0.77449700  16.000000   ; qtot -1.429557
 9664         c3    371    ccc     C6   9664 0.37576500  12.010000   ; qtot -1.053792
 9665         ho    371    ccc     H6   9665 0.53656000   1.008000   ; qtot -0.517232
 9666         ho    371    ccc     H7   9666 0.49492100   1.008000   ; qtot -0.022311
 9667         ho    371    ccc     H8   9667 0.51297200   1.008000   ; qtot 0.490661
 9668         h1    371    ccc     H9   9668 0.05653400   1.008000   ; qtot 0.547195
 9669         h1    371    ccc    H10   9669 0.05653400   1.008000   ; qtot 0.603729
 9670         oh    371    ccc     O5   9670 -0.84113600  16.000000   ; qtot -0.237407
 9671         ho    371    ccc    H11   9671 0.51201600   1.008000   ; qtot 0.274609
 9672         os    371    ccc     O6   9672 -0.26013600  16.000000   ; qtot 0.014473
; residue  372 ccc rtp ccc q 0.0
 9673         c3    372    ccc     C1   9673 -0.33178800  12.010000   ; qtot -0.317315
 9674         c3    372    ccc     C2   9674 0.30606500  12.010000   ; qtot -0.011250
 9675         h1    372    ccc     H1   9675 0.11662300   1.008000   ; qtot 0.105373
 9676         h1    372    ccc     H2   9676 0.11526800   1.008000   ; qtot 0.220641
 9677         c3    372    ccc     C3   9677 0.15592700  12.010000   ; qtot 0.376568
 9678         c3    372    ccc     C4   9678 0.28383300  12.010000   ; qtot 0.660401
 9679         c3    372    ccc     C5   9679 0.32403300  12.010000   ; qtot 0.984434
 9680         h1    372    ccc     H3   9680 0.13386900   1.008000   ; qtot 1.118303
 9681         h1    372    ccc     H4   9681 0.10146700   1.008000   ; qtot 1.219770
 9682         h2    372    ccc     H5   9682 0.10960400   1.008000   ; qtot 1.329374
 9683         os    372    ccc     O1   9683 -0.28650000  16.000000   ; qtot 1.042874
 9684         oh    372    ccc     O2   9684 -0.86012500  16.000000   ; qtot 0.182749
 9685         oh    372    ccc     O3   9685 -0.83772800  16.000000   ; qtot -0.654979
 9686         oh    372    ccc     O4   9686 -0.77449700  16.000000   ; qtot -1.429476
 9687         c3    372    ccc     C6   9687 0.37576500  12.010000   ; qtot -1.053711
 9688         ho    372    ccc     H6   9688 0.53656000   1.008000   ; qtot -0.517151
 9689         ho    372    ccc     H7   9689 0.49492100   1.008000   ; qtot -0.022230
 9690         ho    372    ccc     H8   9690 0.51297200   1.008000   ; qtot 0.490742
 9691         h1    372    ccc     H9   9691 0.05653400   1.008000   ; qtot 0.547276
 9692         h1    372    ccc    H10   9692 0.05653400   1.008000   ; qtot 0.603810
 9693         oh    372    ccc     O5   9693 -0.84113600  16.000000   ; qtot -0.237326
 9694         ho    372    ccc    H11   9694 0.51201600   1.008000   ; qtot 0.274690
 9695         os    372    ccc     O6   9695 -0.26013600  16.000000   ; qtot 0.014554
; residue  373 ccc rtp ccc q 0.0
 9696         c3    373    ccc     C1   9696 -0.33178800  12.010000   ; qtot -0.317234
 9697         c3    373    ccc     C2   9697 0.30606500  12.010000   ; qtot -0.011169
 9698         h1    373    ccc     H1   9698 0.11662300   1.008000   ; qtot 0.105454
 9699         h1    373    ccc     H2   9699 0.11526800   1.008000   ; qtot 0.220722
 9700         c3    373    ccc     C3   9700 0.15592700  12.010000   ; qtot 0.376649
 9701         c3    373    ccc     C4   9701 0.28383300  12.010000   ; qtot 0.660482
 9702         c3    373    ccc     C5   9702 0.32403300  12.010000   ; qtot 0.984515
 9703         h1    373    ccc     H3   9703 0.13386900   1.008000   ; qtot 1.118384
 9704         h1    373    ccc     H4   9704 0.10146700   1.008000   ; qtot 1.219851
 9705         h2    373    ccc     H5   9705 0.10960400   1.008000   ; qtot 1.329455
 9706         os    373    ccc     O1   9706 -0.28650000  16.000000   ; qtot 1.042955
 9707         oh    373    ccc     O2   9707 -0.86012500  16.000000   ; qtot 0.182830
 9708         oh    373    ccc     O3   9708 -0.83772800  16.000000   ; qtot -0.654898
 9709         oh    373    ccc     O4   9709 -0.77449700  16.000000   ; qtot -1.429395
 9710         c3    373    ccc     C6   9710 0.37576500  12.010000   ; qtot -1.053630
 9711         ho    373    ccc     H6   9711 0.53656000   1.008000   ; qtot -0.517070
 9712         ho    373    ccc     H7   9712 0.49492100   1.008000   ; qtot -0.022149
 9713         ho    373    ccc     H8   9713 0.51297200   1.008000   ; qtot 0.490823
 9714         h1    373    ccc     H9   9714 0.05653400   1.008000   ; qtot 0.547357
 9715         h1    373    ccc    H10   9715 0.05653400   1.008000   ; qtot 0.603891
 9716         oh    373    ccc     O5   9716 -0.84113600  16.000000   ; qtot -0.237245
 9717         ho    373    ccc    H11   9717 0.51201600   1.008000   ; qtot 0.274771
 9718         os    373    ccc     O6   9718 -0.26013600  16.000000   ; qtot 0.014635
; residue  374 ccc rtp ccc q 0.0
 9719         c3    374    ccc     C1   9719 -0.33178800  12.010000   ; qtot -0.317153
 9720         c3    374    ccc     C2   9720 0.30606500  12.010000   ; qtot -0.011088
 9721         h1    374    ccc     H1   9721 0.11662300   1.008000   ; qtot 0.105535
 9722         h1    374    ccc     H2   9722 0.11526800   1.008000   ; qtot 0.220803
 9723         c3    374    ccc     C3   9723 0.15592700  12.010000   ; qtot 0.376730
 9724         c3    374    ccc     C4   9724 0.28383300  12.010000   ; qtot 0.660563
 9725         c3    374    ccc     C5   9725 0.32403300  12.010000   ; qtot 0.984596
 9726         h1    374    ccc     H3   9726 0.13386900   1.008000   ; qtot 1.118465
 9727         h1    374    ccc     H4   9727 0.10146700   1.008000   ; qtot 1.219932
 9728         h2    374    ccc     H5   9728 0.10960400   1.008000   ; qtot 1.329536
 9729         os    374    ccc     O1   9729 -0.28650000  16.000000   ; qtot 1.043036
 9730         oh    374    ccc     O2   9730 -0.86012500  16.000000   ; qtot 0.182911
 9731         oh    374    ccc     O3   9731 -0.83772800  16.000000   ; qtot -0.654817
 9732         oh    374    ccc     O4   9732 -0.77449700  16.000000   ; qtot -1.429314
 9733         c3    374    ccc     C6   9733 0.37576500  12.010000   ; qtot -1.053549
 9734         ho    374    ccc     H6   9734 0.53656000   1.008000   ; qtot -0.516989
 9735         ho    374    ccc     H7   9735 0.49492100   1.008000   ; qtot -0.022068
 9736         ho    374    ccc     H8   9736 0.51297200   1.008000   ; qtot 0.490904
 9737         h1    374    ccc     H9   9737 0.05653400   1.008000   ; qtot 0.547438
 9738         h1    374    ccc    H10   9738 0.05653400   1.008000   ; qtot 0.603972
 9739         oh    374    ccc     O5   9739 -0.84113600  16.000000   ; qtot -0.237164
 9740         ho    374    ccc    H11   9740 0.51201600   1.008000   ; qtot 0.274852
 9741         os    374    ccc     O6   9741 -0.26013600  16.000000   ; qtot 0.014716
; residue  375 ccc rtp ccc q 0.0
 9742         c3    375    ccc     C1   9742 -0.33178800  12.010000   ; qtot -0.317072
 9743         c3    375    ccc     C2   9743 0.30606500  12.010000   ; qtot -0.011007
 9744         h1    375    ccc     H1   9744 0.11662300   1.008000   ; qtot 0.105616
 9745         h1    375    ccc     H2   9745 0.11526800   1.008000   ; qtot 0.220884
 9746         c3    375    ccc     C3   9746 0.15592700  12.010000   ; qtot 0.376811
 9747         c3    375    ccc     C4   9747 0.28383300  12.010000   ; qtot 0.660644
 9748         c3    375    ccc     C5   9748 0.32403300  12.010000   ; qtot 0.984677
 9749         h1    375    ccc     H3   9749 0.13386900   1.008000   ; qtot 1.118546
 9750         h1    375    ccc     H4   9750 0.10146700   1.008000   ; qtot 1.220013
 9751         h2    375    ccc     H5   9751 0.10960400   1.008000   ; qtot 1.329617
 9752         os    375    ccc     O1   9752 -0.28650000  16.000000   ; qtot 1.043117
 9753         oh    375    ccc     O2   9753 -0.86012500  16.000000   ; qtot 0.182992
 9754         oh    375    ccc     O3   9754 -0.83772800  16.000000   ; qtot -0.654736
 9755         oh    375    ccc     O4   9755 -0.77449700  16.000000   ; qtot -1.429233
 9756         c3    375    ccc     C6   9756 0.37576500  12.010000   ; qtot -1.053468
 9757         ho    375    ccc     H6   9757 0.53656000   1.008000   ; qtot -0.516908
 9758         ho    375    ccc     H7   9758 0.49492100   1.008000   ; qtot -0.021987
 9759         ho    375    ccc     H8   9759 0.51297200   1.008000   ; qtot 0.490985
 9760         h1    375    ccc     H9   9760 0.05653400   1.008000   ; qtot 0.547519
 9761         h1    375    ccc    H10   9761 0.05653400   1.008000   ; qtot 0.604053
 9762         oh    375    ccc     O5   9762 -0.84113600  16.000000   ; qtot -0.237083
 9763         ho    375    ccc    H11   9763 0.51201600   1.008000   ; qtot 0.274933
 9764         os    375    ccc     O6   9764 -0.26013600  16.000000   ; qtot 0.014797
; residue  376 ccc rtp ccc q 0.0
 9765         c3    376    ccc     C1   9765 -0.33178800  12.010000   ; qtot -0.316991
 9766         c3    376    ccc     C2   9766 0.30606500  12.010000   ; qtot -0.010926
 9767         h1    376    ccc     H1   9767 0.11662300   1.008000   ; qtot 0.105697
 9768         h1    376    ccc     H2   9768 0.11526800   1.008000   ; qtot 0.220965
 9769         c3    376    ccc     C3   9769 0.15592700  12.010000   ; qtot 0.376892
 9770         c3    376    ccc     C4   9770 0.28383300  12.010000   ; qtot 0.660725
 9771         c3    376    ccc     C5   9771 0.32403300  12.010000   ; qtot 0.984758
 9772         h1    376    ccc     H3   9772 0.13386900   1.008000   ; qtot 1.118627
 9773         h1    376    ccc     H4   9773 0.10146700   1.008000   ; qtot 1.220094
 9774         h2    376    ccc     H5   9774 0.10960400   1.008000   ; qtot 1.329698
 9775         os    376    ccc     O1   9775 -0.28650000  16.000000   ; qtot 1.043198
 9776         oh    376    ccc     O2   9776 -0.86012500  16.000000   ; qtot 0.183073
 9777         oh    376    ccc     O3   9777 -0.83772800  16.000000   ; qtot -0.654655
 9778         oh    376    ccc     O4   9778 -0.77449700  16.000000   ; qtot -1.429152
 9779         c3    376    ccc     C6   9779 0.37576500  12.010000   ; qtot -1.053387
 9780         ho    376    ccc     H6   9780 0.53656000   1.008000   ; qtot -0.516827
 9781         ho    376    ccc     H7   9781 0.49492100   1.008000   ; qtot -0.021906
 9782         ho    376    ccc     H8   9782 0.51297200   1.008000   ; qtot 0.491066
 9783         h1    376    ccc     H9   9783 0.05653400   1.008000   ; qtot 0.547600
 9784         h1    376    ccc    H10   9784 0.05653400   1.008000   ; qtot 0.604134
 9785         oh    376    ccc     O5   9785 -0.84113600  16.000000   ; qtot -0.237002
 9786         ho    376    ccc    H11   9786 0.51201600   1.008000   ; qtot 0.275014
 9787         os    376    ccc     O6   9787 -0.26013600  16.000000   ; qtot 0.014878
; residue  377 ccc rtp ccc q 0.0
 9788         c3    377    ccc     C1   9788 -0.33178800  12.010000   ; qtot -0.316910
 9789         c3    377    ccc     C2   9789 0.30606500  12.010000   ; qtot -0.010845
 9790         h1    377    ccc     H1   9790 0.11662300   1.008000   ; qtot 0.105778
 9791         h1    377    ccc     H2   9791 0.11526800   1.008000   ; qtot 0.221046
 9792         c3    377    ccc     C3   9792 0.15592700  12.010000   ; qtot 0.376973
 9793         c3    377    ccc     C4   9793 0.28383300  12.010000   ; qtot 0.660806
 9794         c3    377    ccc     C5   9794 0.32403300  12.010000   ; qtot 0.984839
 9795         h1    377    ccc     H3   9795 0.13386900   1.008000   ; qtot 1.118708
 9796         h1    377    ccc     H4   9796 0.10146700   1.008000   ; qtot 1.220175
 9797         h2    377    ccc     H5   9797 0.10960400   1.008000   ; qtot 1.329779
 9798         os    377    ccc     O1   9798 -0.28650000  16.000000   ; qtot 1.043279
 9799         oh    377    ccc     O2   9799 -0.86012500  16.000000   ; qtot 0.183154
 9800         oh    377    ccc     O3   9800 -0.83772800  16.000000   ; qtot -0.654574
 9801         oh    377    ccc     O4   9801 -0.77449700  16.000000   ; qtot -1.429071
 9802         c3    377    ccc     C6   9802 0.37576500  12.010000   ; qtot -1.053306
 9803         ho    377    ccc     H6   9803 0.53656000   1.008000   ; qtot -0.516746
 9804         ho    377    ccc     H7   9804 0.49492100   1.008000   ; qtot -0.021825
 9805         ho    377    ccc     H8   9805 0.51297200   1.008000   ; qtot 0.491147
 9806         h1    377    ccc     H9   9806 0.05653400   1.008000   ; qtot 0.547681
 9807         h1    377    ccc    H10   9807 0.05653400   1.008000   ; qtot 0.604215
 9808         oh    377    ccc     O5   9808 -0.84113600  16.000000   ; qtot -0.236921
 9809         ho    377    ccc    H11   9809 0.51201600   1.008000   ; qtot 0.275095
 9810         os    377    ccc     O6   9810 -0.26013600  16.000000   ; qtot 0.014959
; residue  378 ccc rtp ccc q 0.0
 9811         c3    378    ccc     C1   9811 -0.33178800  12.010000   ; qtot -0.316829
 9812         c3    378    ccc     C2   9812 0.30606500  12.010000   ; qtot -0.010764
 9813         h1    378    ccc     H1   9813 0.11662300   1.008000   ; qtot 0.105859
 9814         h1    378    ccc     H2   9814 0.11526800   1.008000   ; qtot 0.221127
 9815         c3    378    ccc     C3   9815 0.15592700  12.010000   ; qtot 0.377054
 9816         c3    378    ccc     C4   9816 0.28383300  12.010000   ; qtot 0.660887
 9817         c3    378    ccc     C5   9817 0.32403300  12.010000   ; qtot 0.984920
 9818         h1    378    ccc     H3   9818 0.13386900   1.008000   ; qtot 1.118789
 9819         h1    378    ccc     H4   9819 0.10146700   1.008000   ; qtot 1.220256
 9820         h2    378    ccc     H5   9820 0.10960400   1.008000   ; qtot 1.329860
 9821         os    378    ccc     O1   9821 -0.28650000  16.000000   ; qtot 1.043360
 9822         oh    378    ccc     O2   9822 -0.86012500  16.000000   ; qtot 0.183235
 9823         oh    378    ccc     O3   9823 -0.83772800  16.000000   ; qtot -0.654493
 9824         oh    378    ccc     O4   9824 -0.77449700  16.000000   ; qtot -1.428990
 9825         c3    378    ccc     C6   9825 0.37576500  12.010000   ; qtot -1.053225
 9826         ho    378    ccc     H6   9826 0.53656000   1.008000   ; qtot -0.516665
 9827         ho    378    ccc     H7   9827 0.49492100   1.008000   ; qtot -0.021744
 9828         ho    378    ccc     H8   9828 0.51297200   1.008000   ; qtot 0.491228
 9829         h1    378    ccc     H9   9829 0.05653400   1.008000   ; qtot 0.547762
 9830         h1    378    ccc    H10   9830 0.05653400   1.008000   ; qtot 0.604296
 9831         oh    378    ccc     O5   9831 -0.84113600  16.000000   ; qtot -0.236840
 9832         ho    378    ccc    H11   9832 0.51201600   1.008000   ; qtot 0.275176
 9833         os    378    ccc     O6   9833 -0.26013600  16.000000   ; qtot 0.015040
; residue  379 ccc rtp ccc q 0.0
 9834         c3    379    ccc     C1   9834 -0.33178800  12.010000   ; qtot -0.316748
 9835         c3    379    ccc     C2   9835 0.30606500  12.010000   ; qtot -0.010683
 9836         h1    379    ccc     H1   9836 0.11662300   1.008000   ; qtot 0.105940
 9837         h1    379    ccc     H2   9837 0.11526800   1.008000   ; qtot 0.221208
 9838         c3    379    ccc     C3   9838 0.15592700  12.010000   ; qtot 0.377135
 9839         c3    379    ccc     C4   9839 0.28383300  12.010000   ; qtot 0.660968
 9840         c3    379    ccc     C5   9840 0.32403300  12.010000   ; qtot 0.985001
 9841         h1    379    ccc     H3   9841 0.13386900   1.008000   ; qtot 1.118870
 9842         h1    379    ccc     H4   9842 0.10146700   1.008000   ; qtot 1.220337
 9843         h2    379    ccc     H5   9843 0.10960400   1.008000   ; qtot 1.329941
 9844         os    379    ccc     O1   9844 -0.28650000  16.000000   ; qtot 1.043441
 9845         oh    379    ccc     O2   9845 -0.86012500  16.000000   ; qtot 0.183316
 9846         oh    379    ccc     O3   9846 -0.83772800  16.000000   ; qtot -0.654412
 9847         oh    379    ccc     O4   9847 -0.77449700  16.000000   ; qtot -1.428909
 9848         c3    379    ccc     C6   9848 0.37576500  12.010000   ; qtot -1.053144
 9849         ho    379    ccc     H6   9849 0.53656000   1.008000   ; qtot -0.516584
 9850         ho    379    ccc     H7   9850 0.49492100   1.008000   ; qtot -0.021663
 9851         ho    379    ccc     H8   9851 0.51297200   1.008000   ; qtot 0.491309
 9852         h1    379    ccc     H9   9852 0.05653400   1.008000   ; qtot 0.547843
 9853         h1    379    ccc    H10   9853 0.05653400   1.008000   ; qtot 0.604377
 9854         oh    379    ccc     O5   9854 -0.84113600  16.000000   ; qtot -0.236759
 9855         ho    379    ccc    H11   9855 0.51201600   1.008000   ; qtot 0.275257
 9856         os    379    ccc     O6   9856 -0.26013600  16.000000   ; qtot 0.015121
; residue  380 ccc rtp ccc q 0.0
 9857         c3    380    ccc     C1   9857 -0.33178800  12.010000   ; qtot -0.316667
 9858         c3    380    ccc     C2   9858 0.30606500  12.010000   ; qtot -0.010602
 9859         h1    380    ccc     H1   9859 0.11662300   1.008000   ; qtot 0.106021
 9860         h1    380    ccc     H2   9860 0.11526800   1.008000   ; qtot 0.221289
 9861         c3    380    ccc     C3   9861 0.15592700  12.010000   ; qtot 0.377216
 9862         c3    380    ccc     C4   9862 0.28383300  12.010000   ; qtot 0.661049
 9863         c3    380    ccc     C5   9863 0.32403300  12.010000   ; qtot 0.985082
 9864         h1    380    ccc     H3   9864 0.13386900   1.008000   ; qtot 1.118951
 9865         h1    380    ccc     H4   9865 0.10146700   1.008000   ; qtot 1.220418
 9866         h2    380    ccc     H5   9866 0.10960400   1.008000   ; qtot 1.330022
 9867         os    380    ccc     O1   9867 -0.28650000  16.000000   ; qtot 1.043522
 9868         oh    380    ccc     O2   9868 -0.86012500  16.000000   ; qtot 0.183397
 9869         oh    380    ccc     O3   9869 -0.83772800  16.000000   ; qtot -0.654331
 9870         oh    380    ccc     O4   9870 -0.77449700  16.000000   ; qtot -1.428828
 9871         c3    380    ccc     C6   9871 0.37576500  12.010000   ; qtot -1.053063
 9872         ho    380    ccc     H6   9872 0.53656000   1.008000   ; qtot -0.516503
 9873         ho    380    ccc     H7   9873 0.49492100   1.008000   ; qtot -0.021582
 9874         ho    380    ccc     H8   9874 0.51297200   1.008000   ; qtot 0.491390
 9875         h1    380    ccc     H9   9875 0.05653400   1.008000   ; qtot 0.547924
 9876         h1    380    ccc    H10   9876 0.05653400   1.008000   ; qtot 0.604458
 9877         oh    380    ccc     O5   9877 -0.84113600  16.000000   ; qtot -0.236678
 9878         ho    380    ccc    H11   9878 0.51201600   1.008000   ; qtot 0.275338
 9879         os    380    ccc     O6   9879 -0.26013600  16.000000   ; qtot 0.015202
; residue  381 ccc rtp ccc q 0.0
 9880         c3    381    ccc     C1   9880 -0.33178800  12.010000   ; qtot -0.316586
 9881         c3    381    ccc     C2   9881 0.30606500  12.010000   ; qtot -0.010521
 9882         h1    381    ccc     H1   9882 0.11662300   1.008000   ; qtot 0.106102
 9883         h1    381    ccc     H2   9883 0.11526800   1.008000   ; qtot 0.221370
 9884         c3    381    ccc     C3   9884 0.15592700  12.010000   ; qtot 0.377297
 9885         c3    381    ccc     C4   9885 0.28383300  12.010000   ; qtot 0.661130
 9886         c3    381    ccc     C5   9886 0.32403300  12.010000   ; qtot 0.985163
 9887         h1    381    ccc     H3   9887 0.13386900   1.008000   ; qtot 1.119032
 9888         h1    381    ccc     H4   9888 0.10146700   1.008000   ; qtot 1.220499
 9889         h2    381    ccc     H5   9889 0.10960400   1.008000   ; qtot 1.330103
 9890         os    381    ccc     O1   9890 -0.28650000  16.000000   ; qtot 1.043603
 9891         oh    381    ccc     O2   9891 -0.86012500  16.000000   ; qtot 0.183478
 9892         oh    381    ccc     O3   9892 -0.83772800  16.000000   ; qtot -0.654250
 9893         oh    381    ccc     O4   9893 -0.77449700  16.000000   ; qtot -1.428747
 9894         c3    381    ccc     C6   9894 0.37576500  12.010000   ; qtot -1.052982
 9895         ho    381    ccc     H6   9895 0.53656000   1.008000   ; qtot -0.516422
 9896         ho    381    ccc     H7   9896 0.49492100   1.008000   ; qtot -0.021501
 9897         ho    381    ccc     H8   9897 0.51297200   1.008000   ; qtot 0.491471
 9898         h1    381    ccc     H9   9898 0.05653400   1.008000   ; qtot 0.548005
 9899         h1    381    ccc    H10   9899 0.05653400   1.008000   ; qtot 0.604539
 9900         oh    381    ccc     O5   9900 -0.84113600  16.000000   ; qtot -0.236597
 9901         ho    381    ccc    H11   9901 0.51201600   1.008000   ; qtot 0.275419
 9902         os    381    ccc     O6   9902 -0.26013600  16.000000   ; qtot 0.015283
; residue  382 ccc rtp ccc q 0.0
 9903         c3    382    ccc     C1   9903 -0.33178800  12.010000   ; qtot -0.316505
 9904         c3    382    ccc     C2   9904 0.30606500  12.010000   ; qtot -0.010440
 9905         h1    382    ccc     H1   9905 0.11662300   1.008000   ; qtot 0.106183
 9906         h1    382    ccc     H2   9906 0.11526800   1.008000   ; qtot 0.221451
 9907         c3    382    ccc     C3   9907 0.15592700  12.010000   ; qtot 0.377378
 9908         c3    382    ccc     C4   9908 0.28383300  12.010000   ; qtot 0.661211
 9909         c3    382    ccc     C5   9909 0.32403300  12.010000   ; qtot 0.985244
 9910         h1    382    ccc     H3   9910 0.13386900   1.008000   ; qtot 1.119113
 9911         h1    382    ccc     H4   9911 0.10146700   1.008000   ; qtot 1.220580
 9912         h2    382    ccc     H5   9912 0.10960400   1.008000   ; qtot 1.330184
 9913         os    382    ccc     O1   9913 -0.28650000  16.000000   ; qtot 1.043684
 9914         oh    382    ccc     O2   9914 -0.86012500  16.000000   ; qtot 0.183559
 9915         oh    382    ccc     O3   9915 -0.83772800  16.000000   ; qtot -0.654169
 9916         oh    382    ccc     O4   9916 -0.77449700  16.000000   ; qtot -1.428666
 9917         c3    382    ccc     C6   9917 0.37576500  12.010000   ; qtot -1.052901
 9918         ho    382    ccc     H6   9918 0.53656000   1.008000   ; qtot -0.516341
 9919         ho    382    ccc     H7   9919 0.49492100   1.008000   ; qtot -0.021420
 9920         ho    382    ccc     H8   9920 0.51297200   1.008000   ; qtot 0.491552
 9921         h1    382    ccc     H9   9921 0.05653400   1.008000   ; qtot 0.548086
 9922         h1    382    ccc    H10   9922 0.05653400   1.008000   ; qtot 0.604620
 9923         oh    382    ccc     O5   9923 -0.84113600  16.000000   ; qtot -0.236516
 9924         ho    382    ccc    H11   9924 0.51201600   1.008000   ; qtot 0.275500
 9925         os    382    ccc     O6   9925 -0.26013600  16.000000   ; qtot 0.015364

[ bonds ]
;    ai     aj funct         c0         c1         c2         c3
      1      2     1   0.14647 272713.120000
      1      5     1   0.14647 272713.120000
      1      8     1   0.14647 272713.120000
      2     14     1   0.15375 251793.120000
      5     17     1   0.15375 251793.120000
      8     11     1   0.15375 251793.120000
     11     23     1   0.15375 251793.120000
     14     26     1   0.15375 251793.120000
     17     20     1   0.15375 251793.120000
     20     57     1   0.14316 258236.480000
     23     86     1   0.14316 258236.480000
     26    115     1   0.14316 258236.480000
     29     30     1   0.14647 272713.120000
     29     33     1   0.14647 272713.120000
     29     36     1   0.14647 272713.120000
     30     42     1   0.15375 251793.120000
     33     45     1   0.15375 251793.120000
     36     39     1   0.15375 251793.120000
     39     48     1   0.15375 251793.120000
     42     54     1   0.15375 251793.120000
     45     51     1   0.15375 251793.120000
     48     57     1   0.14316 258236.480000
     51    144     1   0.14316 258236.480000
     54    173     1   0.14316 258236.480000
     58     59     1   0.14647 272713.120000
     58     62     1   0.14647 272713.120000
     58     65     1   0.14647 272713.120000
     59     71     1   0.15375 251793.120000
     62     74     1   0.15375 251793.120000
     65     68     1   0.15375 251793.120000
     68     77     1   0.15375 251793.120000
     71     83     1   0.15375 251793.120000
     74     80     1   0.15375 251793.120000
     77     86     1   0.14316 258236.480000
     80    202     1   0.14316 258236.480000
     83    231     1   0.14316 258236.480000
     87     88     1   0.14647 272713.120000
     87     91     1   0.14647 272713.120000
     87     94     1   0.14647 272713.120000
     88    100     1   0.15375 251793.120000
     91    103     1   0.15375 251793.120000
     94     97     1   0.15375 251793.120000
     97    106     1   0.15375 251793.120000
    100    112     1   0.15375 251793.120000
    103    109     1   0.15375 251793.120000
    106    115     1   0.14316 258236.480000
    109    260     1   0.14316 258236.480000
    112    289     1   0.14316 258236.480000
    116    117     1   0.14647 272713.120000
    116    120     1   0.14647 272713.120000
    116    123     1   0.14647 272713.120000
    117    129     1   0.15375 251793.120000
    120    132     1   0.15375 251793.120000
    123    126     1   0.15375 251793.120000
    126    135     1   0.15375 251793.120000
    129    141     1   0.15375 251793.120000
    132    138     1   0.15375 251793.120000
    135    144     1   0.14316 258236.480000
    138    318     1   0.14316 258236.480000
    141    347     1   0.14316 258236.480000
    145    146     1   0.14647 272713.120000
    145    149     1   0.14647 272713.120000
    145    152     1   0.14647 272713.120000
    146    158     1   0.15375 251793.120000
    149    161     1   0.15375 251793.120000
    152    155     1   0.15375 251793.120000
    155    164     1   0.15375 251793.120000
    158    170     1   0.15375 251793.120000
    161    167     1   0.15375 251793.120000
    164    173     1   0.14316 258236.480000
    167    376     1   0.14316 258236.480000
    170    405     1   0.14316 258236.480000
    174    175     1   0.14647 272713.120000
    174    178     1   0.14647 272713.120000
    174    181     1   0.14647 272713.120000
    175    187     1   0.15375 251793.120000
    178    190     1   0.15375 251793.120000
    181    184     1   0.15375 251793.120000
    184    193     1   0.15375 251793.120000
    187    199     1   0.15375 251793.120000
    190    196     1   0.15375 251793.120000
    193    202     1   0.14316 258236.480000
    196    434     1   0.14316 258236.480000
    199    463     1   0.14316 258236.480000
    203    204     1   0.14647 272713.120000
    203    207     1   0.14647 272713.120000
    203    210     1   0.14647 272713.120000
    204    216     1   0.15375 251793.120000
    207    219     1   0.15375 251793.120000
    210    213     1   0.15375 251793.120000
    213    222     1   0.15375 251793.120000
    216    228     1   0.15375 251793.120000
    219    225     1   0.15375 251793.120000
    222    231     1   0.14316 258236.480000
    225    492     1   0.14316 258236.480000
    228    521     1   0.14316 258236.480000
    232    233     1   0.14647 272713.120000
    232    236     1   0.14647 272713.120000
    232    239     1   0.14647 272713.120000
    233    245     1   0.15375 251793.120000
    236    248     1   0.15375 251793.120000
    239    242     1   0.15375 251793.120000
    242    251     1   0.15375 251793.120000
    245    257     1   0.15375 251793.120000
    248    254     1   0.15375 251793.120000
    251    260     1   0.14316 258236.480000
    254    550     1   0.14316 258236.480000
    257    579     1   0.14316 258236.480000
    261    262     1   0.14647 272713.120000
    261    265     1   0.14647 272713.120000
    261    268     1   0.14647 272713.120000
    262    274     1   0.15375 251793.120000
    265    277     1   0.15375 251793.120000
    268    271     1   0.15375 251793.120000
    271    280     1   0.15375 251793.120000
    274    286     1   0.15375 251793.120000
    277    283     1   0.15375 251793.120000
    280    289     1   0.14316 258236.480000
    283    608     1   0.14316 258236.480000
    286    637     1   0.14316 258236.480000
    290    291     1   0.14647 272713.120000
    290    294     1   0.14647 272713.120000
    290    297     1   0.14647 272713.120000
    291    303     1   0.15375 251793.120000
    294    306     1   0.15375 251793.120000
    297    300     1   0.15375 251793.120000
    300    309     1   0.15375 251793.120000
    303    315     1   0.15375 251793.120000
    306    312     1   0.15375 251793.120000
    309    318     1   0.14316 258236.480000
    312    666     1   0.14316 258236.480000
    315    695     1   0.14316 258236.480000
    319    320     1   0.14647 272713.120000
    319    323     1   0.14647 272713.120000
    319    326     1   0.14647 272713.120000
    320    332     1   0.15375 251793.120000
    323    335     1   0.15375 251793.120000
    326    329     1   0.15375 251793.120000
    329    338     1   0.15375 251793.120000
    332    344     1   0.15375 251793.120000
    335    341     1   0.15375 251793.120000
    338    347     1   0.14316 258236.480000
    341    724     1   0.14316 258236.480000
    344    753     1   0.14316 258236.480000
    348    349     1   0.14647 272713.120000
    348    352     1   0.14647 272713.120000
    348    355     1   0.14647 272713.120000
    349    361     1   0.15375 251793.120000
    352    364     1   0.15375 251793.120000
    355    358     1   0.15375 251793.120000
    358    367     1   0.15375 251793.120000
    361    373     1   0.15375 251793.120000
    364    370     1   0.15375 251793.120000
    367    376     1   0.14316 258236.480000
    370    782     1   0.14316 258236.480000
    373    811     1   0.14316 258236.480000
    377    378     1   0.14647 272713.120000
    377    381     1   0.14647 272713.120000
    377    384     1   0.14647 272713.120000
    378    390     1   0.15375 251793.120000
    381    393     1   0.15375 251793.120000
    384    387     1   0.15375 251793.120000
    387    396     1   0.15375 251793.120000
    390    402     1   0.15375 251793.120000
    393    399     1   0.15375 251793.120000
    396    405     1   0.14316 258236.480000
    399    840     1   0.14316 258236.480000
    402    869     1   0.14316 258236.480000
    406    407     1   0.14647 272713.120000
    406    410     1   0.14647 272713.120000
    406    413     1   0.14647 272713.120000
    407    419     1   0.15375 251793.120000
    410    422     1   0.15375 251793.120000
    413    416     1   0.15375 251793.120000
    416    425     1   0.15375 251793.120000
    419    431     1   0.15375 251793.120000
    422    428     1   0.15375 251793.120000
    425    434     1   0.14316 258236.480000
    428    898     1   0.14316 258236.480000
    431    927     1   0.14316 258236.480000
    435    436     1   0.14647 272713.120000
    435    439     1   0.14647 272713.120000
    435    442     1   0.14647 272713.120000
    436    448     1   0.15375 251793.120000
    439    451     1   0.15375 251793.120000
    442    445     1   0.15375 251793.120000
    445    454     1   0.15375 251793.120000
    448    460     1   0.15375 251793.120000
    451    457     1   0.15375 251793.120000
    454    463     1   0.14316 258236.480000
    457    956     1   0.14316 258236.480000
    460    985     1   0.14316 258236.480000
    464    465     1   0.14647 272713.120000
    464    468     1   0.14647 272713.120000
    464    471     1   0.14647 272713.120000
    465    477     1   0.15375 251793.120000
    468    480     1   0.15375 251793.120000
    471    474     1   0.15375 251793.120000
    474    483     1   0.15375 251793.120000
    477    489     1   0.15375 251793.120000
    480    486     1   0.15375 251793.120000
    483    492     1   0.14316 258236.480000
    486   1014     1   0.14316 258236.480000
    489   1043     1   0.14316 258236.480000
    493    494     1   0.14647 272713.120000
    493    497     1   0.14647 272713.120000
    493    500     1   0.14647 272713.120000
    494    506     1   0.15375 251793.120000
    497    509     1   0.15375 251793.120000
    500    503     1   0.15375 251793.120000
    503    512     1   0.15375 251793.120000
    506    518     1   0.15375 251793.120000
    509    515     1   0.15375 251793.120000
    512    521     1   0.14316 258236.480000
    515   1072     1   0.14316 258236.480000
    518   1101     1   0.14316 258236.480000
    522    523     1   0.14647 272713.120000
    522    526     1   0.14647 272713.120000
    522    529     1   0.14647 272713.120000
    523    535     1   0.15375 251793.120000
    526    538     1   0.15375 251793.120000
    529    532     1   0.15375 251793.120000
    532    541     1   0.15375 251793.120000
    535    547     1   0.15375 251793.120000
    538    544     1   0.15375 251793.120000
    541    550     1   0.14316 258236.480000
    544   1130     1   0.14316 258236.480000
    547   1159     1   0.14316 258236.480000
    551    552     1   0.14647 272713.120000
    551    555     1   0.14647 272713.120000
    551    558     1   0.14647 272713.120000
    552    564     1   0.15375 251793.120000
    555    567     1   0.15375 251793.120000
    558    561     1   0.15375 251793.120000
    561    570     1   0.15375 251793.120000
    564    576     1   0.15375 251793.120000
    567    573     1   0.15375 251793.120000
    570    579     1   0.14316 258236.480000
    573   1188     1   0.14316 258236.480000
    576   1217     1   0.14316 258236.480000
    580    581     1   0.14647 272713.120000
    580    584     1   0.14647 272713.120000
    580    587     1   0.14647 272713.120000
    581    593     1   0.15375 251793.120000
    584    596     1   0.15375 251793.120000
    587    590     1   0.15375 251793.120000
    590    599     1   0.15375 251793.120000
    593    605     1   0.15375 251793.120000
    596    602     1   0.15375 251793.120000
    599    608     1   0.14316 258236.480000
    602   1246     1   0.14316 258236.480000
    605   1275     1   0.14316 258236.480000
    609    610     1   0.14647 272713.120000
    609    613     1   0.14647 272713.120000
    609    616     1   0.14647 272713.120000
    610    622     1   0.15375 251793.120000
    613    625     1   0.15375 251793.120000
    616    619     1   0.15375 251793.120000
    619    628     1   0.15375 251793.120000
    622    634     1   0.15375 251793.120000
    625    631     1   0.15375 251793.120000
    628    637     1   0.14316 258236.480000
    631   1304     1   0.14316 258236.480000
    634   1333     1   0.14316 258236.480000
    638    639     1   0.14647 272713.120000
    638    642     1   0.14647 272713.120000
    638    645     1   0.14647 272713.120000
    639    651     1   0.15375 251793.120000
    642    654     1   0.15375 251793.120000
    645    648     1   0.15375 251793.120000
    648    657     1   0.15375 251793.120000
    651    663     1   0.15375 251793.120000
    654    660     1   0.15375 251793.120000
    657    666     1   0.14316 258236.480000
    660   1362     1   0.14316 258236.480000
    663   1391     1   0.14316 258236.480000
    667    668     1   0.14647 272713.120000
    667    671     1   0.14647 272713.120000
    667    674     1   0.14647 272713.120000
    668    680     1   0.15375 251793.120000
    671    683     1   0.15375 251793.120000
    674    677     1   0.15375 251793.120000
    677    686     1   0.15375 251793.120000
    680    692     1   0.15375 251793.120000
    683    689     1   0.15375 251793.120000
    686    695     1   0.14316 258236.480000
    689   1420     1   0.14316 258236.480000
    692   1449     1   0.14316 258236.480000
    696    697     1   0.14647 272713.120000
    696    700     1   0.14647 272713.120000
    696    703     1   0.14647 272713.120000
    697    709     1   0.15375 251793.120000
    700    712     1   0.15375 251793.120000
    703    706     1   0.15375 251793.120000
    706    715     1   0.15375 251793.120000
    709    721     1   0.15375 251793.120000
    712    718     1   0.15375 251793.120000
    715    724     1   0.14316 258236.480000
    718   1478     1   0.14316 258236.480000
    721   1507     1   0.14316 258236.480000
    725    726     1   0.14647 272713.120000
    725    729     1   0.14647 272713.120000
    725    732     1   0.14647 272713.120000
    726    738     1   0.15375 251793.120000
    729    741     1   0.15375 251793.120000
    732    735     1   0.15375 251793.120000
    735    744     1   0.15375 251793.120000
    738    750     1   0.15375 251793.120000
    741    747     1   0.15375 251793.120000
    744    753     1   0.14316 258236.480000
    747   1536     1   0.14316 258236.480000
    750   1565     1   0.14316 258236.480000
    754    755     1   0.14647 272713.120000
    754    758     1   0.14647 272713.120000
    754    761     1   0.14647 272713.120000
    755    767     1   0.15375 251793.120000
    758    770     1   0.15375 251793.120000
    761    764     1   0.15375 251793.120000
    764    773     1   0.15375 251793.120000
    767    779     1   0.15375 251793.120000
    770    776     1   0.15375 251793.120000
    773    782     1   0.14316 258236.480000
    776   1594     1   0.14316 258236.480000
    779   1623     1   0.14316 258236.480000
    783    784     1   0.14647 272713.120000
    783    787     1   0.14647 272713.120000
    783    790     1   0.14647 272713.120000
    784    796     1   0.15375 251793.120000
    787    799     1   0.15375 251793.120000
    790    793     1   0.15375 251793.120000
    793    802     1   0.15375 251793.120000
    796    808     1   0.15375 251793.120000
    799    805     1   0.15375 251793.120000
    802    811     1   0.14316 258236.480000
    805   1652     1   0.14316 258236.480000
    808   1681     1   0.14316 258236.480000
    812    813     1   0.14647 272713.120000
    812    816     1   0.14647 272713.120000
    812    819     1   0.14647 272713.120000
    813    825     1   0.15375 251793.120000
    816    828     1   0.15375 251793.120000
    819    822     1   0.15375 251793.120000
    822    831     1   0.15375 251793.120000
    825    837     1   0.15375 251793.120000
    828    834     1   0.15375 251793.120000
    831    840     1   0.14316 258236.480000
    834   1710     1   0.14316 258236.480000
    837   1739     1   0.14316 258236.480000
    841    842     1   0.14647 272713.120000
    841    845     1   0.14647 272713.120000
    841    848     1   0.14647 272713.120000
    842    854     1   0.15375 251793.120000
    845    857     1   0.15375 251793.120000
    848    851     1   0.15375 251793.120000
    851    860     1   0.15375 251793.120000
    854    866     1   0.15375 251793.120000
    857    863     1   0.15375 251793.120000
    860    869     1   0.14316 258236.480000
    863   1768     1   0.14316 258236.480000
    866   1797     1   0.14316 258236.480000
    870    871     1   0.14647 272713.120000
    870    874     1   0.14647 272713.120000
    870    877     1   0.14647 272713.120000
    871    883     1   0.15375 251793.120000
    874    886     1   0.15375 251793.120000
    877    880     1   0.15375 251793.120000
    880    889     1   0.15375 251793.120000
    883    895     1   0.15375 251793.120000
    886    892     1   0.15375 251793.120000
    889    898     1   0.14316 258236.480000
    892   1826     1   0.14316 258236.480000
    895   1855     1   0.14316 258236.480000
    899    900     1   0.14647 272713.120000
    899    903     1   0.14647 272713.120000
    899    906     1   0.14647 272713.120000
    900    912     1   0.15375 251793.120000
    903    915     1   0.15375 251793.120000
    906    909     1   0.15375 251793.120000
    909    918     1   0.15375 251793.120000
    912    924     1   0.15375 251793.120000
    915    921     1   0.15375 251793.120000
    918    927     1   0.14316 258236.480000
    921   1884     1   0.14316 258236.480000
    924   1913     1   0.14316 258236.480000
    928    929     1   0.14647 272713.120000
    928    932     1   0.14647 272713.120000
    928    935     1   0.14647 272713.120000
    929    941     1   0.15375 251793.120000
    932    944     1   0.15375 251793.120000
    935    938     1   0.15375 251793.120000
    938    947     1   0.15375 251793.120000
    941    953     1   0.15375 251793.120000
    944    950     1   0.15375 251793.120000
    947    956     1   0.14316 258236.480000
    950   1942     1   0.14316 258236.480000
    953   1971     1   0.14316 258236.480000
    957    958     1   0.14647 272713.120000
    957    961     1   0.14647 272713.120000
    957    964     1   0.14647 272713.120000
    958    970     1   0.15375 251793.120000
    961    973     1   0.15375 251793.120000
    964    967     1   0.15375 251793.120000
    967    976     1   0.15375 251793.120000
    970    982     1   0.15375 251793.120000
    973    979     1   0.15375 251793.120000
    976    985     1   0.14316 258236.480000
    979   2000     1   0.14316 258236.480000
    982   2029     1   0.14316 258236.480000
    986    987     1   0.14647 272713.120000
    986    990     1   0.14647 272713.120000
    986    993     1   0.14647 272713.120000
    987    999     1   0.15375 251793.120000
    990   1002     1   0.15375 251793.120000
    993    996     1   0.15375 251793.120000
    996   1005     1   0.15375 251793.120000
    999   1011     1   0.15375 251793.120000
   1002   1008     1   0.15375 251793.120000
   1005   1014     1   0.14316 258236.480000
   1008   2058     1   0.14316 258236.480000
   1011   2087     1   0.14316 258236.480000
   1015   1016     1   0.14647 272713.120000
   1015   1019     1   0.14647 272713.120000
   1015   1022     1   0.14647 272713.120000
   1016   1028     1   0.15375 251793.120000
   1019   1031     1   0.15375 251793.120000
   1022   1025     1   0.15375 251793.120000
   1025   1034     1   0.15375 251793.120000
   1028   1040     1   0.15375 251793.120000
   1031   1037     1   0.15375 251793.120000
   1034   1043     1   0.14316 258236.480000
   1037   2116     1   0.14316 258236.480000
   1040   2145     1   0.14316 258236.480000
   1044   1045     1   0.14647 272713.120000
   1044   1048     1   0.14647 272713.120000
   1044   1051     1   0.14647 272713.120000
   1045   1057     1   0.15375 251793.120000
   1048   1060     1   0.15375 251793.120000
   1051   1054     1   0.15375 251793.120000
   1054   1063     1   0.15375 251793.120000
   1057   1069     1   0.15375 251793.120000
   1060   1066     1   0.15375 251793.120000
   1063   1072     1   0.14316 258236.480000
   1066   2174     1   0.14316 258236.480000
   1069   2203     1   0.14316 258236.480000
   1073   1074     1   0.14647 272713.120000
   1073   1077     1   0.14647 272713.120000
   1073   1080     1   0.14647 272713.120000
   1074   1086     1   0.15375 251793.120000
   1077   1089     1   0.15375 251793.120000
   1080   1083     1   0.15375 251793.120000
   1083   1092     1   0.15375 251793.120000
   1086   1098     1   0.15375 251793.120000
   1089   1095     1   0.15375 251793.120000
   1092   1101     1   0.14316 258236.480000
   1095   2232     1   0.14316 258236.480000
   1098   2261     1   0.14316 258236.480000
   1102   1103     1   0.14647 272713.120000
   1102   1106     1   0.14647 272713.120000
   1102   1109     1   0.14647 272713.120000
   1103   1115     1   0.15375 251793.120000
   1106   1118     1   0.15375 251793.120000
   1109   1112     1   0.15375 251793.120000
   1112   1121     1   0.15375 251793.120000
   1115   1127     1   0.15375 251793.120000
   1118   1124     1   0.15375 251793.120000
   1121   1130     1   0.14316 258236.480000
   1124   2290     1   0.14316 258236.480000
   1127   2319     1   0.14316 258236.480000
   1131   1132     1   0.14647 272713.120000
   1131   1135     1   0.14647 272713.120000
   1131   1138     1   0.14647 272713.120000
   1132   1144     1   0.15375 251793.120000
   1135   1147     1   0.15375 251793.120000
   1138   1141     1   0.15375 251793.120000
   1141   1150     1   0.15375 251793.120000
   1144   1156     1   0.15375 251793.120000
   1147   1153     1   0.15375 251793.120000
   1150   1159     1   0.14316 258236.480000
   1153   2348     1   0.14316 258236.480000
   1156   2377     1   0.14316 258236.480000
   1160   1161     1   0.14647 272713.120000
   1160   1164     1   0.14647 272713.120000
   1160   1167     1   0.14647 272713.120000
   1161   1173     1   0.15375 251793.120000
   1164   1176     1   0.15375 251793.120000
   1167   1170     1   0.15375 251793.120000
   1170   1179     1   0.15375 251793.120000
   1173   1185     1   0.15375 251793.120000
   1176   1182     1   0.15375 251793.120000
   1179   1188     1   0.14316 258236.480000
   1182   2406     1   0.14316 258236.480000
   1185   2435     1   0.14316 258236.480000
   1189   1190     1   0.14647 272713.120000
   1189   1193     1   0.14647 272713.120000
   1189   1196     1   0.14647 272713.120000
   1190   1202     1   0.15375 251793.120000
   1193   1205     1   0.15375 251793.120000
   1196   1199     1   0.15375 251793.120000
   1199   1208     1   0.15375 251793.120000
   1202   1214     1   0.15375 251793.120000
   1205   1211     1   0.15375 251793.120000
   1208   1217     1   0.14316 258236.480000
   1211   2464     1   0.14316 258236.480000
   1214   2493     1   0.14316 258236.480000
   1218   1219     1   0.14647 272713.120000
   1218   1222     1   0.14647 272713.120000
   1218   1225     1   0.14647 272713.120000
   1219   1231     1   0.15375 251793.120000
   1222   1234     1   0.15375 251793.120000
   1225   1228     1   0.15375 251793.120000
   1228   1237     1   0.15375 251793.120000
   1231   1243     1   0.15375 251793.120000
   1234   1240     1   0.15375 251793.120000
   1237   1246     1   0.14316 258236.480000
   1240   2522     1   0.14316 258236.480000
   1243   2551     1   0.14316 258236.480000
   1247   1248     1   0.14647 272713.120000
   1247   1251     1   0.14647 272713.120000
   1247   1254     1   0.14647 272713.120000
   1248   1260     1   0.15375 251793.120000
   1251   1263     1   0.15375 251793.120000
   1254   1257     1   0.15375 251793.120000
   1257   1266     1   0.15375 251793.120000
   1260   1272     1   0.15375 251793.120000
   1263   1269     1   0.15375 251793.120000
   1266   1275     1   0.14316 258236.480000
   1269   2580     1   0.14316 258236.480000
   1272   2609     1   0.14316 258236.480000
   1276   1277     1   0.14647 272713.120000
   1276   1280     1   0.14647 272713.120000
   1276   1283     1   0.14647 272713.120000
   1277   1289     1   0.15375 251793.120000
   1280   1292     1   0.15375 251793.120000
   1283   1286     1   0.15375 251793.120000
   1286   1295     1   0.15375 251793.120000
   1289   1301     1   0.15375 251793.120000
   1292   1298     1   0.15375 251793.120000
   1295   1304     1   0.14316 258236.480000
   1298   2638     1   0.14316 258236.480000
   1301   2667     1   0.14316 258236.480000
   1305   1306     1   0.14647 272713.120000
   1305   1309     1   0.14647 272713.120000
   1305   1312     1   0.14647 272713.120000
   1306   1318     1   0.15375 251793.120000
   1309   1321     1   0.15375 251793.120000
   1312   1315     1   0.15375 251793.120000
   1315   1324     1   0.15375 251793.120000
   1318   1330     1   0.15375 251793.120000
   1321   1327     1   0.15375 251793.120000
   1324   1333     1   0.14316 258236.480000
   1327   2696     1   0.14316 258236.480000
   1330   2725     1   0.14316 258236.480000
   1334   1335     1   0.14647 272713.120000
   1334   1338     1   0.14647 272713.120000
   1334   1341     1   0.14647 272713.120000
   1335   1347     1   0.15375 251793.120000
   1338   1350     1   0.15375 251793.120000
   1341   1344     1   0.15375 251793.120000
   1344   1353     1   0.15375 251793.120000
   1347   1359     1   0.15375 251793.120000
   1350   1356     1   0.15375 251793.120000
   1353   1362     1   0.14316 258236.480000
   1356   2754     1   0.14316 258236.480000
   1359   2783     1   0.14316 258236.480000
   1363   1364     1   0.14647 272713.120000
   1363   1367     1   0.14647 272713.120000
   1363   1370     1   0.14647 272713.120000
   1364   1376     1   0.15375 251793.120000
   1367   1379     1   0.15375 251793.120000
   1370   1373     1   0.15375 251793.120000
   1373   1382     1   0.15375 251793.120000
   1376   1388     1   0.15375 251793.120000
   1379   1385     1   0.15375 251793.120000
   1382   1391     1   0.14316 258236.480000
   1385   2812     1   0.14316 258236.480000
   1388   2841     1   0.14316 258236.480000
   1392   1393     1   0.14647 272713.120000
   1392   1396     1   0.14647 272713.120000
   1392   1399     1   0.14647 272713.120000
   1393   1405     1   0.15375 251793.120000
   1396   1408     1   0.15375 251793.120000
   1399   1402     1   0.15375 251793.120000
   1402   1411     1   0.15375 251793.120000
   1405   1417     1   0.15375 251793.120000
   1408   1414     1   0.15375 251793.120000
   1411   1420     1   0.14316 258236.480000
   1414   2870     1   0.14316 258236.480000
   1417   2899     1   0.14316 258236.480000
   1421   1422     1   0.14647 272713.120000
   1421   1425     1   0.14647 272713.120000
   1421   1428     1   0.14647 272713.120000
   1422   1434     1   0.15375 251793.120000
   1425   1437     1   0.15375 251793.120000
   1428   1431     1   0.15375 251793.120000
   1431   1440     1   0.15375 251793.120000
   1434   1446     1   0.15375 251793.120000
   1437   1443     1   0.15375 251793.120000
   1440   1449     1   0.14316 258236.480000
   1443   2928     1   0.14316 258236.480000
   1446   2957     1   0.14316 258236.480000
   1450   1451     1   0.14647 272713.120000
   1450   1454     1   0.14647 272713.120000
   1450   1457     1   0.14647 272713.120000
   1451   1463     1   0.15375 251793.120000
   1454   1466     1   0.15375 251793.120000
   1457   1460     1   0.15375 251793.120000
   1460   1469     1   0.15375 251793.120000
   1463   1475     1   0.15375 251793.120000
   1466   1472     1   0.15375 251793.120000
   1469   1478     1   0.14316 258236.480000
   1472   2986     1   0.14316 258236.480000
   1475   3015     1   0.14316 258236.480000
   1479   1480     1   0.14647 272713.120000
   1479   1483     1   0.14647 272713.120000
   1479   1486     1   0.14647 272713.120000
   1480   1492     1   0.15375 251793.120000
   1483   1495     1   0.15375 251793.120000
   1486   1489     1   0.15375 251793.120000
   1489   1498     1   0.15375 251793.120000
   1492   1504     1   0.15375 251793.120000
   1495   1501     1   0.15375 251793.120000
   1498   1507     1   0.14316 258236.480000
   1501   3044     1   0.14316 258236.480000
   1504   3073     1   0.14316 258236.480000
   1508   1509     1   0.14647 272713.120000
   1508   1512     1   0.14647 272713.120000
   1508   1515     1   0.14647 272713.120000
   1509   1521     1   0.15375 251793.120000
   1512   1524     1   0.15375 251793.120000
   1515   1518     1   0.15375 251793.120000
   1518   1527     1   0.15375 251793.120000
   1521   1533     1   0.15375 251793.120000
   1524   1530     1   0.15375 251793.120000
   1527   1536     1   0.14316 258236.480000
   1530   3102     1   0.14316 258236.480000
   1533   3131     1   0.14316 258236.480000
   1537   1538     1   0.14647 272713.120000
   1537   1541     1   0.14647 272713.120000
   1537   1544     1   0.14647 272713.120000
   1538   1550     1   0.15375 251793.120000
   1541   1553     1   0.15375 251793.120000
   1544   1547     1   0.15375 251793.120000
   1547   1556     1   0.15375 251793.120000
   1550   1562     1   0.15375 251793.120000
   1553   1559     1   0.15375 251793.120000
   1556   1565     1   0.14316 258236.480000
   1559   3160     1   0.14316 258236.480000
   1562   3189     1   0.14316 258236.480000
   1566   1567     1   0.14647 272713.120000
   1566   1570     1   0.14647 272713.120000
   1566   1573     1   0.14647 272713.120000
   1567   1579     1   0.15375 251793.120000
   1570   1582     1   0.15375 251793.120000
   1573   1576     1   0.15375 251793.120000
   1576   1585     1   0.15375 251793.120000
   1579   1591     1   0.15375 251793.120000
   1582   1588     1   0.15375 251793.120000
   1585   1594     1   0.14316 258236.480000
   1588   3218     1   0.14316 258236.480000
   1591   3247     1   0.14316 258236.480000
   1595   1596     1   0.14647 272713.120000
   1595   1599     1   0.14647 272713.120000
   1595   1602     1   0.14647 272713.120000
   1596   1608     1   0.15375 251793.120000
   1599   1611     1   0.15375 251793.120000
   1602   1605     1   0.15375 251793.120000
   1605   1614     1   0.15375 251793.120000
   1608   1620     1   0.15375 251793.120000
   1611   1617     1   0.15375 251793.120000
   1614   1623     1   0.14316 258236.480000
   1617   3276     1   0.14316 258236.480000
   1620   3305     1   0.14316 258236.480000
   1624   1625     1   0.14647 272713.120000
   1624   1628     1   0.14647 272713.120000
   1624   1631     1   0.14647 272713.120000
   1625   1637     1   0.15375 251793.120000
   1628   1640     1   0.15375 251793.120000
   1631   1634     1   0.15375 251793.120000
   1634   1643     1   0.15375 251793.120000
   1637   1649     1   0.15375 251793.120000
   1640   1646     1   0.15375 251793.120000
   1643   1652     1   0.14316 258236.480000
   1646   3334     1   0.14316 258236.480000
   1649   3363     1   0.14316 258236.480000
   1653   1654     1   0.14647 272713.120000
   1653   1657     1   0.14647 272713.120000
   1653   1660     1   0.14647 272713.120000
   1654   1666     1   0.15375 251793.120000
   1657   1669     1   0.15375 251793.120000
   1660   1663     1   0.15375 251793.120000
   1663   1672     1   0.15375 251793.120000
   1666   1678     1   0.15375 251793.120000
   1669   1675     1   0.15375 251793.120000
   1672   1681     1   0.14316 258236.480000
   1675   3392     1   0.14316 258236.480000
   1678   3421     1   0.14316 258236.480000
   1682   1683     1   0.14647 272713.120000
   1682   1686     1   0.14647 272713.120000
   1682   1689     1   0.14647 272713.120000
   1683   1695     1   0.15375 251793.120000
   1686   1698     1   0.15375 251793.120000
   1689   1692     1   0.15375 251793.120000
   1692   1701     1   0.15375 251793.120000
   1695   1707     1   0.15375 251793.120000
   1698   1704     1   0.15375 251793.120000
   1701   1710     1   0.14316 258236.480000
   1704   3450     1   0.14316 258236.480000
   1707   3479     1   0.14316 258236.480000
   1711   1712     1   0.14647 272713.120000
   1711   1715     1   0.14647 272713.120000
   1711   1718     1   0.14647 272713.120000
   1712   1724     1   0.15375 251793.120000
   1715   1727     1   0.15375 251793.120000
   1718   1721     1   0.15375 251793.120000
   1721   1730     1   0.15375 251793.120000
   1724   1736     1   0.15375 251793.120000
   1727   1733     1   0.15375 251793.120000
   1730   1739     1   0.14316 258236.480000
   1733   3508     1   0.14316 258236.480000
   1736   3537     1   0.14316 258236.480000
   1740   1741     1   0.14647 272713.120000
   1740   1744     1   0.14647 272713.120000
   1740   1747     1   0.14647 272713.120000
   1741   1753     1   0.15375 251793.120000
   1744   1756     1   0.15375 251793.120000
   1747   1750     1   0.15375 251793.120000
   1750   1759     1   0.15375 251793.120000
   1753   1765     1   0.15375 251793.120000
   1756   1762     1   0.15375 251793.120000
   1759   1768     1   0.14316 258236.480000
   1762   3566     1   0.14316 258236.480000
   1765   3595     1   0.14316 258236.480000
   1769   1770     1   0.14647 272713.120000
   1769   1773     1   0.14647 272713.120000
   1769   1776     1   0.14647 272713.120000
   1770   1782     1   0.15375 251793.120000
   1773   1785     1   0.15375 251793.120000
   1776   1779     1   0.15375 251793.120000
   1779   1788     1   0.15375 251793.120000
   1782   1794     1   0.15375 251793.120000
   1785   1791     1   0.15375 251793.120000
   1788   1797     1   0.14316 258236.480000
   1791   3624     1   0.14316 258236.480000
   1794   3653     1   0.14316 258236.480000
   1798   1799     1   0.14647 272713.120000
   1798   1802     1   0.14647 272713.120000
   1798   1805     1   0.14647 272713.120000
   1799   1811     1   0.15375 251793.120000
   1802   1814     1   0.15375 251793.120000
   1805   1808     1   0.15375 251793.120000
   1808   1817     1   0.15375 251793.120000
   1811   1823     1   0.15375 251793.120000
   1814   1820     1   0.15375 251793.120000
   1817   1826     1   0.14316 258236.480000
   1820   3682     1   0.14316 258236.480000
   1823   3711     1   0.14316 258236.480000
   1827   1828     1   0.14647 272713.120000
   1827   1831     1   0.14647 272713.120000
   1827   1834     1   0.14647 272713.120000
   1828   1840     1   0.15375 251793.120000
   1831   1843     1   0.15375 251793.120000
   1834   1837     1   0.15375 251793.120000
   1837   1846     1   0.15375 251793.120000
   1840   1852     1   0.15375 251793.120000
   1843   1849     1   0.15375 251793.120000
   1846   1855     1   0.14316 258236.480000
   1849   3740     1   0.14316 258236.480000
   1852   3769     1   0.14316 258236.480000
   1856   1857     1   0.14647 272713.120000
   1856   1860     1   0.14647 272713.120000
   1856   1863     1   0.14647 272713.120000
   1857   1869     1   0.15375 251793.120000
   1860   1872     1   0.15375 251793.120000
   1863   1866     1   0.15375 251793.120000
   1866   1875     1   0.15375 251793.120000
   1869   1881     1   0.15375 251793.120000
   1872   1878     1   0.15375 251793.120000
   1875   1884     1   0.14316 258236.480000
   1878   3798     1   0.14316 258236.480000
   1881   3827     1   0.14316 258236.480000
   1885   1886     1   0.14647 272713.120000
   1885   1889     1   0.14647 272713.120000
   1885   1892     1   0.14647 272713.120000
   1886   1898     1   0.15375 251793.120000
   1889   1901     1   0.15375 251793.120000
   1892   1895     1   0.15375 251793.120000
   1895   1904     1   0.15375 251793.120000
   1898   1910     1   0.15375 251793.120000
   1901   1907     1   0.15375 251793.120000
   1904   1913     1   0.14316 258236.480000
   1907   3856     1   0.14316 258236.480000
   1910   3885     1   0.14316 258236.480000
   1914   1915     1   0.14647 272713.120000
   1914   1918     1   0.14647 272713.120000
   1914   1921     1   0.14647 272713.120000
   1915   1927     1   0.15375 251793.120000
   1918   1930     1   0.15375 251793.120000
   1921   1924     1   0.15375 251793.120000
   1924   1933     1   0.15375 251793.120000
   1927   1939     1   0.15375 251793.120000
   1930   1936     1   0.15375 251793.120000
   1933   1942     1   0.14316 258236.480000
   1936   3914     1   0.14316 258236.480000
   1939   3943     1   0.14316 258236.480000
   1943   1944     1   0.14647 272713.120000
   1943   1947     1   0.14647 272713.120000
   1943   1950     1   0.14647 272713.120000
   1944   1956     1   0.15375 251793.120000
   1947   1959     1   0.15375 251793.120000
   1950   1953     1   0.15375 251793.120000
   1953   1962     1   0.15375 251793.120000
   1956   1968     1   0.15375 251793.120000
   1959   1965     1   0.15375 251793.120000
   1962   1971     1   0.14316 258236.480000
   1965   3972     1   0.14316 258236.480000
   1968   4001     1   0.14316 258236.480000
   1972   1973     1   0.14647 272713.120000
   1972   1976     1   0.14647 272713.120000
   1972   1979     1   0.14647 272713.120000
   1973   1985     1   0.15375 251793.120000
   1976   1988     1   0.15375 251793.120000
   1979   1982     1   0.15375 251793.120000
   1982   1991     1   0.15375 251793.120000
   1985   1997     1   0.15375 251793.120000
   1988   1994     1   0.15375 251793.120000
   1991   2000     1   0.14316 258236.480000
   1994   4030     1   0.14316 258236.480000
   1997   4059     1   0.14316 258236.480000
   2001   2002     1   0.14647 272713.120000
   2001   2005     1   0.14647 272713.120000
   2001   2008     1   0.14647 272713.120000
   2002   2014     1   0.15375 251793.120000
   2005   2017     1   0.15375 251793.120000
   2008   2011     1   0.15375 251793.120000
   2011   2020     1   0.15375 251793.120000
   2014   2026     1   0.15375 251793.120000
   2017   2023     1   0.15375 251793.120000
   2020   2029     1   0.14316 258236.480000
   2023   4088     1   0.14316 258236.480000
   2026   4117     1   0.14316 258236.480000
   2030   2031     1   0.14647 272713.120000
   2030   2034     1   0.14647 272713.120000
   2030   2037     1   0.14647 272713.120000
   2031   2043     1   0.15375 251793.120000
   2034   2046     1   0.15375 251793.120000
   2037   2040     1   0.15375 251793.120000
   2040   2049     1   0.15375 251793.120000
   2043   2055     1   0.15375 251793.120000
   2046   2052     1   0.15375 251793.120000
   2049   2058     1   0.14316 258236.480000
   2052   4146     1   0.14316 258236.480000
   2055   4175     1   0.14316 258236.480000
   2059   2060     1   0.14647 272713.120000
   2059   2063     1   0.14647 272713.120000
   2059   2066     1   0.14647 272713.120000
   2060   2072     1   0.15375 251793.120000
   2063   2075     1   0.15375 251793.120000
   2066   2069     1   0.15375 251793.120000
   2069   2078     1   0.15375 251793.120000
   2072   2084     1   0.15375 251793.120000
   2075   2081     1   0.15375 251793.120000
   2078   2087     1   0.14316 258236.480000
   2081   4204     1   0.14316 258236.480000
   2084   4233     1   0.14316 258236.480000
   2088   2089     1   0.14647 272713.120000
   2088   2092     1   0.14647 272713.120000
   2088   2095     1   0.14647 272713.120000
   2089   2101     1   0.15375 251793.120000
   2092   2104     1   0.15375 251793.120000
   2095   2098     1   0.15375 251793.120000
   2098   2107     1   0.15375 251793.120000
   2101   2113     1   0.15375 251793.120000
   2104   2110     1   0.15375 251793.120000
   2107   2116     1   0.14316 258236.480000
   2110   4262     1   0.14316 258236.480000
   2113   4291     1   0.14316 258236.480000
   2117   2118     1   0.14647 272713.120000
   2117   2121     1   0.14647 272713.120000
   2117   2124     1   0.14647 272713.120000
   2118   2130     1   0.15375 251793.120000
   2121   2133     1   0.15375 251793.120000
   2124   2127     1   0.15375 251793.120000
   2127   2136     1   0.15375 251793.120000
   2130   2142     1   0.15375 251793.120000
   2133   2139     1   0.15375 251793.120000
   2136   2145     1   0.14316 258236.480000
   2139   4320     1   0.14316 258236.480000
   2142   4349     1   0.14316 258236.480000
   2146   2147     1   0.14647 272713.120000
   2146   2150     1   0.14647 272713.120000
   2146   2153     1   0.14647 272713.120000
   2147   2159     1   0.15375 251793.120000
   2150   2162     1   0.15375 251793.120000
   2153   2156     1   0.15375 251793.120000
   2156   2165     1   0.15375 251793.120000
   2159   2171     1   0.15375 251793.120000
   2162   2168     1   0.15375 251793.120000
   2165   2174     1   0.14316 258236.480000
   2168   4378     1   0.14316 258236.480000
   2171   4407     1   0.14316 258236.480000
   2175   2176     1   0.14647 272713.120000
   2175   2179     1   0.14647 272713.120000
   2175   2182     1   0.14647 272713.120000
   2176   2188     1   0.15375 251793.120000
   2179   2191     1   0.15375 251793.120000
   2182   2185     1   0.15375 251793.120000
   2185   2194     1   0.15375 251793.120000
   2188   2200     1   0.15375 251793.120000
   2191   2197     1   0.15375 251793.120000
   2194   2203     1   0.14316 258236.480000
   2197   4436     1   0.14316 258236.480000
   2200   4465     1   0.14316 258236.480000
   2204   2205     1   0.14647 272713.120000
   2204   2208     1   0.14647 272713.120000
   2204   2211     1   0.14647 272713.120000
   2205   2217     1   0.15375 251793.120000
   2208   2220     1   0.15375 251793.120000
   2211   2214     1   0.15375 251793.120000
   2214   2223     1   0.15375 251793.120000
   2217   2229     1   0.15375 251793.120000
   2220   2226     1   0.15375 251793.120000
   2223   2232     1   0.14316 258236.480000
   2226   4494     1   0.14316 258236.480000
   2229   4523     1   0.14316 258236.480000
   2233   2234     1   0.14647 272713.120000
   2233   2237     1   0.14647 272713.120000
   2233   2240     1   0.14647 272713.120000
   2234   2246     1   0.15375 251793.120000
   2237   2249     1   0.15375 251793.120000
   2240   2243     1   0.15375 251793.120000
   2243   2252     1   0.15375 251793.120000
   2246   2258     1   0.15375 251793.120000
   2249   2255     1   0.15375 251793.120000
   2252   2261     1   0.14316 258236.480000
   2255   4552     1   0.14316 258236.480000
   2258   4581     1   0.14316 258236.480000
   2262   2263     1   0.14647 272713.120000
   2262   2266     1   0.14647 272713.120000
   2262   2269     1   0.14647 272713.120000
   2263   2275     1   0.15375 251793.120000
   2266   2278     1   0.15375 251793.120000
   2269   2272     1   0.15375 251793.120000
   2272   2281     1   0.15375 251793.120000
   2275   2287     1   0.15375 251793.120000
   2278   2284     1   0.15375 251793.120000
   2281   2290     1   0.14316 258236.480000
   2284   4610     1   0.14316 258236.480000
   2287   4639     1   0.14316 258236.480000
   2291   2292     1   0.14647 272713.120000
   2291   2295     1   0.14647 272713.120000
   2291   2298     1   0.14647 272713.120000
   2292   2304     1   0.15375 251793.120000
   2295   2307     1   0.15375 251793.120000
   2298   2301     1   0.15375 251793.120000
   2301   2310     1   0.15375 251793.120000
   2304   2316     1   0.15375 251793.120000
   2307   2313     1   0.15375 251793.120000
   2310   2319     1   0.14316 258236.480000
   2313   4668     1   0.14316 258236.480000
   2316   4697     1   0.14316 258236.480000
   2320   2321     1   0.14647 272713.120000
   2320   2324     1   0.14647 272713.120000
   2320   2327     1   0.14647 272713.120000
   2321   2333     1   0.15375 251793.120000
   2324   2336     1   0.15375 251793.120000
   2327   2330     1   0.15375 251793.120000
   2330   2339     1   0.15375 251793.120000
   2333   2345     1   0.15375 251793.120000
   2336   2342     1   0.15375 251793.120000
   2339   2348     1   0.14316 258236.480000
   2342   4726     1   0.14316 258236.480000
   2345   4755     1   0.14316 258236.480000
   2349   2350     1   0.14647 272713.120000
   2349   2353     1   0.14647 272713.120000
   2349   2356     1   0.14647 272713.120000
   2350   2362     1   0.15375 251793.120000
   2353   2365     1   0.15375 251793.120000
   2356   2359     1   0.15375 251793.120000
   2359   2368     1   0.15375 251793.120000
   2362   2374     1   0.15375 251793.120000
   2365   2371     1   0.15375 251793.120000
   2368   2377     1   0.14316 258236.480000
   2371   4784     1   0.14316 258236.480000
   2374   4813     1   0.14316 258236.480000
   2378   2379     1   0.14647 272713.120000
   2378   2382     1   0.14647 272713.120000
   2378   2385     1   0.14647 272713.120000
   2379   2391     1   0.15375 251793.120000
   2382   2394     1   0.15375 251793.120000
   2385   2388     1   0.15375 251793.120000
   2388   2397     1   0.15375 251793.120000
   2391   2403     1   0.15375 251793.120000
   2394   2400     1   0.15375 251793.120000
   2397   2406     1   0.14316 258236.480000
   2400   4842     1   0.14316 258236.480000
   2403   4871     1   0.14316 258236.480000
   2407   2408     1   0.14647 272713.120000
   2407   2411     1   0.14647 272713.120000
   2407   2414     1   0.14647 272713.120000
   2408   2420     1   0.15375 251793.120000
   2411   2423     1   0.15375 251793.120000
   2414   2417     1   0.15375 251793.120000
   2417   2426     1   0.15375 251793.120000
   2420   2432     1   0.15375 251793.120000
   2423   2429     1   0.15375 251793.120000
   2426   2435     1   0.14316 258236.480000
   2429   4900     1   0.14316 258236.480000
   2432   4929     1   0.14316 258236.480000
   2436   2437     1   0.14647 272713.120000
   2436   2440     1   0.14647 272713.120000
   2436   2443     1   0.14647 272713.120000
   2437   2449     1   0.15375 251793.120000
   2440   2452     1   0.15375 251793.120000
   2443   2446     1   0.15375 251793.120000
   2446   2455     1   0.15375 251793.120000
   2449   2461     1   0.15375 251793.120000
   2452   2458     1   0.15375 251793.120000
   2455   2464     1   0.14316 258236.480000
   2458   4958     1   0.14316 258236.480000
   2461   4987     1   0.14316 258236.480000
   2465   2466     1   0.14647 272713.120000
   2465   2469     1   0.14647 272713.120000
   2465   2472     1   0.14647 272713.120000
   2466   2478     1   0.15375 251793.120000
   2469   2481     1   0.15375 251793.120000
   2472   2475     1   0.15375 251793.120000
   2475   2484     1   0.15375 251793.120000
   2478   2490     1   0.15375 251793.120000
   2481   2487     1   0.15375 251793.120000
   2484   2493     1   0.14316 258236.480000
   2487   5016     1   0.14316 258236.480000
   2490   5045     1   0.14316 258236.480000
   2494   2495     1   0.14647 272713.120000
   2494   2498     1   0.14647 272713.120000
   2494   2501     1   0.14647 272713.120000
   2495   2507     1   0.15375 251793.120000
   2498   2510     1   0.15375 251793.120000
   2501   2504     1   0.15375 251793.120000
   2504   2513     1   0.15375 251793.120000
   2507   2519     1   0.15375 251793.120000
   2510   2516     1   0.15375 251793.120000
   2513   2522     1   0.14316 258236.480000
   2516   5074     1   0.14316 258236.480000
   2519   5103     1   0.14316 258236.480000
   2523   2524     1   0.14647 272713.120000
   2523   2527     1   0.14647 272713.120000
   2523   2530     1   0.14647 272713.120000
   2524   2536     1   0.15375 251793.120000
   2527   2539     1   0.15375 251793.120000
   2530   2533     1   0.15375 251793.120000
   2533   2542     1   0.15375 251793.120000
   2536   2548     1   0.15375 251793.120000
   2539   2545     1   0.15375 251793.120000
   2542   2551     1   0.14316 258236.480000
   2545   5132     1   0.14316 258236.480000
   2548   5161     1   0.14316 258236.480000
   2552   2553     1   0.14647 272713.120000
   2552   2556     1   0.14647 272713.120000
   2552   2559     1   0.14647 272713.120000
   2553   2565     1   0.15375 251793.120000
   2556   2568     1   0.15375 251793.120000
   2559   2562     1   0.15375 251793.120000
   2562   2571     1   0.15375 251793.120000
   2565   2577     1   0.15375 251793.120000
   2568   2574     1   0.15375 251793.120000
   2571   2580     1   0.14316 258236.480000
   2574   5190     1   0.14316 258236.480000
   2577   5219     1   0.14316 258236.480000
   2581   2582     1   0.14647 272713.120000
   2581   2585     1   0.14647 272713.120000
   2581   2588     1   0.14647 272713.120000
   2582   2594     1   0.15375 251793.120000
   2585   2597     1   0.15375 251793.120000
   2588   2591     1   0.15375 251793.120000
   2591   2600     1   0.15375 251793.120000
   2594   2606     1   0.15375 251793.120000
   2597   2603     1   0.15375 251793.120000
   2600   2609     1   0.14316 258236.480000
   2603   5248     1   0.14316 258236.480000
   2606   5277     1   0.14316 258236.480000
   2610   2611     1   0.14647 272713.120000
   2610   2614     1   0.14647 272713.120000
   2610   2617     1   0.14647 272713.120000
   2611   2623     1   0.15375 251793.120000
   2614   2626     1   0.15375 251793.120000
   2617   2620     1   0.15375 251793.120000
   2620   2629     1   0.15375 251793.120000
   2623   2635     1   0.15375 251793.120000
   2626   2632     1   0.15375 251793.120000
   2629   2638     1   0.14316 258236.480000
   2632   5306     1   0.14316 258236.480000
   2635   5335     1   0.14316 258236.480000
   2639   2640     1   0.14647 272713.120000
   2639   2643     1   0.14647 272713.120000
   2639   2646     1   0.14647 272713.120000
   2640   2652     1   0.15375 251793.120000
   2643   2655     1   0.15375 251793.120000
   2646   2649     1   0.15375 251793.120000
   2649   2658     1   0.15375 251793.120000
   2652   2664     1   0.15375 251793.120000
   2655   2661     1   0.15375 251793.120000
   2658   2667     1   0.14316 258236.480000
   2661   5364     1   0.14316 258236.480000
   2664   5393     1   0.14316 258236.480000
   2668   2669     1   0.14647 272713.120000
   2668   2672     1   0.14647 272713.120000
   2668   2675     1   0.14647 272713.120000
   2669   2681     1   0.15375 251793.120000
   2672   2684     1   0.15375 251793.120000
   2675   2678     1   0.15375 251793.120000
   2678   2687     1   0.15375 251793.120000
   2681   2693     1   0.15375 251793.120000
   2684   2690     1   0.15375 251793.120000
   2687   2696     1   0.14316 258236.480000
   2690   5422     1   0.14316 258236.480000
   2693   5451     1   0.14316 258236.480000
   2697   2698     1   0.14647 272713.120000
   2697   2701     1   0.14647 272713.120000
   2697   2704     1   0.14647 272713.120000
   2698   2710     1   0.15375 251793.120000
   2701   2713     1   0.15375 251793.120000
   2704   2707     1   0.15375 251793.120000
   2707   2716     1   0.15375 251793.120000
   2710   2722     1   0.15375 251793.120000
   2713   2719     1   0.15375 251793.120000
   2716   2725     1   0.14316 258236.480000
   2719   5480     1   0.14316 258236.480000
   2722   5509     1   0.14316 258236.480000
   2726   2727     1   0.14647 272713.120000
   2726   2730     1   0.14647 272713.120000
   2726   2733     1   0.14647 272713.120000
   2727   2739     1   0.15375 251793.120000
   2730   2742     1   0.15375 251793.120000
   2733   2736     1   0.15375 251793.120000
   2736   2745     1   0.15375 251793.120000
   2739   2751     1   0.15375 251793.120000
   2742   2748     1   0.15375 251793.120000
   2745   2754     1   0.14316 258236.480000
   2748   5520     1   0.14316 258236.480000
   2751   5543     1   0.14316 258236.480000
   2755   2756     1   0.14647 272713.120000
   2755   2759     1   0.14647 272713.120000
   2755   2762     1   0.14647 272713.120000
   2756   2768     1   0.15375 251793.120000
   2759   2771     1   0.15375 251793.120000
   2762   2765     1   0.15375 251793.120000
   2765   2774     1   0.15375 251793.120000
   2768   2780     1   0.15375 251793.120000
   2771   2777     1   0.15375 251793.120000
   2774   2783     1   0.14316 258236.480000
   2777   5566     1   0.14316 258236.480000
   2780   5589     1   0.14316 258236.480000
   2784   2785     1   0.14647 272713.120000
   2784   2788     1   0.14647 272713.120000
   2784   2791     1   0.14647 272713.120000
   2785   2797     1   0.15375 251793.120000
   2788   2800     1   0.15375 251793.120000
   2791   2794     1   0.15375 251793.120000
   2794   2803     1   0.15375 251793.120000
   2797   2809     1   0.15375 251793.120000
   2800   2806     1   0.15375 251793.120000
   2803   2812     1   0.14316 258236.480000
   2806   5612     1   0.14316 258236.480000
   2809   5635     1   0.14316 258236.480000
   2813   2814     1   0.14647 272713.120000
   2813   2817     1   0.14647 272713.120000
   2813   2820     1   0.14647 272713.120000
   2814   2826     1   0.15375 251793.120000
   2817   2829     1   0.15375 251793.120000
   2820   2823     1   0.15375 251793.120000
   2823   2832     1   0.15375 251793.120000
   2826   2838     1   0.15375 251793.120000
   2829   2835     1   0.15375 251793.120000
   2832   2841     1   0.14316 258236.480000
   2835   5658     1   0.14316 258236.480000
   2838   5681     1   0.14316 258236.480000
   2842   2843     1   0.14647 272713.120000
   2842   2846     1   0.14647 272713.120000
   2842   2849     1   0.14647 272713.120000
   2843   2855     1   0.15375 251793.120000
   2846   2858     1   0.15375 251793.120000
   2849   2852     1   0.15375 251793.120000
   2852   2861     1   0.15375 251793.120000
   2855   2867     1   0.15375 251793.120000
   2858   2864     1   0.15375 251793.120000
   2861   2870     1   0.14316 258236.480000
   2864   5704     1   0.14316 258236.480000
   2867   5727     1   0.14316 258236.480000
   2871   2872     1   0.14647 272713.120000
   2871   2875     1   0.14647 272713.120000
   2871   2878     1   0.14647 272713.120000
   2872   2884     1   0.15375 251793.120000
   2875   2887     1   0.15375 251793.120000
   2878   2881     1   0.15375 251793.120000
   2881   2890     1   0.15375 251793.120000
   2884   2896     1   0.15375 251793.120000
   2887   2893     1   0.15375 251793.120000
   2890   2899     1   0.14316 258236.480000
   2893   5750     1   0.14316 258236.480000
   2896   5773     1   0.14316 258236.480000
   2900   2901     1   0.14647 272713.120000
   2900   2904     1   0.14647 272713.120000
   2900   2907     1   0.14647 272713.120000
   2901   2913     1   0.15375 251793.120000
   2904   2916     1   0.15375 251793.120000
   2907   2910     1   0.15375 251793.120000
   2910   2919     1   0.15375 251793.120000
   2913   2925     1   0.15375 251793.120000
   2916   2922     1   0.15375 251793.120000
   2919   2928     1   0.14316 258236.480000
   2922   5796     1   0.14316 258236.480000
   2925   5819     1   0.14316 258236.480000
   2929   2930     1   0.14647 272713.120000
   2929   2933     1   0.14647 272713.120000
   2929   2936     1   0.14647 272713.120000
   2930   2942     1   0.15375 251793.120000
   2933   2945     1   0.15375 251793.120000
   2936   2939     1   0.15375 251793.120000
   2939   2948     1   0.15375 251793.120000
   2942   2954     1   0.15375 251793.120000
   2945   2951     1   0.15375 251793.120000
   2948   2957     1   0.14316 258236.480000
   2951   5842     1   0.14316 258236.480000
   2954   5865     1   0.14316 258236.480000
   2958   2959     1   0.14647 272713.120000
   2958   2962     1   0.14647 272713.120000
   2958   2965     1   0.14647 272713.120000
   2959   2971     1   0.15375 251793.120000
   2962   2974     1   0.15375 251793.120000
   2965   2968     1   0.15375 251793.120000
   2968   2977     1   0.15375 251793.120000
   2971   2983     1   0.15375 251793.120000
   2974   2980     1   0.15375 251793.120000
   2977   2986     1   0.14316 258236.480000
   2980   5888     1   0.14316 258236.480000
   2983   5911     1   0.14316 258236.480000
   2987   2988     1   0.14647 272713.120000
   2987   2991     1   0.14647 272713.120000
   2987   2994     1   0.14647 272713.120000
   2988   3000     1   0.15375 251793.120000
   2991   3003     1   0.15375 251793.120000
   2994   2997     1   0.15375 251793.120000
   2997   3006     1   0.15375 251793.120000
   3000   3012     1   0.15375 251793.120000
   3003   3009     1   0.15375 251793.120000
   3006   3015     1   0.14316 258236.480000
   3009   5934     1   0.14316 258236.480000
   3012   5957     1   0.14316 258236.480000
   3016   3017     1   0.14647 272713.120000
   3016   3020     1   0.14647 272713.120000
   3016   3023     1   0.14647 272713.120000
   3017   3029     1   0.15375 251793.120000
   3020   3032     1   0.15375 251793.120000
   3023   3026     1   0.15375 251793.120000
   3026   3035     1   0.15375 251793.120000
   3029   3041     1   0.15375 251793.120000
   3032   3038     1   0.15375 251793.120000
   3035   3044     1   0.14316 258236.480000
   3038   5980     1   0.14316 258236.480000
   3041   6003     1   0.14316 258236.480000
   3045   3046     1   0.14647 272713.120000
   3045   3049     1   0.14647 272713.120000
   3045   3052     1   0.14647 272713.120000
   3046   3058     1   0.15375 251793.120000
   3049   3061     1   0.15375 251793.120000
   3052   3055     1   0.15375 251793.120000
   3055   3064     1   0.15375 251793.120000
   3058   3070     1   0.15375 251793.120000
   3061   3067     1   0.15375 251793.120000
   3064   3073     1   0.14316 258236.480000
   3067   6026     1   0.14316 258236.480000
   3070   6049     1   0.14316 258236.480000
   3074   3075     1   0.14647 272713.120000
   3074   3078     1   0.14647 272713.120000
   3074   3081     1   0.14647 272713.120000
   3075   3087     1   0.15375 251793.120000
   3078   3090     1   0.15375 251793.120000
   3081   3084     1   0.15375 251793.120000
   3084   3093     1   0.15375 251793.120000
   3087   3099     1   0.15375 251793.120000
   3090   3096     1   0.15375 251793.120000
   3093   3102     1   0.14316 258236.480000
   3096   6072     1   0.14316 258236.480000
   3099   6095     1   0.14316 258236.480000
   3103   3104     1   0.14647 272713.120000
   3103   3107     1   0.14647 272713.120000
   3103   3110     1   0.14647 272713.120000
   3104   3116     1   0.15375 251793.120000
   3107   3119     1   0.15375 251793.120000
   3110   3113     1   0.15375 251793.120000
   3113   3122     1   0.15375 251793.120000
   3116   3128     1   0.15375 251793.120000
   3119   3125     1   0.15375 251793.120000
   3122   3131     1   0.14316 258236.480000
   3125   6118     1   0.14316 258236.480000
   3128   6141     1   0.14316 258236.480000
   3132   3133     1   0.14647 272713.120000
   3132   3136     1   0.14647 272713.120000
   3132   3139     1   0.14647 272713.120000
   3133   3145     1   0.15375 251793.120000
   3136   3148     1   0.15375 251793.120000
   3139   3142     1   0.15375 251793.120000
   3142   3151     1   0.15375 251793.120000
   3145   3157     1   0.15375 251793.120000
   3148   3154     1   0.15375 251793.120000
   3151   3160     1   0.14316 258236.480000
   3154   6164     1   0.14316 258236.480000
   3157   6187     1   0.14316 258236.480000
   3161   3162     1   0.14647 272713.120000
   3161   3165     1   0.14647 272713.120000
   3161   3168     1   0.14647 272713.120000
   3162   3174     1   0.15375 251793.120000
   3165   3177     1   0.15375 251793.120000
   3168   3171     1   0.15375 251793.120000
   3171   3180     1   0.15375 251793.120000
   3174   3186     1   0.15375 251793.120000
   3177   3183     1   0.15375 251793.120000
   3180   3189     1   0.14316 258236.480000
   3183   6210     1   0.14316 258236.480000
   3186   6233     1   0.14316 258236.480000
   3190   3191     1   0.14647 272713.120000
   3190   3194     1   0.14647 272713.120000
   3190   3197     1   0.14647 272713.120000
   3191   3203     1   0.15375 251793.120000
   3194   3206     1   0.15375 251793.120000
   3197   3200     1   0.15375 251793.120000
   3200   3209     1   0.15375 251793.120000
   3203   3215     1   0.15375 251793.120000
   3206   3212     1   0.15375 251793.120000
   3209   3218     1   0.14316 258236.480000
   3212   6256     1   0.14316 258236.480000
   3215   6279     1   0.14316 258236.480000
   3219   3220     1   0.14647 272713.120000
   3219   3223     1   0.14647 272713.120000
   3219   3226     1   0.14647 272713.120000
   3220   3232     1   0.15375 251793.120000
   3223   3235     1   0.15375 251793.120000
   3226   3229     1   0.15375 251793.120000
   3229   3238     1   0.15375 251793.120000
   3232   3244     1   0.15375 251793.120000
   3235   3241     1   0.15375 251793.120000
   3238   3247     1   0.14316 258236.480000
   3241   6302     1   0.14316 258236.480000
   3244   6325     1   0.14316 258236.480000
   3248   3249     1   0.14647 272713.120000
   3248   3252     1   0.14647 272713.120000
   3248   3255     1   0.14647 272713.120000
   3249   3261     1   0.15375 251793.120000
   3252   3264     1   0.15375 251793.120000
   3255   3258     1   0.15375 251793.120000
   3258   3267     1   0.15375 251793.120000
   3261   3273     1   0.15375 251793.120000
   3264   3270     1   0.15375 251793.120000
   3267   3276     1   0.14316 258236.480000
   3270   6348     1   0.14316 258236.480000
   3273   6371     1   0.14316 258236.480000
   3277   3278     1   0.14647 272713.120000
   3277   3281     1   0.14647 272713.120000
   3277   3284     1   0.14647 272713.120000
   3278   3290     1   0.15375 251793.120000
   3281   3293     1   0.15375 251793.120000
   3284   3287     1   0.15375 251793.120000
   3287   3296     1   0.15375 251793.120000
   3290   3302     1   0.15375 251793.120000
   3293   3299     1   0.15375 251793.120000
   3296   3305     1   0.14316 258236.480000
   3299   6394     1   0.14316 258236.480000
   3302   6417     1   0.14316 258236.480000
   3306   3307     1   0.14647 272713.120000
   3306   3310     1   0.14647 272713.120000
   3306   3313     1   0.14647 272713.120000
   3307   3319     1   0.15375 251793.120000
   3310   3322     1   0.15375 251793.120000
   3313   3316     1   0.15375 251793.120000
   3316   3325     1   0.15375 251793.120000
   3319   3331     1   0.15375 251793.120000
   3322   3328     1   0.15375 251793.120000
   3325   3334     1   0.14316 258236.480000
   3328   6440     1   0.14316 258236.480000
   3331   6463     1   0.14316 258236.480000
   3335   3336     1   0.14647 272713.120000
   3335   3339     1   0.14647 272713.120000
   3335   3342     1   0.14647 272713.120000
   3336   3348     1   0.15375 251793.120000
   3339   3351     1   0.15375 251793.120000
   3342   3345     1   0.15375 251793.120000
   3345   3354     1   0.15375 251793.120000
   3348   3360     1   0.15375 251793.120000
   3351   3357     1   0.15375 251793.120000
   3354   3363     1   0.14316 258236.480000
   3357   6486     1   0.14316 258236.480000
   3360   6509     1   0.14316 258236.480000
   3364   3365     1   0.14647 272713.120000
   3364   3368     1   0.14647 272713.120000
   3364   3371     1   0.14647 272713.120000
   3365   3377     1   0.15375 251793.120000
   3368   3380     1   0.15375 251793.120000
   3371   3374     1   0.15375 251793.120000
   3374   3383     1   0.15375 251793.120000
   3377   3389     1   0.15375 251793.120000
   3380   3386     1   0.15375 251793.120000
   3383   3392     1   0.14316 258236.480000
   3386   6532     1   0.14316 258236.480000
   3389   6555     1   0.14316 258236.480000
   3393   3394     1   0.14647 272713.120000
   3393   3397     1   0.14647 272713.120000
   3393   3400     1   0.14647 272713.120000
   3394   3406     1   0.15375 251793.120000
   3397   3409     1   0.15375 251793.120000
   3400   3403     1   0.15375 251793.120000
   3403   3412     1   0.15375 251793.120000
   3406   3418     1   0.15375 251793.120000
   3409   3415     1   0.15375 251793.120000
   3412   3421     1   0.14316 258236.480000
   3415   6578     1   0.14316 258236.480000
   3418   6601     1   0.14316 258236.480000
   3422   3423     1   0.14647 272713.120000
   3422   3426     1   0.14647 272713.120000
   3422   3429     1   0.14647 272713.120000
   3423   3435     1   0.15375 251793.120000
   3426   3438     1   0.15375 251793.120000
   3429   3432     1   0.15375 251793.120000
   3432   3441     1   0.15375 251793.120000
   3435   3447     1   0.15375 251793.120000
   3438   3444     1   0.15375 251793.120000
   3441   3450     1   0.14316 258236.480000
   3444   6624     1   0.14316 258236.480000
   3447   6647     1   0.14316 258236.480000
   3451   3452     1   0.14647 272713.120000
   3451   3455     1   0.14647 272713.120000
   3451   3458     1   0.14647 272713.120000
   3452   3464     1   0.15375 251793.120000
   3455   3467     1   0.15375 251793.120000
   3458   3461     1   0.15375 251793.120000
   3461   3470     1   0.15375 251793.120000
   3464   3476     1   0.15375 251793.120000
   3467   3473     1   0.15375 251793.120000
   3470   3479     1   0.14316 258236.480000
   3473   6670     1   0.14316 258236.480000
   3476   6693     1   0.14316 258236.480000
   3480   3481     1   0.14647 272713.120000
   3480   3484     1   0.14647 272713.120000
   3480   3487     1   0.14647 272713.120000
   3481   3493     1   0.15375 251793.120000
   3484   3496     1   0.15375 251793.120000
   3487   3490     1   0.15375 251793.120000
   3490   3499     1   0.15375 251793.120000
   3493   3505     1   0.15375 251793.120000
   3496   3502     1   0.15375 251793.120000
   3499   3508     1   0.14316 258236.480000
   3502   6716     1   0.14316 258236.480000
   3505   6739     1   0.14316 258236.480000
   3509   3510     1   0.14647 272713.120000
   3509   3513     1   0.14647 272713.120000
   3509   3516     1   0.14647 272713.120000
   3510   3522     1   0.15375 251793.120000
   3513   3525     1   0.15375 251793.120000
   3516   3519     1   0.15375 251793.120000
   3519   3528     1   0.15375 251793.120000
   3522   3534     1   0.15375 251793.120000
   3525   3531     1   0.15375 251793.120000
   3528   3537     1   0.14316 258236.480000
   3531   6762     1   0.14316 258236.480000
   3534   6785     1   0.14316 258236.480000
   3538   3539     1   0.14647 272713.120000
   3538   3542     1   0.14647 272713.120000
   3538   3545     1   0.14647 272713.120000
   3539   3551     1   0.15375 251793.120000
   3542   3554     1   0.15375 251793.120000
   3545   3548     1   0.15375 251793.120000
   3548   3557     1   0.15375 251793.120000
   3551   3563     1   0.15375 251793.120000
   3554   3560     1   0.15375 251793.120000
   3557   3566     1   0.14316 258236.480000
   3560   6808     1   0.14316 258236.480000
   3563   6831     1   0.14316 258236.480000
   3567   3568     1   0.14647 272713.120000
   3567   3571     1   0.14647 272713.120000
   3567   3574     1   0.14647 272713.120000
   3568   3580     1   0.15375 251793.120000
   3571   3583     1   0.15375 251793.120000
   3574   3577     1   0.15375 251793.120000
   3577   3586     1   0.15375 251793.120000
   3580   3592     1   0.15375 251793.120000
   3583   3589     1   0.15375 251793.120000
   3586   3595     1   0.14316 258236.480000
   3589   6854     1   0.14316 258236.480000
   3592   6877     1   0.14316 258236.480000
   3596   3597     1   0.14647 272713.120000
   3596   3600     1   0.14647 272713.120000
   3596   3603     1   0.14647 272713.120000
   3597   3609     1   0.15375 251793.120000
   3600   3612     1   0.15375 251793.120000
   3603   3606     1   0.15375 251793.120000
   3606   3615     1   0.15375 251793.120000
   3609   3621     1   0.15375 251793.120000
   3612   3618     1   0.15375 251793.120000
   3615   3624     1   0.14316 258236.480000
   3618   6900     1   0.14316 258236.480000
   3621   6923     1   0.14316 258236.480000
   3625   3626     1   0.14647 272713.120000
   3625   3629     1   0.14647 272713.120000
   3625   3632     1   0.14647 272713.120000
   3626   3638     1   0.15375 251793.120000
   3629   3641     1   0.15375 251793.120000
   3632   3635     1   0.15375 251793.120000
   3635   3644     1   0.15375 251793.120000
   3638   3650     1   0.15375 251793.120000
   3641   3647     1   0.15375 251793.120000
   3644   3653     1   0.14316 258236.480000
   3647   6946     1   0.14316 258236.480000
   3650   6969     1   0.14316 258236.480000
   3654   3655     1   0.14647 272713.120000
   3654   3658     1   0.14647 272713.120000
   3654   3661     1   0.14647 272713.120000
   3655   3667     1   0.15375 251793.120000
   3658   3670     1   0.15375 251793.120000
   3661   3664     1   0.15375 251793.120000
   3664   3673     1   0.15375 251793.120000
   3667   3679     1   0.15375 251793.120000
   3670   3676     1   0.15375 251793.120000
   3673   3682     1   0.14316 258236.480000
   3676   6992     1   0.14316 258236.480000
   3679   7015     1   0.14316 258236.480000
   3683   3684     1   0.14647 272713.120000
   3683   3687     1   0.14647 272713.120000
   3683   3690     1   0.14647 272713.120000
   3684   3696     1   0.15375 251793.120000
   3687   3699     1   0.15375 251793.120000
   3690   3693     1   0.15375 251793.120000
   3693   3702     1   0.15375 251793.120000
   3696   3708     1   0.15375 251793.120000
   3699   3705     1   0.15375 251793.120000
   3702   3711     1   0.14316 258236.480000
   3705   7038     1   0.14316 258236.480000
   3708   7061     1   0.14316 258236.480000
   3712   3713     1   0.14647 272713.120000
   3712   3716     1   0.14647 272713.120000
   3712   3719     1   0.14647 272713.120000
   3713   3725     1   0.15375 251793.120000
   3716   3728     1   0.15375 251793.120000
   3719   3722     1   0.15375 251793.120000
   3722   3731     1   0.15375 251793.120000
   3725   3737     1   0.15375 251793.120000
   3728   3734     1   0.15375 251793.120000
   3731   3740     1   0.14316 258236.480000
   3734   7084     1   0.14316 258236.480000
   3737   7107     1   0.14316 258236.480000
   3741   3742     1   0.14647 272713.120000
   3741   3745     1   0.14647 272713.120000
   3741   3748     1   0.14647 272713.120000
   3742   3754     1   0.15375 251793.120000
   3745   3757     1   0.15375 251793.120000
   3748   3751     1   0.15375 251793.120000
   3751   3760     1   0.15375 251793.120000
   3754   3766     1   0.15375 251793.120000
   3757   3763     1   0.15375 251793.120000
   3760   3769     1   0.14316 258236.480000
   3763   7130     1   0.14316 258236.480000
   3766   7153     1   0.14316 258236.480000
   3770   3771     1   0.14647 272713.120000
   3770   3774     1   0.14647 272713.120000
   3770   3777     1   0.14647 272713.120000
   3771   3783     1   0.15375 251793.120000
   3774   3786     1   0.15375 251793.120000
   3777   3780     1   0.15375 251793.120000
   3780   3789     1   0.15375 251793.120000
   3783   3795     1   0.15375 251793.120000
   3786   3792     1   0.15375 251793.120000
   3789   3798     1   0.14316 258236.480000
   3792   7176     1   0.14316 258236.480000
   3795   7199     1   0.14316 258236.480000
   3799   3800     1   0.14647 272713.120000
   3799   3803     1   0.14647 272713.120000
   3799   3806     1   0.14647 272713.120000
   3800   3812     1   0.15375 251793.120000
   3803   3815     1   0.15375 251793.120000
   3806   3809     1   0.15375 251793.120000
   3809   3818     1   0.15375 251793.120000
   3812   3824     1   0.15375 251793.120000
   3815   3821     1   0.15375 251793.120000
   3818   3827     1   0.14316 258236.480000
   3821   7222     1   0.14316 258236.480000
   3824   7245     1   0.14316 258236.480000
   3828   3829     1   0.14647 272713.120000
   3828   3832     1   0.14647 272713.120000
   3828   3835     1   0.14647 272713.120000
   3829   3841     1   0.15375 251793.120000
   3832   3844     1   0.15375 251793.120000
   3835   3838     1   0.15375 251793.120000
   3838   3847     1   0.15375 251793.120000
   3841   3853     1   0.15375 251793.120000
   3844   3850     1   0.15375 251793.120000
   3847   3856     1   0.14316 258236.480000
   3850   7268     1   0.14316 258236.480000
   3853   7291     1   0.14316 258236.480000
   3857   3858     1   0.14647 272713.120000
   3857   3861     1   0.14647 272713.120000
   3857   3864     1   0.14647 272713.120000
   3858   3870     1   0.15375 251793.120000
   3861   3873     1   0.15375 251793.120000
   3864   3867     1   0.15375 251793.120000
   3867   3876     1   0.15375 251793.120000
   3870   3882     1   0.15375 251793.120000
   3873   3879     1   0.15375 251793.120000
   3876   3885     1   0.14316 258236.480000
   3879   7314     1   0.14316 258236.480000
   3882   7337     1   0.14316 258236.480000
   3886   3887     1   0.14647 272713.120000
   3886   3890     1   0.14647 272713.120000
   3886   3893     1   0.14647 272713.120000
   3887   3899     1   0.15375 251793.120000
   3890   3902     1   0.15375 251793.120000
   3893   3896     1   0.15375 251793.120000
   3896   3905     1   0.15375 251793.120000
   3899   3911     1   0.15375 251793.120000
   3902   3908     1   0.15375 251793.120000
   3905   3914     1   0.14316 258236.480000
   3908   7360     1   0.14316 258236.480000
   3911   7383     1   0.14316 258236.480000
   3915   3916     1   0.14647 272713.120000
   3915   3919     1   0.14647 272713.120000
   3915   3922     1   0.14647 272713.120000
   3916   3928     1   0.15375 251793.120000
   3919   3931     1   0.15375 251793.120000
   3922   3925     1   0.15375 251793.120000
   3925   3934     1   0.15375 251793.120000
   3928   3940     1   0.15375 251793.120000
   3931   3937     1   0.15375 251793.120000
   3934   3943     1   0.14316 258236.480000
   3937   7406     1   0.14316 258236.480000
   3940   7429     1   0.14316 258236.480000
   3944   3945     1   0.14647 272713.120000
   3944   3948     1   0.14647 272713.120000
   3944   3951     1   0.14647 272713.120000
   3945   3957     1   0.15375 251793.120000
   3948   3960     1   0.15375 251793.120000
   3951   3954     1   0.15375 251793.120000
   3954   3963     1   0.15375 251793.120000
   3957   3969     1   0.15375 251793.120000
   3960   3966     1   0.15375 251793.120000
   3963   3972     1   0.14316 258236.480000
   3966   7452     1   0.14316 258236.480000
   3969   7475     1   0.14316 258236.480000
   3973   3974     1   0.14647 272713.120000
   3973   3977     1   0.14647 272713.120000
   3973   3980     1   0.14647 272713.120000
   3974   3986     1   0.15375 251793.120000
   3977   3989     1   0.15375 251793.120000
   3980   3983     1   0.15375 251793.120000
   3983   3992     1   0.15375 251793.120000
   3986   3998     1   0.15375 251793.120000
   3989   3995     1   0.15375 251793.120000
   3992   4001     1   0.14316 258236.480000
   3995   7498     1   0.14316 258236.480000
   3998   7521     1   0.14316 258236.480000
   4002   4003     1   0.14647 272713.120000
   4002   4006     1   0.14647 272713.120000
   4002   4009     1   0.14647 272713.120000
   4003   4015     1   0.15375 251793.120000
   4006   4018     1   0.15375 251793.120000
   4009   4012     1   0.15375 251793.120000
   4012   4021     1   0.15375 251793.120000
   4015   4027     1   0.15375 251793.120000
   4018   4024     1   0.15375 251793.120000
   4021   4030     1   0.14316 258236.480000
   4024   7544     1   0.14316 258236.480000
   4027   7567     1   0.14316 258236.480000
   4031   4032     1   0.14647 272713.120000
   4031   4035     1   0.14647 272713.120000
   4031   4038     1   0.14647 272713.120000
   4032   4044     1   0.15375 251793.120000
   4035   4047     1   0.15375 251793.120000
   4038   4041     1   0.15375 251793.120000
   4041   4050     1   0.15375 251793.120000
   4044   4056     1   0.15375 251793.120000
   4047   4053     1   0.15375 251793.120000
   4050   4059     1   0.14316 258236.480000
   4053   7590     1   0.14316 258236.480000
   4056   7613     1   0.14316 258236.480000
   4060   4061     1   0.14647 272713.120000
   4060   4064     1   0.14647 272713.120000
   4060   4067     1   0.14647 272713.120000
   4061   4073     1   0.15375 251793.120000
   4064   4076     1   0.15375 251793.120000
   4067   4070     1   0.15375 251793.120000
   4070   4079     1   0.15375 251793.120000
   4073   4085     1   0.15375 251793.120000
   4076   4082     1   0.15375 251793.120000
   4079   4088     1   0.14316 258236.480000
   4082   7636     1   0.14316 258236.480000
   4085   7659     1   0.14316 258236.480000
   4089   4090     1   0.14647 272713.120000
   4089   4093     1   0.14647 272713.120000
   4089   4096     1   0.14647 272713.120000
   4090   4102     1   0.15375 251793.120000
   4093   4105     1   0.15375 251793.120000
   4096   4099     1   0.15375 251793.120000
   4099   4108     1   0.15375 251793.120000
   4102   4114     1   0.15375 251793.120000
   4105   4111     1   0.15375 251793.120000
   4108   4117     1   0.14316 258236.480000
   4111   7682     1   0.14316 258236.480000
   4114   7705     1   0.14316 258236.480000
   4118   4119     1   0.14647 272713.120000
   4118   4122     1   0.14647 272713.120000
   4118   4125     1   0.14647 272713.120000
   4119   4131     1   0.15375 251793.120000
   4122   4134     1   0.15375 251793.120000
   4125   4128     1   0.15375 251793.120000
   4128   4137     1   0.15375 251793.120000
   4131   4143     1   0.15375 251793.120000
   4134   4140     1   0.15375 251793.120000
   4137   4146     1   0.14316 258236.480000
   4140   7728     1   0.14316 258236.480000
   4143   7751     1   0.14316 258236.480000
   4147   4148     1   0.14647 272713.120000
   4147   4151     1   0.14647 272713.120000
   4147   4154     1   0.14647 272713.120000
   4148   4160     1   0.15375 251793.120000
   4151   4163     1   0.15375 251793.120000
   4154   4157     1   0.15375 251793.120000
   4157   4166     1   0.15375 251793.120000
   4160   4172     1   0.15375 251793.120000
   4163   4169     1   0.15375 251793.120000
   4166   4175     1   0.14316 258236.480000
   4169   7774     1   0.14316 258236.480000
   4172   7797     1   0.14316 258236.480000
   4176   4177     1   0.14647 272713.120000
   4176   4180     1   0.14647 272713.120000
   4176   4183     1   0.14647 272713.120000
   4177   4189     1   0.15375 251793.120000
   4180   4192     1   0.15375 251793.120000
   4183   4186     1   0.15375 251793.120000
   4186   4195     1   0.15375 251793.120000
   4189   4201     1   0.15375 251793.120000
   4192   4198     1   0.15375 251793.120000
   4195   4204     1   0.14316 258236.480000
   4198   7820     1   0.14316 258236.480000
   4201   7843     1   0.14316 258236.480000
   4205   4206     1   0.14647 272713.120000
   4205   4209     1   0.14647 272713.120000
   4205   4212     1   0.14647 272713.120000
   4206   4218     1   0.15375 251793.120000
   4209   4221     1   0.15375 251793.120000
   4212   4215     1   0.15375 251793.120000
   4215   4224     1   0.15375 251793.120000
   4218   4230     1   0.15375 251793.120000
   4221   4227     1   0.15375 251793.120000
   4224   4233     1   0.14316 258236.480000
   4227   7866     1   0.14316 258236.480000
   4230   7889     1   0.14316 258236.480000
   4234   4235     1   0.14647 272713.120000
   4234   4238     1   0.14647 272713.120000
   4234   4241     1   0.14647 272713.120000
   4235   4247     1   0.15375 251793.120000
   4238   4250     1   0.15375 251793.120000
   4241   4244     1   0.15375 251793.120000
   4244   4253     1   0.15375 251793.120000
   4247   4259     1   0.15375 251793.120000
   4250   4256     1   0.15375 251793.120000
   4253   4262     1   0.14316 258236.480000
   4256   7912     1   0.14316 258236.480000
   4259   7935     1   0.14316 258236.480000
   4263   4264     1   0.14647 272713.120000
   4263   4267     1   0.14647 272713.120000
   4263   4270     1   0.14647 272713.120000
   4264   4276     1   0.15375 251793.120000
   4267   4279     1   0.15375 251793.120000
   4270   4273     1   0.15375 251793.120000
   4273   4282     1   0.15375 251793.120000
   4276   4288     1   0.15375 251793.120000
   4279   4285     1   0.15375 251793.120000
   4282   4291     1   0.14316 258236.480000
   4285   7958     1   0.14316 258236.480000
   4288   7981     1   0.14316 258236.480000
   4292   4293     1   0.14647 272713.120000
   4292   4296     1   0.14647 272713.120000
   4292   4299     1   0.14647 272713.120000
   4293   4305     1   0.15375 251793.120000
   4296   4308     1   0.15375 251793.120000
   4299   4302     1   0.15375 251793.120000
   4302   4311     1   0.15375 251793.120000
   4305   4317     1   0.15375 251793.120000
   4308   4314     1   0.15375 251793.120000
   4311   4320     1   0.14316 258236.480000
   4314   8004     1   0.14316 258236.480000
   4317   8027     1   0.14316 258236.480000
   4321   4322     1   0.14647 272713.120000
   4321   4325     1   0.14647 272713.120000
   4321   4328     1   0.14647 272713.120000
   4322   4334     1   0.15375 251793.120000
   4325   4337     1   0.15375 251793.120000
   4328   4331     1   0.15375 251793.120000
   4331   4340     1   0.15375 251793.120000
   4334   4346     1   0.15375 251793.120000
   4337   4343     1   0.15375 251793.120000
   4340   4349     1   0.14316 258236.480000
   4343   8050     1   0.14316 258236.480000
   4346   8073     1   0.14316 258236.480000
   4350   4351     1   0.14647 272713.120000
   4350   4354     1   0.14647 272713.120000
   4350   4357     1   0.14647 272713.120000
   4351   4363     1   0.15375 251793.120000
   4354   4366     1   0.15375 251793.120000
   4357   4360     1   0.15375 251793.120000
   4360   4369     1   0.15375 251793.120000
   4363   4375     1   0.15375 251793.120000
   4366   4372     1   0.15375 251793.120000
   4369   4378     1   0.14316 258236.480000
   4372   8096     1   0.14316 258236.480000
   4375   8119     1   0.14316 258236.480000
   4379   4380     1   0.14647 272713.120000
   4379   4383     1   0.14647 272713.120000
   4379   4386     1   0.14647 272713.120000
   4380   4392     1   0.15375 251793.120000
   4383   4395     1   0.15375 251793.120000
   4386   4389     1   0.15375 251793.120000
   4389   4398     1   0.15375 251793.120000
   4392   4404     1   0.15375 251793.120000
   4395   4401     1   0.15375 251793.120000
   4398   4407     1   0.14316 258236.480000
   4401   8142     1   0.14316 258236.480000
   4404   8165     1   0.14316 258236.480000
   4408   4409     1   0.14647 272713.120000
   4408   4412     1   0.14647 272713.120000
   4408   4415     1   0.14647 272713.120000
   4409   4421     1   0.15375 251793.120000
   4412   4424     1   0.15375 251793.120000
   4415   4418     1   0.15375 251793.120000
   4418   4427     1   0.15375 251793.120000
   4421   4433     1   0.15375 251793.120000
   4424   4430     1   0.15375 251793.120000
   4427   4436     1   0.14316 258236.480000
   4430   8188     1   0.14316 258236.480000
   4433   8211     1   0.14316 258236.480000
   4437   4438     1   0.14647 272713.120000
   4437   4441     1   0.14647 272713.120000
   4437   4444     1   0.14647 272713.120000
   4438   4450     1   0.15375 251793.120000
   4441   4453     1   0.15375 251793.120000
   4444   4447     1   0.15375 251793.120000
   4447   4456     1   0.15375 251793.120000
   4450   4462     1   0.15375 251793.120000
   4453   4459     1   0.15375 251793.120000
   4456   4465     1   0.14316 258236.480000
   4459   8234     1   0.14316 258236.480000
   4462   8257     1   0.14316 258236.480000
   4466   4467     1   0.14647 272713.120000
   4466   4470     1   0.14647 272713.120000
   4466   4473     1   0.14647 272713.120000
   4467   4479     1   0.15375 251793.120000
   4470   4482     1   0.15375 251793.120000
   4473   4476     1   0.15375 251793.120000
   4476   4485     1   0.15375 251793.120000
   4479   4491     1   0.15375 251793.120000
   4482   4488     1   0.15375 251793.120000
   4485   4494     1   0.14316 258236.480000
   4488   8280     1   0.14316 258236.480000
   4491   8303     1   0.14316 258236.480000
   4495   4496     1   0.14647 272713.120000
   4495   4499     1   0.14647 272713.120000
   4495   4502     1   0.14647 272713.120000
   4496   4508     1   0.15375 251793.120000
   4499   4511     1   0.15375 251793.120000
   4502   4505     1   0.15375 251793.120000
   4505   4514     1   0.15375 251793.120000
   4508   4520     1   0.15375 251793.120000
   4511   4517     1   0.15375 251793.120000
   4514   4523     1   0.14316 258236.480000
   4517   8326     1   0.14316 258236.480000
   4520   8349     1   0.14316 258236.480000
   4524   4525     1   0.14647 272713.120000
   4524   4528     1   0.14647 272713.120000
   4524   4531     1   0.14647 272713.120000
   4525   4537     1   0.15375 251793.120000
   4528   4540     1   0.15375 251793.120000
   4531   4534     1   0.15375 251793.120000
   4534   4543     1   0.15375 251793.120000
   4537   4549     1   0.15375 251793.120000
   4540   4546     1   0.15375 251793.120000
   4543   4552     1   0.14316 258236.480000
   4546   8372     1   0.14316 258236.480000
   4549   8395     1   0.14316 258236.480000
   4553   4554     1   0.14647 272713.120000
   4553   4557     1   0.14647 272713.120000
   4553   4560     1   0.14647 272713.120000
   4554   4566     1   0.15375 251793.120000
   4557   4569     1   0.15375 251793.120000
   4560   4563     1   0.15375 251793.120000
   4563   4572     1   0.15375 251793.120000
   4566   4578     1   0.15375 251793.120000
   4569   4575     1   0.15375 251793.120000
   4572   4581     1   0.14316 258236.480000
   4575   8418     1   0.14316 258236.480000
   4578   8441     1   0.14316 258236.480000
   4582   4583     1   0.14647 272713.120000
   4582   4586     1   0.14647 272713.120000
   4582   4589     1   0.14647 272713.120000
   4583   4595     1   0.15375 251793.120000
   4586   4598     1   0.15375 251793.120000
   4589   4592     1   0.15375 251793.120000
   4592   4601     1   0.15375 251793.120000
   4595   4607     1   0.15375 251793.120000
   4598   4604     1   0.15375 251793.120000
   4601   4610     1   0.14316 258236.480000
   4604   8464     1   0.14316 258236.480000
   4607   8487     1   0.14316 258236.480000
   4611   4612     1   0.14647 272713.120000
   4611   4615     1   0.14647 272713.120000
   4611   4618     1   0.14647 272713.120000
   4612   4624     1   0.15375 251793.120000
   4615   4627     1   0.15375 251793.120000
   4618   4621     1   0.15375 251793.120000
   4621   4630     1   0.15375 251793.120000
   4624   4636     1   0.15375 251793.120000
   4627   4633     1   0.15375 251793.120000
   4630   4639     1   0.14316 258236.480000
   4633   8510     1   0.14316 258236.480000
   4636   8533     1   0.14316 258236.480000
   4640   4641     1   0.14647 272713.120000
   4640   4644     1   0.14647 272713.120000
   4640   4647     1   0.14647 272713.120000
   4641   4653     1   0.15375 251793.120000
   4644   4656     1   0.15375 251793.120000
   4647   4650     1   0.15375 251793.120000
   4650   4659     1   0.15375 251793.120000
   4653   4665     1   0.15375 251793.120000
   4656   4662     1   0.15375 251793.120000
   4659   4668     1   0.14316 258236.480000
   4662   8556     1   0.14316 258236.480000
   4665   8579     1   0.14316 258236.480000
   4669   4670     1   0.14647 272713.120000
   4669   4673     1   0.14647 272713.120000
   4669   4676     1   0.14647 272713.120000
   4670   4682     1   0.15375 251793.120000
   4673   4685     1   0.15375 251793.120000
   4676   4679     1   0.15375 251793.120000
   4679   4688     1   0.15375 251793.120000
   4682   4694     1   0.15375 251793.120000
   4685   4691     1   0.15375 251793.120000
   4688   4697     1   0.14316 258236.480000
   4691   8602     1   0.14316 258236.480000
   4694   8625     1   0.14316 258236.480000
   4698   4699     1   0.14647 272713.120000
   4698   4702     1   0.14647 272713.120000
   4698   4705     1   0.14647 272713.120000
   4699   4711     1   0.15375 251793.120000
   4702   4714     1   0.15375 251793.120000
   4705   4708     1   0.15375 251793.120000
   4708   4717     1   0.15375 251793.120000
   4711   4723     1   0.15375 251793.120000
   4714   4720     1   0.15375 251793.120000
   4717   4726     1   0.14316 258236.480000
   4720   8648     1   0.14316 258236.480000
   4723   8671     1   0.14316 258236.480000
   4727   4728     1   0.14647 272713.120000
   4727   4731     1   0.14647 272713.120000
   4727   4734     1   0.14647 272713.120000
   4728   4740     1   0.15375 251793.120000
   4731   4743     1   0.15375 251793.120000
   4734   4737     1   0.15375 251793.120000
   4737   4746     1   0.15375 251793.120000
   4740   4752     1   0.15375 251793.120000
   4743   4749     1   0.15375 251793.120000
   4746   4755     1   0.14316 258236.480000
   4749   8694     1   0.14316 258236.480000
   4752   8717     1   0.14316 258236.480000
   4756   4757     1   0.14647 272713.120000
   4756   4760     1   0.14647 272713.120000
   4756   4763     1   0.14647 272713.120000
   4757   4769     1   0.15375 251793.120000
   4760   4772     1   0.15375 251793.120000
   4763   4766     1   0.15375 251793.120000
   4766   4775     1   0.15375 251793.120000
   4769   4781     1   0.15375 251793.120000
   4772   4778     1   0.15375 251793.120000
   4775   4784     1   0.14316 258236.480000
   4778   8740     1   0.14316 258236.480000
   4781   8763     1   0.14316 258236.480000
   4785   4786     1   0.14647 272713.120000
   4785   4789     1   0.14647 272713.120000
   4785   4792     1   0.14647 272713.120000
   4786   4798     1   0.15375 251793.120000
   4789   4801     1   0.15375 251793.120000
   4792   4795     1   0.15375 251793.120000
   4795   4804     1   0.15375 251793.120000
   4798   4810     1   0.15375 251793.120000
   4801   4807     1   0.15375 251793.120000
   4804   4813     1   0.14316 258236.480000
   4807   8786     1   0.14316 258236.480000
   4810   8809     1   0.14316 258236.480000
   4814   4815     1   0.14647 272713.120000
   4814   4818     1   0.14647 272713.120000
   4814   4821     1   0.14647 272713.120000
   4815   4827     1   0.15375 251793.120000
   4818   4830     1   0.15375 251793.120000
   4821   4824     1   0.15375 251793.120000
   4824   4833     1   0.15375 251793.120000
   4827   4839     1   0.15375 251793.120000
   4830   4836     1   0.15375 251793.120000
   4833   4842     1   0.14316 258236.480000
   4836   8832     1   0.14316 258236.480000
   4839   8855     1   0.14316 258236.480000
   4843   4844     1   0.14647 272713.120000
   4843   4847     1   0.14647 272713.120000
   4843   4850     1   0.14647 272713.120000
   4844   4856     1   0.15375 251793.120000
   4847   4859     1   0.15375 251793.120000
   4850   4853     1   0.15375 251793.120000
   4853   4862     1   0.15375 251793.120000
   4856   4868     1   0.15375 251793.120000
   4859   4865     1   0.15375 251793.120000
   4862   4871     1   0.14316 258236.480000
   4865   8878     1   0.14316 258236.480000
   4868   8901     1   0.14316 258236.480000
   4872   4873     1   0.14647 272713.120000
   4872   4876     1   0.14647 272713.120000
   4872   4879     1   0.14647 272713.120000
   4873   4885     1   0.15375 251793.120000
   4876   4888     1   0.15375 251793.120000
   4879   4882     1   0.15375 251793.120000
   4882   4891     1   0.15375 251793.120000
   4885   4897     1   0.15375 251793.120000
   4888   4894     1   0.15375 251793.120000
   4891   4900     1   0.14316 258236.480000
   4894   8924     1   0.14316 258236.480000
   4897   8947     1   0.14316 258236.480000
   4901   4902     1   0.14647 272713.120000
   4901   4905     1   0.14647 272713.120000
   4901   4908     1   0.14647 272713.120000
   4902   4914     1   0.15375 251793.120000
   4905   4917     1   0.15375 251793.120000
   4908   4911     1   0.15375 251793.120000
   4911   4920     1   0.15375 251793.120000
   4914   4926     1   0.15375 251793.120000
   4917   4923     1   0.15375 251793.120000
   4920   4929     1   0.14316 258236.480000
   4923   8970     1   0.14316 258236.480000
   4926   8993     1   0.14316 258236.480000
   4930   4931     1   0.14647 272713.120000
   4930   4934     1   0.14647 272713.120000
   4930   4937     1   0.14647 272713.120000
   4931   4943     1   0.15375 251793.120000
   4934   4946     1   0.15375 251793.120000
   4937   4940     1   0.15375 251793.120000
   4940   4949     1   0.15375 251793.120000
   4943   4955     1   0.15375 251793.120000
   4946   4952     1   0.15375 251793.120000
   4949   4958     1   0.14316 258236.480000
   4952   9016     1   0.14316 258236.480000
   4955   9039     1   0.14316 258236.480000
   4959   4960     1   0.14647 272713.120000
   4959   4963     1   0.14647 272713.120000
   4959   4966     1   0.14647 272713.120000
   4960   4972     1   0.15375 251793.120000
   4963   4975     1   0.15375 251793.120000
   4966   4969     1   0.15375 251793.120000
   4969   4978     1   0.15375 251793.120000
   4972   4984     1   0.15375 251793.120000
   4975   4981     1   0.15375 251793.120000
   4978   4987     1   0.14316 258236.480000
   4981   9062     1   0.14316 258236.480000
   4984   9085     1   0.14316 258236.480000
   4988   4989     1   0.14647 272713.120000
   4988   4992     1   0.14647 272713.120000
   4988   4995     1   0.14647 272713.120000
   4989   5001     1   0.15375 251793.120000
   4992   5004     1   0.15375 251793.120000
   4995   4998     1   0.15375 251793.120000
   4998   5007     1   0.15375 251793.120000
   5001   5013     1   0.15375 251793.120000
   5004   5010     1   0.15375 251793.120000
   5007   5016     1   0.14316 258236.480000
   5010   9108     1   0.14316 258236.480000
   5013   9131     1   0.14316 258236.480000
   5017   5018     1   0.14647 272713.120000
   5017   5021     1   0.14647 272713.120000
   5017   5024     1   0.14647 272713.120000
   5018   5030     1   0.15375 251793.120000
   5021   5033     1   0.15375 251793.120000
   5024   5027     1   0.15375 251793.120000
   5027   5036     1   0.15375 251793.120000
   5030   5042     1   0.15375 251793.120000
   5033   5039     1   0.15375 251793.120000
   5036   5045     1   0.14316 258236.480000
   5039   9154     1   0.14316 258236.480000
   5042   9177     1   0.14316 258236.480000
   5046   5047     1   0.14647 272713.120000
   5046   5050     1   0.14647 272713.120000
   5046   5053     1   0.14647 272713.120000
   5047   5059     1   0.15375 251793.120000
   5050   5062     1   0.15375 251793.120000
   5053   5056     1   0.15375 251793.120000
   5056   5065     1   0.15375 251793.120000
   5059   5071     1   0.15375 251793.120000
   5062   5068     1   0.15375 251793.120000
   5065   5074     1   0.14316 258236.480000
   5068   9200     1   0.14316 258236.480000
   5071   9223     1   0.14316 258236.480000
   5075   5076     1   0.14647 272713.120000
   5075   5079     1   0.14647 272713.120000
   5075   5082     1   0.14647 272713.120000
   5076   5088     1   0.15375 251793.120000
   5079   5091     1   0.15375 251793.120000
   5082   5085     1   0.15375 251793.120000
   5085   5094     1   0.15375 251793.120000
   5088   5100     1   0.15375 251793.120000
   5091   5097     1   0.15375 251793.120000
   5094   5103     1   0.14316 258236.480000
   5097   9246     1   0.14316 258236.480000
   5100   9269     1   0.14316 258236.480000
   5104   5105     1   0.14647 272713.120000
   5104   5108     1   0.14647 272713.120000
   5104   5111     1   0.14647 272713.120000
   5105   5117     1   0.15375 251793.120000
   5108   5120     1   0.15375 251793.120000
   5111   5114     1   0.15375 251793.120000
   5114   5123     1   0.15375 251793.120000
   5117   5129     1   0.15375 251793.120000
   5120   5126     1   0.15375 251793.120000
   5123   5132     1   0.14316 258236.480000
   5126   9292     1   0.14316 258236.480000
   5129   9315     1   0.14316 258236.480000
   5133   5134     1   0.14647 272713.120000
   5133   5137     1   0.14647 272713.120000
   5133   5140     1   0.14647 272713.120000
   5134   5146     1   0.15375 251793.120000
   5137   5149     1   0.15375 251793.120000
   5140   5143     1   0.15375 251793.120000
   5143   5152     1   0.15375 251793.120000
   5146   5158     1   0.15375 251793.120000
   5149   5155     1   0.15375 251793.120000
   5152   5161     1   0.14316 258236.480000
   5155   9338     1   0.14316 258236.480000
   5158   9361     1   0.14316 258236.480000
   5162   5163     1   0.14647 272713.120000
   5162   5166     1   0.14647 272713.120000
   5162   5169     1   0.14647 272713.120000
   5163   5175     1   0.15375 251793.120000
   5166   5178     1   0.15375 251793.120000
   5169   5172     1   0.15375 251793.120000
   5172   5181     1   0.15375 251793.120000
   5175   5187     1   0.15375 251793.120000
   5178   5184     1   0.15375 251793.120000
   5181   5190     1   0.14316 258236.480000
   5184   9384     1   0.14316 258236.480000
   5187   9407     1   0.14316 258236.480000
   5191   5192     1   0.14647 272713.120000
   5191   5195     1   0.14647 272713.120000
   5191   5198     1   0.14647 272713.120000
   5192   5204     1   0.15375 251793.120000
   5195   5207     1   0.15375 251793.120000
   5198   5201     1   0.15375 251793.120000
   5201   5210     1   0.15375 251793.120000
   5204   5216     1   0.15375 251793.120000
   5207   5213     1   0.15375 251793.120000
   5210   5219     1   0.14316 258236.480000
   5213   9430     1   0.14316 258236.480000
   5216   9453     1   0.14316 258236.480000
   5220   5221     1   0.14647 272713.120000
   5220   5224     1   0.14647 272713.120000
   5220   5227     1   0.14647 272713.120000
   5221   5233     1   0.15375 251793.120000
   5224   5236     1   0.15375 251793.120000
   5227   5230     1   0.15375 251793.120000
   5230   5239     1   0.15375 251793.120000
   5233   5245     1   0.15375 251793.120000
   5236   5242     1   0.15375 251793.120000
   5239   5248     1   0.14316 258236.480000
   5242   9476     1   0.14316 258236.480000
   5245   9499     1   0.14316 258236.480000
   5249   5250     1   0.14647 272713.120000
   5249   5253     1   0.14647 272713.120000
   5249   5256     1   0.14647 272713.120000
   5250   5262     1   0.15375 251793.120000
   5253   5265     1   0.15375 251793.120000
   5256   5259     1   0.15375 251793.120000
   5259   5268     1   0.15375 251793.120000
   5262   5274     1   0.15375 251793.120000
   5265   5271     1   0.15375 251793.120000
   5268   5277     1   0.14316 258236.480000
   5271   9522     1   0.14316 258236.480000
   5274   9545     1   0.14316 258236.480000
   5278   5279     1   0.14647 272713.120000
   5278   5282     1   0.14647 272713.120000
   5278   5285     1   0.14647 272713.120000
   5279   5291     1   0.15375 251793.120000
   5282   5294     1   0.15375 251793.120000
   5285   5288     1   0.15375 251793.120000
   5288   5297     1   0.15375 251793.120000
   5291   5303     1   0.15375 251793.120000
   5294   5300     1   0.15375 251793.120000
   5297   5306     1   0.14316 258236.480000
   5300   9568     1   0.14316 258236.480000
   5303   9591     1   0.14316 258236.480000
   5307   5308     1   0.14647 272713.120000
   5307   5311     1   0.14647 272713.120000
   5307   5314     1   0.14647 272713.120000
   5308   5320     1   0.15375 251793.120000
   5311   5323     1   0.15375 251793.120000
   5314   5317     1   0.15375 251793.120000
   5317   5326     1   0.15375 251793.120000
   5320   5332     1   0.15375 251793.120000
   5323   5329     1   0.15375 251793.120000
   5326   5335     1   0.14316 258236.480000
   5329   9614     1   0.14316 258236.480000
   5332   9637     1   0.14316 258236.480000
   5336   5337     1   0.14647 272713.120000
   5336   5340     1   0.14647 272713.120000
   5336   5343     1   0.14647 272713.120000
   5337   5349     1   0.15375 251793.120000
   5340   5352     1   0.15375 251793.120000
   5343   5346     1   0.15375 251793.120000
   5346   5355     1   0.15375 251793.120000
   5349   5361     1   0.15375 251793.120000
   5352   5358     1   0.15375 251793.120000
   5355   5364     1   0.14316 258236.480000
   5358   9660     1   0.14316 258236.480000
   5361   9683     1   0.14316 258236.480000
   5365   5366     1   0.14647 272713.120000
   5365   5369     1   0.14647 272713.120000
   5365   5372     1   0.14647 272713.120000
   5366   5378     1   0.15375 251793.120000
   5369   5381     1   0.15375 251793.120000
   5372   5375     1   0.15375 251793.120000
   5375   5384     1   0.15375 251793.120000
   5378   5390     1   0.15375 251793.120000
   5381   5387     1   0.15375 251793.120000
   5384   5393     1   0.14316 258236.480000
   5387   9706     1   0.14316 258236.480000
   5390   9729     1   0.14316 258236.480000
   5394   5395     1   0.14647 272713.120000
   5394   5398     1   0.14647 272713.120000
   5394   5401     1   0.14647 272713.120000
   5395   5407     1   0.15375 251793.120000
   5398   5410     1   0.15375 251793.120000
   5401   5404     1   0.15375 251793.120000
   5404   5413     1   0.15375 251793.120000
   5407   5419     1   0.15375 251793.120000
   5410   5416     1   0.15375 251793.120000
   5413   5422     1   0.14316 258236.480000
   5416   9752     1   0.14316 258236.480000
   5419   9775     1   0.14316 258236.480000
   5423   5424     1   0.14647 272713.120000
   5423   5427     1   0.14647 272713.120000
   5423   5430     1   0.14647 272713.120000
   5424   5436     1   0.15375 251793.120000
   5427   5439     1   0.15375 251793.120000
   5430   5433     1   0.15375 251793.120000
   5433   5442     1   0.15375 251793.120000
   5436   5448     1   0.15375 251793.120000
   5439   5445     1   0.15375 251793.120000
   5442   5451     1   0.14316 258236.480000
   5445   9798     1   0.14316 258236.480000
   5448   9821     1   0.14316 258236.480000
   5452   5453     1   0.14647 272713.120000
   5452   5456     1   0.14647 272713.120000
   5452   5459     1   0.14647 272713.120000
   5453   5465     1   0.15375 251793.120000
   5456   5468     1   0.15375 251793.120000
   5459   5462     1   0.15375 251793.120000
   5462   5471     1   0.15375 251793.120000
   5465   5477     1   0.15375 251793.120000
   5468   5474     1   0.15375 251793.120000
   5471   5480     1   0.14316 258236.480000
   5474   9844     1   0.14316 258236.480000
   5477   9867     1   0.14316 258236.480000
   5481   5482     1   0.14647 272713.120000
   5481   5485     1   0.14647 272713.120000
   5481   5488     1   0.14647 272713.120000
   5482   5494     1   0.15375 251793.120000
   5485   5497     1   0.15375 251793.120000
   5488   5491     1   0.15375 251793.120000
   5491   5500     1   0.15375 251793.120000
   5494   5506     1   0.15375 251793.120000
   5497   5503     1   0.15375 251793.120000
   5500   5509     1   0.14316 258236.480000
   5503   9890     1   0.14316 258236.480000
   5506   9913     1   0.14316 258236.480000
   5510   5511     1   0.15375 251793.120000
   5510   5524     1   0.15375 251793.120000
   5510   5532     1   0.14316 258236.480000
   5511   5514     1   0.15375 251793.120000
   5511   5523     1   0.14233 265014.560000
   5514   5515     1   0.15375 251793.120000
   5514   5522     1   0.14233 265014.560000
   5515   5516     1   0.15375 251793.120000
   5515   5521     1   0.14233 265014.560000
   5516   5520     1   0.14316 258236.480000
   5516   5532     1   0.14316 258236.480000
   5524   5530     1   0.14233 265014.560000
   5533   5534     1   0.15375 251793.120000
   5533   5547     1   0.15375 251793.120000
   5533   5555     1   0.14316 258236.480000
   5534   5537     1   0.15375 251793.120000
   5534   5546     1   0.14233 265014.560000
   5537   5538     1   0.15375 251793.120000
   5537   5545     1   0.14233 265014.560000
   5538   5539     1   0.15375 251793.120000
   5538   5544     1   0.14233 265014.560000
   5539   5543     1   0.14316 258236.480000
   5539   5555     1   0.14316 258236.480000
   5547   5553     1   0.14233 265014.560000
   5556   5557     1   0.15375 251793.120000
   5556   5570     1   0.15375 251793.120000
   5556   5578     1   0.14316 258236.480000
   5557   5560     1   0.15375 251793.120000
   5557   5569     1   0.14233 265014.560000
   5560   5561     1   0.15375 251793.120000
   5560   5568     1   0.14233 265014.560000
   5561   5562     1   0.15375 251793.120000
   5561   5567     1   0.14233 265014.560000
   5562   5566     1   0.14316 258236.480000
   5562   5578     1   0.14316 258236.480000
   5570   5576     1   0.14233 265014.560000
   5579   5580     1   0.15375 251793.120000
   5579   5593     1   0.15375 251793.120000
   5579   5601     1   0.14316 258236.480000
   5580   5583     1   0.15375 251793.120000
   5580   5592     1   0.14233 265014.560000
   5583   5584     1   0.15375 251793.120000
   5583   5591     1   0.14233 265014.560000
   5584   5585     1   0.15375 251793.120000
   5584   5590     1   0.14233 265014.560000
   5585   5589     1   0.14316 258236.480000
   5585   5601     1   0.14316 258236.480000
   5593   5599     1   0.14233 265014.560000
   5602   5603     1   0.15375 251793.120000
   5602   5616     1   0.15375 251793.120000
   5602   5624     1   0.14316 258236.480000
   5603   5606     1   0.15375 251793.120000
   5603   5615     1   0.14233 265014.560000
   5606   5607     1   0.15375 251793.120000
   5606   5614     1   0.14233 265014.560000
   5607   5608     1   0.15375 251793.120000
   5607   5613     1   0.14233 265014.560000
   5608   5612     1   0.14316 258236.480000
   5608   5624     1   0.14316 258236.480000
   5616   5622     1   0.14233 265014.560000
   5625   5626     1   0.15375 251793.120000
   5625   5639     1   0.15375 251793.120000
   5625   5647     1   0.14316 258236.480000
   5626   5629     1   0.15375 251793.120000
   5626   5638     1   0.14233 265014.560000
   5629   5630     1   0.15375 251793.120000
   5629   5637     1   0.14233 265014.560000
   5630   5631     1   0.15375 251793.120000
   5630   5636     1   0.14233 265014.560000
   5631   5635     1   0.14316 258236.480000
   5631   5647     1   0.14316 258236.480000
   5639   5645     1   0.14233 265014.560000
   5648   5649     1   0.15375 251793.120000
   5648   5662     1   0.15375 251793.120000
   5648   5670     1   0.14316 258236.480000
   5649   5652     1   0.15375 251793.120000
   5649   5661     1   0.14233 265014.560000
   5652   5653     1   0.15375 251793.120000
   5652   5660     1   0.14233 265014.560000
   5653   5654     1   0.15375 251793.120000
   5653   5659     1   0.14233 265014.560000
   5654   5658     1   0.14316 258236.480000
   5654   5670     1   0.14316 258236.480000
   5662   5668     1   0.14233 265014.560000
   5671   5672     1   0.15375 251793.120000
   5671   5685     1   0.15375 251793.120000
   5671   5693     1   0.14316 258236.480000
   5672   5675     1   0.15375 251793.120000
   5672   5684     1   0.14233 265014.560000
   5675   5676     1   0.15375 251793.120000
   5675   5683     1   0.14233 265014.560000
   5676   5677     1   0.15375 251793.120000
   5676   5682     1   0.14233 265014.560000
   5677   5681     1   0.14316 258236.480000
   5677   5693     1   0.14316 258236.480000
   5685   5691     1   0.14233 265014.560000
   5694   5695     1   0.15375 251793.120000
   5694   5708     1   0.15375 251793.120000
   5694   5716     1   0.14316 258236.480000
   5695   5698     1   0.15375 251793.120000
   5695   5707     1   0.14233 265014.560000
   5698   5699     1   0.15375 251793.120000
   5698   5706     1   0.14233 265014.560000
   5699   5700     1   0.15375 251793.120000
   5699   5705     1   0.14233 265014.560000
   5700   5704     1   0.14316 258236.480000
   5700   5716     1   0.14316 258236.480000
   5708   5714     1   0.14233 265014.560000
   5717   5718     1   0.15375 251793.120000
   5717   5731     1   0.15375 251793.120000
   5717   5739     1   0.14316 258236.480000
   5718   5721     1   0.15375 251793.120000
   5718   5730     1   0.14233 265014.560000
   5721   5722     1   0.15375 251793.120000
   5721   5729     1   0.14233 265014.560000
   5722   5723     1   0.15375 251793.120000
   5722   5728     1   0.14233 265014.560000
   5723   5727     1   0.14316 258236.480000
   5723   5739     1   0.14316 258236.480000
   5731   5737     1   0.14233 265014.560000
   5740   5741     1   0.15375 251793.120000
   5740   5754     1   0.15375 251793.120000
   5740   5762     1   0.14316 258236.480000
   5741   5744     1   0.15375 251793.120000
   5741   5753     1   0.14233 265014.560000
   5744   5745     1   0.15375 251793.120000
   5744   5752     1   0.14233 265014.560000
   5745   5746     1   0.15375 251793.120000
   5745   5751     1   0.14233 265014.560000
   5746   5750     1   0.14316 258236.480000
   5746   5762     1   0.14316 258236.480000
   5754   5760     1   0.14233 265014.560000
   5763   5764     1   0.15375 251793.120000
   5763   5777     1   0.15375 251793.120000
   5763   5785     1   0.14316 258236.480000
   5764   5767     1   0.15375 251793.120000
   5764   5776     1   0.14233 265014.560000
   5767   5768     1   0.15375 251793.120000
   5767   5775     1   0.14233 265014.560000
   5768   5769     1   0.15375 251793.120000
   5768   5774     1   0.14233 265014.560000
   5769   5773     1   0.14316 258236.480000
   5769   5785     1   0.14316 258236.480000
   5777   5783     1   0.14233 265014.560000
   5786   5787     1   0.15375 251793.120000
   5786   5800     1   0.15375 251793.120000
   5786   5808     1   0.14316 258236.480000
   5787   5790     1   0.15375 251793.120000
   5787   5799     1   0.14233 265014.560000
   5790   5791     1   0.15375 251793.120000
   5790   5798     1   0.14233 265014.560000
   5791   5792     1   0.15375 251793.120000
   5791   5797     1   0.14233 265014.560000
   5792   5796     1   0.14316 258236.480000
   5792   5808     1   0.14316 258236.480000
   5800   5806     1   0.14233 265014.560000
   5809   5810     1   0.15375 251793.120000
   5809   5823     1   0.15375 251793.120000
   5809   5831     1   0.14316 258236.480000
   5810   5813     1   0.15375 251793.120000
   5810   5822     1   0.14233 265014.560000
   5813   5814     1   0.15375 251793.120000
   5813   5821     1   0.14233 265014.560000
   5814   5815     1   0.15375 251793.120000
   5814   5820     1   0.14233 265014.560000
   5815   5819     1   0.14316 258236.480000
   5815   5831     1   0.14316 258236.480000
   5823   5829     1   0.14233 265014.560000
   5832   5833     1   0.15375 251793.120000
   5832   5846     1   0.15375 251793.120000
   5832   5854     1   0.14316 258236.480000
   5833   5836     1   0.15375 251793.120000
   5833   5845     1   0.14233 265014.560000
   5836   5837     1   0.15375 251793.120000
   5836   5844     1   0.14233 265014.560000
   5837   5838     1   0.15375 251793.120000
   5837   5843     1   0.14233 265014.560000
   5838   5842     1   0.14316 258236.480000
   5838   5854     1   0.14316 258236.480000
   5846   5852     1   0.14233 265014.560000
   5855   5856     1   0.15375 251793.120000
   5855   5869     1   0.15375 251793.120000
   5855   5877     1   0.14316 258236.480000
   5856   5859     1   0.15375 251793.120000
   5856   5868     1   0.14233 265014.560000
   5859   5860     1   0.15375 251793.120000
   5859   5867     1   0.14233 265014.560000
   5860   5861     1   0.15375 251793.120000
   5860   5866     1   0.14233 265014.560000
   5861   5865     1   0.14316 258236.480000
   5861   5877     1   0.14316 258236.480000
   5869   5875     1   0.14233 265014.560000
   5878   5879     1   0.15375 251793.120000
   5878   5892     1   0.15375 251793.120000
   5878   5900     1   0.14316 258236.480000
   5879   5882     1   0.15375 251793.120000
   5879   5891     1   0.14233 265014.560000
   5882   5883     1   0.15375 251793.120000
   5882   5890     1   0.14233 265014.560000
   5883   5884     1   0.15375 251793.120000
   5883   5889     1   0.14233 265014.560000
   5884   5888     1   0.14316 258236.480000
   5884   5900     1   0.14316 258236.480000
   5892   5898     1   0.14233 265014.560000
   5901   5902     1   0.15375 251793.120000
   5901   5915     1   0.15375 251793.120000
   5901   5923     1   0.14316 258236.480000
   5902   5905     1   0.15375 251793.120000
   5902   5914     1   0.14233 265014.560000
   5905   5906     1   0.15375 251793.120000
   5905   5913     1   0.14233 265014.560000
   5906   5907     1   0.15375 251793.120000
   5906   5912     1   0.14233 265014.560000
   5907   5911     1   0.14316 258236.480000
   5907   5923     1   0.14316 258236.480000
   5915   5921     1   0.14233 265014.560000
   5924   5925     1   0.15375 251793.120000
   5924   5938     1   0.15375 251793.120000
   5924   5946     1   0.14316 258236.480000
   5925   5928     1   0.15375 251793.120000
   5925   5937     1   0.14233 265014.560000
   5928   5929     1   0.15375 251793.120000
   5928   5936     1   0.14233 265014.560000
   5929   5930     1   0.15375 251793.120000
   5929   5935     1   0.14233 265014.560000
   5930   5934     1   0.14316 258236.480000
   5930   5946     1   0.14316 258236.480000
   5938   5944     1   0.14233 265014.560000
   5947   5948     1   0.15375 251793.120000
   5947   5961     1   0.15375 251793.120000
   5947   5969     1   0.14316 258236.480000
   5948   5951     1   0.15375 251793.120000
   5948   5960     1   0.14233 265014.560000
   5951   5952     1   0.15375 251793.120000
   5951   5959     1   0.14233 265014.560000
   5952   5953     1   0.15375 251793.120000
   5952   5958     1   0.14233 265014.560000
   5953   5957     1   0.14316 258236.480000
   5953   5969     1   0.14316 258236.480000
   5961   5967     1   0.14233 265014.560000
   5970   5971     1   0.15375 251793.120000
   5970   5984     1   0.15375 251793.120000
   5970   5992     1   0.14316 258236.480000
   5971   5974     1   0.15375 251793.120000
   5971   5983     1   0.14233 265014.560000
   5974   5975     1   0.15375 251793.120000
   5974   5982     1   0.14233 265014.560000
   5975   5976     1   0.15375 251793.120000
   5975   5981     1   0.14233 265014.560000
   5976   5980     1   0.14316 258236.480000
   5976   5992     1   0.14316 258236.480000
   5984   5990     1   0.14233 265014.560000
   5993   5994     1   0.15375 251793.120000
   5993   6007     1   0.15375 251793.120000
   5993   6015     1   0.14316 258236.480000
   5994   5997     1   0.15375 251793.120000
   5994   6006     1   0.14233 265014.560000
   5997   5998     1   0.15375 251793.120000
   5997   6005     1   0.14233 265014.560000
   5998   5999     1   0.15375 251793.120000
   5998   6004     1   0.14233 265014.560000
   5999   6003     1   0.14316 258236.480000
   5999   6015     1   0.14316 258236.480000
   6007   6013     1   0.14233 265014.560000
   6016   6017     1   0.15375 251793.120000
   6016   6030     1   0.15375 251793.120000
   6016   6038     1   0.14316 258236.480000
   6017   6020     1   0.15375 251793.120000
   6017   6029     1   0.14233 265014.560000
   6020   6021     1   0.15375 251793.120000
   6020   6028     1   0.14233 265014.560000
   6021   6022     1   0.15375 251793.120000
   6021   6027     1   0.14233 265014.560000
   6022   6026     1   0.14316 258236.480000
   6022   6038     1   0.14316 258236.480000
   6030   6036     1   0.14233 265014.560000
   6039   6040     1   0.15375 251793.120000
   6039   6053     1   0.15375 251793.120000
   6039   6061     1   0.14316 258236.480000
   6040   6043     1   0.15375 251793.120000
   6040   6052     1   0.14233 265014.560000
   6043   6044     1   0.15375 251793.120000
   6043   6051     1   0.14233 265014.560000
   6044   6045     1   0.15375 251793.120000
   6044   6050     1   0.14233 265014.560000
   6045   6049     1   0.14316 258236.480000
   6045   6061     1   0.14316 258236.480000
   6053   6059     1   0.14233 265014.560000
   6062   6063     1   0.15375 251793.120000
   6062   6076     1   0.15375 251793.120000
   6062   6084     1   0.14316 258236.480000
   6063   6066     1   0.15375 251793.120000
   6063   6075     1   0.14233 265014.560000
   6066   6067     1   0.15375 251793.120000
   6066   6074     1   0.14233 265014.560000
   6067   6068     1   0.15375 251793.120000
   6067   6073     1   0.14233 265014.560000
   6068   6072     1   0.14316 258236.480000
   6068   6084     1   0.14316 258236.480000
   6076   6082     1   0.14233 265014.560000
   6085   6086     1   0.15375 251793.120000
   6085   6099     1   0.15375 251793.120000
   6085   6107     1   0.14316 258236.480000
   6086   6089     1   0.15375 251793.120000
   6086   6098     1   0.14233 265014.560000
   6089   6090     1   0.15375 251793.120000
   6089   6097     1   0.14233 265014.560000
   6090   6091     1   0.15375 251793.120000
   6090   6096     1   0.14233 265014.560000
   6091   6095     1   0.14316 258236.480000
   6091   6107     1   0.14316 258236.480000
   6099   6105     1   0.14233 265014.560000
   6108   6109     1   0.15375 251793.120000
   6108   6122     1   0.15375 251793.120000
   6108   6130     1   0.14316 258236.480000
   6109   6112     1   0.15375 251793.120000
   6109   6121     1   0.14233 265014.560000
   6112   6113     1   0.15375 251793.120000
   6112   6120     1   0.14233 265014.560000
   6113   6114     1   0.15375 251793.120000
   6113   6119     1   0.14233 265014.560000
   6114   6118     1   0.14316 258236.480000
   6114   6130     1   0.14316 258236.480000
   6122   6128     1   0.14233 265014.560000
   6131   6132     1   0.15375 251793.120000
   6131   6145     1   0.15375 251793.120000
   6131   6153     1   0.14316 258236.480000
   6132   6135     1   0.15375 251793.120000
   6132   6144     1   0.14233 265014.560000
   6135   6136     1   0.15375 251793.120000
   6135   6143     1   0.14233 265014.560000
   6136   6137     1   0.15375 251793.120000
   6136   6142     1   0.14233 265014.560000
   6137   6141     1   0.14316 258236.480000
   6137   6153     1   0.14316 258236.480000
   6145   6151     1   0.14233 265014.560000
   6154   6155     1   0.15375 251793.120000
   6154   6168     1   0.15375 251793.120000
   6154   6176     1   0.14316 258236.480000
   6155   6158     1   0.15375 251793.120000
   6155   6167     1   0.14233 265014.560000
   6158   6159     1   0.15375 251793.120000
   6158   6166     1   0.14233 265014.560000
   6159   6160     1   0.15375 251793.120000
   6159   6165     1   0.14233 265014.560000
   6160   6164     1   0.14316 258236.480000
   6160   6176     1   0.14316 258236.480000
   6168   6174     1   0.14233 265014.560000
   6177   6178     1   0.15375 251793.120000
   6177   6191     1   0.15375 251793.120000
   6177   6199     1   0.14316 258236.480000
   6178   6181     1   0.15375 251793.120000
   6178   6190     1   0.14233 265014.560000
   6181   6182     1   0.15375 251793.120000
   6181   6189     1   0.14233 265014.560000
   6182   6183     1   0.15375 251793.120000
   6182   6188     1   0.14233 265014.560000
   6183   6187     1   0.14316 258236.480000
   6183   6199     1   0.14316 258236.480000
   6191   6197     1   0.14233 265014.560000
   6200   6201     1   0.15375 251793.120000
   6200   6214     1   0.15375 251793.120000
   6200   6222     1   0.14316 258236.480000
   6201   6204     1   0.15375 251793.120000
   6201   6213     1   0.14233 265014.560000
   6204   6205     1   0.15375 251793.120000
   6204   6212     1   0.14233 265014.560000
   6205   6206     1   0.15375 251793.120000
   6205   6211     1   0.14233 265014.560000
   6206   6210     1   0.14316 258236.480000
   6206   6222     1   0.14316 258236.480000
   6214   6220     1   0.14233 265014.560000
   6223   6224     1   0.15375 251793.120000
   6223   6237     1   0.15375 251793.120000
   6223   6245     1   0.14316 258236.480000
   6224   6227     1   0.15375 251793.120000
   6224   6236     1   0.14233 265014.560000
   6227   6228     1   0.15375 251793.120000
   6227   6235     1   0.14233 265014.560000
   6228   6229     1   0.15375 251793.120000
   6228   6234     1   0.14233 265014.560000
   6229   6233     1   0.14316 258236.480000
   6229   6245     1   0.14316 258236.480000
   6237   6243     1   0.14233 265014.560000
   6246   6247     1   0.15375 251793.120000
   6246   6260     1   0.15375 251793.120000
   6246   6268     1   0.14316 258236.480000
   6247   6250     1   0.15375 251793.120000
   6247   6259     1   0.14233 265014.560000
   6250   6251     1   0.15375 251793.120000
   6250   6258     1   0.14233 265014.560000
   6251   6252     1   0.15375 251793.120000
   6251   6257     1   0.14233 265014.560000
   6252   6256     1   0.14316 258236.480000
   6252   6268     1   0.14316 258236.480000
   6260   6266     1   0.14233 265014.560000
   6269   6270     1   0.15375 251793.120000
   6269   6283     1   0.15375 251793.120000
   6269   6291     1   0.14316 258236.480000
   6270   6273     1   0.15375 251793.120000
   6270   6282     1   0.14233 265014.560000
   6273   6274     1   0.15375 251793.120000
   6273   6281     1   0.14233 265014.560000
   6274   6275     1   0.15375 251793.120000
   6274   6280     1   0.14233 265014.560000
   6275   6279     1   0.14316 258236.480000
   6275   6291     1   0.14316 258236.480000
   6283   6289     1   0.14233 265014.560000
   6292   6293     1   0.15375 251793.120000
   6292   6306     1   0.15375 251793.120000
   6292   6314     1   0.14316 258236.480000
   6293   6296     1   0.15375 251793.120000
   6293   6305     1   0.14233 265014.560000
   6296   6297     1   0.15375 251793.120000
   6296   6304     1   0.14233 265014.560000
   6297   6298     1   0.15375 251793.120000
   6297   6303     1   0.14233 265014.560000
   6298   6302     1   0.14316 258236.480000
   6298   6314     1   0.14316 258236.480000
   6306   6312     1   0.14233 265014.560000
   6315   6316     1   0.15375 251793.120000
   6315   6329     1   0.15375 251793.120000
   6315   6337     1   0.14316 258236.480000
   6316   6319     1   0.15375 251793.120000
   6316   6328     1   0.14233 265014.560000
   6319   6320     1   0.15375 251793.120000
   6319   6327     1   0.14233 265014.560000
   6320   6321     1   0.15375 251793.120000
   6320   6326     1   0.14233 265014.560000
   6321   6325     1   0.14316 258236.480000
   6321   6337     1   0.14316 258236.480000
   6329   6335     1   0.14233 265014.560000
   6338   6339     1   0.15375 251793.120000
   6338   6352     1   0.15375 251793.120000
   6338   6360     1   0.14316 258236.480000
   6339   6342     1   0.15375 251793.120000
   6339   6351     1   0.14233 265014.560000
   6342   6343     1   0.15375 251793.120000
   6342   6350     1   0.14233 265014.560000
   6343   6344     1   0.15375 251793.120000
   6343   6349     1   0.14233 265014.560000
   6344   6348     1   0.14316 258236.480000
   6344   6360     1   0.14316 258236.480000
   6352   6358     1   0.14233 265014.560000
   6361   6362     1   0.15375 251793.120000
   6361   6375     1   0.15375 251793.120000
   6361   6383     1   0.14316 258236.480000
   6362   6365     1   0.15375 251793.120000
   6362   6374     1   0.14233 265014.560000
   6365   6366     1   0.15375 251793.120000
   6365   6373     1   0.14233 265014.560000
   6366   6367     1   0.15375 251793.120000
   6366   6372     1   0.14233 265014.560000
   6367   6371     1   0.14316 258236.480000
   6367   6383     1   0.14316 258236.480000
   6375   6381     1   0.14233 265014.560000
   6384   6385     1   0.15375 251793.120000
   6384   6398     1   0.15375 251793.120000
   6384   6406     1   0.14316 258236.480000
   6385   6388     1   0.15375 251793.120000
   6385   6397     1   0.14233 265014.560000
   6388   6389     1   0.15375 251793.120000
   6388   6396     1   0.14233 265014.560000
   6389   6390     1   0.15375 251793.120000
   6389   6395     1   0.14233 265014.560000
   6390   6394     1   0.14316 258236.480000
   6390   6406     1   0.14316 258236.480000
   6398   6404     1   0.14233 265014.560000
   6407   6408     1   0.15375 251793.120000
   6407   6421     1   0.15375 251793.120000
   6407   6429     1   0.14316 258236.480000
   6408   6411     1   0.15375 251793.120000
   6408   6420     1   0.14233 265014.560000
   6411   6412     1   0.15375 251793.120000
   6411   6419     1   0.14233 265014.560000
   6412   6413     1   0.15375 251793.120000
   6412   6418     1   0.14233 265014.560000
   6413   6417     1   0.14316 258236.480000
   6413   6429     1   0.14316 258236.480000
   6421   6427     1   0.14233 265014.560000
   6430   6431     1   0.15375 251793.120000
   6430   6444     1   0.15375 251793.120000
   6430   6452     1   0.14316 258236.480000
   6431   6434     1   0.15375 251793.120000
   6431   6443     1   0.14233 265014.560000
   6434   6435     1   0.15375 251793.120000
   6434   6442     1   0.14233 265014.560000
   6435   6436     1   0.15375 251793.120000
   6435   6441     1   0.14233 265014.560000
   6436   6440     1   0.14316 258236.480000
   6436   6452     1   0.14316 258236.480000
   6444   6450     1   0.14233 265014.560000
   6453   6454     1   0.15375 251793.120000
   6453   6467     1   0.15375 251793.120000
   6453   6475     1   0.14316 258236.480000
   6454   6457     1   0.15375 251793.120000
   6454   6466     1   0.14233 265014.560000
   6457   6458     1   0.15375 251793.120000
   6457   6465     1   0.14233 265014.560000
   6458   6459     1   0.15375 251793.120000
   6458   6464     1   0.14233 265014.560000
   6459   6463     1   0.14316 258236.480000
   6459   6475     1   0.14316 258236.480000
   6467   6473     1   0.14233 265014.560000
   6476   6477     1   0.15375 251793.120000
   6476   6490     1   0.15375 251793.120000
   6476   6498     1   0.14316 258236.480000
   6477   6480     1   0.15375 251793.120000
   6477   6489     1   0.14233 265014.560000
   6480   6481     1   0.15375 251793.120000
   6480   6488     1   0.14233 265014.560000
   6481   6482     1   0.15375 251793.120000
   6481   6487     1   0.14233 265014.560000
   6482   6486     1   0.14316 258236.480000
   6482   6498     1   0.14316 258236.480000
   6490   6496     1   0.14233 265014.560000
   6499   6500     1   0.15375 251793.120000
   6499   6513     1   0.15375 251793.120000
   6499   6521     1   0.14316 258236.480000
   6500   6503     1   0.15375 251793.120000
   6500   6512     1   0.14233 265014.560000
   6503   6504     1   0.15375 251793.120000
   6503   6511     1   0.14233 265014.560000
   6504   6505     1   0.15375 251793.120000
   6504   6510     1   0.14233 265014.560000
   6505   6509     1   0.14316 258236.480000
   6505   6521     1   0.14316 258236.480000
   6513   6519     1   0.14233 265014.560000
   6522   6523     1   0.15375 251793.120000
   6522   6536     1   0.15375 251793.120000
   6522   6544     1   0.14316 258236.480000
   6523   6526     1   0.15375 251793.120000
   6523   6535     1   0.14233 265014.560000
   6526   6527     1   0.15375 251793.120000
   6526   6534     1   0.14233 265014.560000
   6527   6528     1   0.15375 251793.120000
   6527   6533     1   0.14233 265014.560000
   6528   6532     1   0.14316 258236.480000
   6528   6544     1   0.14316 258236.480000
   6536   6542     1   0.14233 265014.560000
   6545   6546     1   0.15375 251793.120000
   6545   6559     1   0.15375 251793.120000
   6545   6567     1   0.14316 258236.480000
   6546   6549     1   0.15375 251793.120000
   6546   6558     1   0.14233 265014.560000
   6549   6550     1   0.15375 251793.120000
   6549   6557     1   0.14233 265014.560000
   6550   6551     1   0.15375 251793.120000
   6550   6556     1   0.14233 265014.560000
   6551   6555     1   0.14316 258236.480000
   6551   6567     1   0.14316 258236.480000
   6559   6565     1   0.14233 265014.560000
   6568   6569     1   0.15375 251793.120000
   6568   6582     1   0.15375 251793.120000
   6568   6590     1   0.14316 258236.480000
   6569   6572     1   0.15375 251793.120000
   6569   6581     1   0.14233 265014.560000
   6572   6573     1   0.15375 251793.120000
   6572   6580     1   0.14233 265014.560000
   6573   6574     1   0.15375 251793.120000
   6573   6579     1   0.14233 265014.560000
   6574   6578     1   0.14316 258236.480000
   6574   6590     1   0.14316 258236.480000
   6582   6588     1   0.14233 265014.560000
   6591   6592     1   0.15375 251793.120000
   6591   6605     1   0.15375 251793.120000
   6591   6613     1   0.14316 258236.480000
   6592   6595     1   0.15375 251793.120000
   6592   6604     1   0.14233 265014.560000
   6595   6596     1   0.15375 251793.120000
   6595   6603     1   0.14233 265014.560000
   6596   6597     1   0.15375 251793.120000
   6596   6602     1   0.14233 265014.560000
   6597   6601     1   0.14316 258236.480000
   6597   6613     1   0.14316 258236.480000
   6605   6611     1   0.14233 265014.560000
   6614   6615     1   0.15375 251793.120000
   6614   6628     1   0.15375 251793.120000
   6614   6636     1   0.14316 258236.480000
   6615   6618     1   0.15375 251793.120000
   6615   6627     1   0.14233 265014.560000
   6618   6619     1   0.15375 251793.120000
   6618   6626     1   0.14233 265014.560000
   6619   6620     1   0.15375 251793.120000
   6619   6625     1   0.14233 265014.560000
   6620   6624     1   0.14316 258236.480000
   6620   6636     1   0.14316 258236.480000
   6628   6634     1   0.14233 265014.560000
   6637   6638     1   0.15375 251793.120000
   6637   6651     1   0.15375 251793.120000
   6637   6659     1   0.14316 258236.480000
   6638   6641     1   0.15375 251793.120000
   6638   6650     1   0.14233 265014.560000
   6641   6642     1   0.15375 251793.120000
   6641   6649     1   0.14233 265014.560000
   6642   6643     1   0.15375 251793.120000
   6642   6648     1   0.14233 265014.560000
   6643   6647     1   0.14316 258236.480000
   6643   6659     1   0.14316 258236.480000
   6651   6657     1   0.14233 265014.560000
   6660   6661     1   0.15375 251793.120000
   6660   6674     1   0.15375 251793.120000
   6660   6682     1   0.14316 258236.480000
   6661   6664     1   0.15375 251793.120000
   6661   6673     1   0.14233 265014.560000
   6664   6665     1   0.15375 251793.120000
   6664   6672     1   0.14233 265014.560000
   6665   6666     1   0.15375 251793.120000
   6665   6671     1   0.14233 265014.560000
   6666   6670     1   0.14316 258236.480000
   6666   6682     1   0.14316 258236.480000
   6674   6680     1   0.14233 265014.560000
   6683   6684     1   0.15375 251793.120000
   6683   6697     1   0.15375 251793.120000
   6683   6705     1   0.14316 258236.480000
   6684   6687     1   0.15375 251793.120000
   6684   6696     1   0.14233 265014.560000
   6687   6688     1   0.15375 251793.120000
   6687   6695     1   0.14233 265014.560000
   6688   6689     1   0.15375 251793.120000
   6688   6694     1   0.14233 265014.560000
   6689   6693     1   0.14316 258236.480000
   6689   6705     1   0.14316 258236.480000
   6697   6703     1   0.14233 265014.560000
   6706   6707     1   0.15375 251793.120000
   6706   6720     1   0.15375 251793.120000
   6706   6728     1   0.14316 258236.480000
   6707   6710     1   0.15375 251793.120000
   6707   6719     1   0.14233 265014.560000
   6710   6711     1   0.15375 251793.120000
   6710   6718     1   0.14233 265014.560000
   6711   6712     1   0.15375 251793.120000
   6711   6717     1   0.14233 265014.560000
   6712   6716     1   0.14316 258236.480000
   6712   6728     1   0.14316 258236.480000
   6720   6726     1   0.14233 265014.560000
   6729   6730     1   0.15375 251793.120000
   6729   6743     1   0.15375 251793.120000
   6729   6751     1   0.14316 258236.480000
   6730   6733     1   0.15375 251793.120000
   6730   6742     1   0.14233 265014.560000
   6733   6734     1   0.15375 251793.120000
   6733   6741     1   0.14233 265014.560000
   6734   6735     1   0.15375 251793.120000
   6734   6740     1   0.14233 265014.560000
   6735   6739     1   0.14316 258236.480000
   6735   6751     1   0.14316 258236.480000
   6743   6749     1   0.14233 265014.560000
   6752   6753     1   0.15375 251793.120000
   6752   6766     1   0.15375 251793.120000
   6752   6774     1   0.14316 258236.480000
   6753   6756     1   0.15375 251793.120000
   6753   6765     1   0.14233 265014.560000
   6756   6757     1   0.15375 251793.120000
   6756   6764     1   0.14233 265014.560000
   6757   6758     1   0.15375 251793.120000
   6757   6763     1   0.14233 265014.560000
   6758   6762     1   0.14316 258236.480000
   6758   6774     1   0.14316 258236.480000
   6766   6772     1   0.14233 265014.560000
   6775   6776     1   0.15375 251793.120000
   6775   6789     1   0.15375 251793.120000
   6775   6797     1   0.14316 258236.480000
   6776   6779     1   0.15375 251793.120000
   6776   6788     1   0.14233 265014.560000
   6779   6780     1   0.15375 251793.120000
   6779   6787     1   0.14233 265014.560000
   6780   6781     1   0.15375 251793.120000
   6780   6786     1   0.14233 265014.560000
   6781   6785     1   0.14316 258236.480000
   6781   6797     1   0.14316 258236.480000
   6789   6795     1   0.14233 265014.560000
   6798   6799     1   0.15375 251793.120000
   6798   6812     1   0.15375 251793.120000
   6798   6820     1   0.14316 258236.480000
   6799   6802     1   0.15375 251793.120000
   6799   6811     1   0.14233 265014.560000
   6802   6803     1   0.15375 251793.120000
   6802   6810     1   0.14233 265014.560000
   6803   6804     1   0.15375 251793.120000
   6803   6809     1   0.14233 265014.560000
   6804   6808     1   0.14316 258236.480000
   6804   6820     1   0.14316 258236.480000
   6812   6818     1   0.14233 265014.560000
   6821   6822     1   0.15375 251793.120000
   6821   6835     1   0.15375 251793.120000
   6821   6843     1   0.14316 258236.480000
   6822   6825     1   0.15375 251793.120000
   6822   6834     1   0.14233 265014.560000
   6825   6826     1   0.15375 251793.120000
   6825   6833     1   0.14233 265014.560000
   6826   6827     1   0.15375 251793.120000
   6826   6832     1   0.14233 265014.560000
   6827   6831     1   0.14316 258236.480000
   6827   6843     1   0.14316 258236.480000
   6835   6841     1   0.14233 265014.560000
   6844   6845     1   0.15375 251793.120000
   6844   6858     1   0.15375 251793.120000
   6844   6866     1   0.14316 258236.480000
   6845   6848     1   0.15375 251793.120000
   6845   6857     1   0.14233 265014.560000
   6848   6849     1   0.15375 251793.120000
   6848   6856     1   0.14233 265014.560000
   6849   6850     1   0.15375 251793.120000
   6849   6855     1   0.14233 265014.560000
   6850   6854     1   0.14316 258236.480000
   6850   6866     1   0.14316 258236.480000
   6858   6864     1   0.14233 265014.560000
   6867   6868     1   0.15375 251793.120000
   6867   6881     1   0.15375 251793.120000
   6867   6889     1   0.14316 258236.480000
   6868   6871     1   0.15375 251793.120000
   6868   6880     1   0.14233 265014.560000
   6871   6872     1   0.15375 251793.120000
   6871   6879     1   0.14233 265014.560000
   6872   6873     1   0.15375 251793.120000
   6872   6878     1   0.14233 265014.560000
   6873   6877     1   0.14316 258236.480000
   6873   6889     1   0.14316 258236.480000
   6881   6887     1   0.14233 265014.560000
   6890   6891     1   0.15375 251793.120000
   6890   6904     1   0.15375 251793.120000
   6890   6912     1   0.14316 258236.480000
   6891   6894     1   0.15375 251793.120000
   6891   6903     1   0.14233 265014.560000
   6894   6895     1   0.15375 251793.120000
   6894   6902     1   0.14233 265014.560000
   6895   6896     1   0.15375 251793.120000
   6895   6901     1   0.14233 265014.560000
   6896   6900     1   0.14316 258236.480000
   6896   6912     1   0.14316 258236.480000
   6904   6910     1   0.14233 265014.560000
   6913   6914     1   0.15375 251793.120000
   6913   6927     1   0.15375 251793.120000
   6913   6935     1   0.14316 258236.480000
   6914   6917     1   0.15375 251793.120000
   6914   6926     1   0.14233 265014.560000
   6917   6918     1   0.15375 251793.120000
   6917   6925     1   0.14233 265014.560000
   6918   6919     1   0.15375 251793.120000
   6918   6924     1   0.14233 265014.560000
   6919   6923     1   0.14316 258236.480000
   6919   6935     1   0.14316 258236.480000
   6927   6933     1   0.14233 265014.560000
   6936   6937     1   0.15375 251793.120000
   6936   6950     1   0.15375 251793.120000
   6936   6958     1   0.14316 258236.480000
   6937   6940     1   0.15375 251793.120000
   6937   6949     1   0.14233 265014.560000
   6940   6941     1   0.15375 251793.120000
   6940   6948     1   0.14233 265014.560000
   6941   6942     1   0.15375 251793.120000
   6941   6947     1   0.14233 265014.560000
   6942   6946     1   0.14316 258236.480000
   6942   6958     1   0.14316 258236.480000
   6950   6956     1   0.14233 265014.560000
   6959   6960     1   0.15375 251793.120000
   6959   6973     1   0.15375 251793.120000
   6959   6981     1   0.14316 258236.480000
   6960   6963     1   0.15375 251793.120000
   6960   6972     1   0.14233 265014.560000
   6963   6964     1   0.15375 251793.120000
   6963   6971     1   0.14233 265014.560000
   6964   6965     1   0.15375 251793.120000
   6964   6970     1   0.14233 265014.560000
   6965   6969     1   0.14316 258236.480000
   6965   6981     1   0.14316 258236.480000
   6973   6979     1   0.14233 265014.560000
   6982   6983     1   0.15375 251793.120000
   6982   6996     1   0.15375 251793.120000
   6982   7004     1   0.14316 258236.480000
   6983   6986     1   0.15375 251793.120000
   6983   6995     1   0.14233 265014.560000
   6986   6987     1   0.15375 251793.120000
   6986   6994     1   0.14233 265014.560000
   6987   6988     1   0.15375 251793.120000
   6987   6993     1   0.14233 265014.560000
   6988   6992     1   0.14316 258236.480000
   6988   7004     1   0.14316 258236.480000
   6996   7002     1   0.14233 265014.560000
   7005   7006     1   0.15375 251793.120000
   7005   7019     1   0.15375 251793.120000
   7005   7027     1   0.14316 258236.480000
   7006   7009     1   0.15375 251793.120000
   7006   7018     1   0.14233 265014.560000
   7009   7010     1   0.15375 251793.120000
   7009   7017     1   0.14233 265014.560000
   7010   7011     1   0.15375 251793.120000
   7010   7016     1   0.14233 265014.560000
   7011   7015     1   0.14316 258236.480000
   7011   7027     1   0.14316 258236.480000
   7019   7025     1   0.14233 265014.560000
   7028   7029     1   0.15375 251793.120000
   7028   7042     1   0.15375 251793.120000
   7028   7050     1   0.14316 258236.480000
   7029   7032     1   0.15375 251793.120000
   7029   7041     1   0.14233 265014.560000
   7032   7033     1   0.15375 251793.120000
   7032   7040     1   0.14233 265014.560000
   7033   7034     1   0.15375 251793.120000
   7033   7039     1   0.14233 265014.560000
   7034   7038     1   0.14316 258236.480000
   7034   7050     1   0.14316 258236.480000
   7042   7048     1   0.14233 265014.560000
   7051   7052     1   0.15375 251793.120000
   7051   7065     1   0.15375 251793.120000
   7051   7073     1   0.14316 258236.480000
   7052   7055     1   0.15375 251793.120000
   7052   7064     1   0.14233 265014.560000
   7055   7056     1   0.15375 251793.120000
   7055   7063     1   0.14233 265014.560000
   7056   7057     1   0.15375 251793.120000
   7056   7062     1   0.14233 265014.560000
   7057   7061     1   0.14316 258236.480000
   7057   7073     1   0.14316 258236.480000
   7065   7071     1   0.14233 265014.560000
   7074   7075     1   0.15375 251793.120000
   7074   7088     1   0.15375 251793.120000
   7074   7096     1   0.14316 258236.480000
   7075   7078     1   0.15375 251793.120000
   7075   7087     1   0.14233 265014.560000
   7078   7079     1   0.15375 251793.120000
   7078   7086     1   0.14233 265014.560000
   7079   7080     1   0.15375 251793.120000
   7079   7085     1   0.14233 265014.560000
   7080   7084     1   0.14316 258236.480000
   7080   7096     1   0.14316 258236.480000
   7088   7094     1   0.14233 265014.560000
   7097   7098     1   0.15375 251793.120000
   7097   7111     1   0.15375 251793.120000
   7097   7119     1   0.14316 258236.480000
   7098   7101     1   0.15375 251793.120000
   7098   7110     1   0.14233 265014.560000
   7101   7102     1   0.15375 251793.120000
   7101   7109     1   0.14233 265014.560000
   7102   7103     1   0.15375 251793.120000
   7102   7108     1   0.14233 265014.560000
   7103   7107     1   0.14316 258236.480000
   7103   7119     1   0.14316 258236.480000
   7111   7117     1   0.14233 265014.560000
   7120   7121     1   0.15375 251793.120000
   7120   7134     1   0.15375 251793.120000
   7120   7142     1   0.14316 258236.480000
   7121   7124     1   0.15375 251793.120000
   7121   7133     1   0.14233 265014.560000
   7124   7125     1   0.15375 251793.120000
   7124   7132     1   0.14233 265014.560000
   7125   7126     1   0.15375 251793.120000
   7125   7131     1   0.14233 265014.560000
   7126   7130     1   0.14316 258236.480000
   7126   7142     1   0.14316 258236.480000
   7134   7140     1   0.14233 265014.560000
   7143   7144     1   0.15375 251793.120000
   7143   7157     1   0.15375 251793.120000
   7143   7165     1   0.14316 258236.480000
   7144   7147     1   0.15375 251793.120000
   7144   7156     1   0.14233 265014.560000
   7147   7148     1   0.15375 251793.120000
   7147   7155     1   0.14233 265014.560000
   7148   7149     1   0.15375 251793.120000
   7148   7154     1   0.14233 265014.560000
   7149   7153     1   0.14316 258236.480000
   7149   7165     1   0.14316 258236.480000
   7157   7163     1   0.14233 265014.560000
   7166   7167     1   0.15375 251793.120000
   7166   7180     1   0.15375 251793.120000
   7166   7188     1   0.14316 258236.480000
   7167   7170     1   0.15375 251793.120000
   7167   7179     1   0.14233 265014.560000
   7170   7171     1   0.15375 251793.120000
   7170   7178     1   0.14233 265014.560000
   7171   7172     1   0.15375 251793.120000
   7171   7177     1   0.14233 265014.560000
   7172   7176     1   0.14316 258236.480000
   7172   7188     1   0.14316 258236.480000
   7180   7186     1   0.14233 265014.560000
   7189   7190     1   0.15375 251793.120000
   7189   7203     1   0.15375 251793.120000
   7189   7211     1   0.14316 258236.480000
   7190   7193     1   0.15375 251793.120000
   7190   7202     1   0.14233 265014.560000
   7193   7194     1   0.15375 251793.120000
   7193   7201     1   0.14233 265014.560000
   7194   7195     1   0.15375 251793.120000
   7194   7200     1   0.14233 265014.560000
   7195   7199     1   0.14316 258236.480000
   7195   7211     1   0.14316 258236.480000
   7203   7209     1   0.14233 265014.560000
   7212   7213     1   0.15375 251793.120000
   7212   7226     1   0.15375 251793.120000
   7212   7234     1   0.14316 258236.480000
   7213   7216     1   0.15375 251793.120000
   7213   7225     1   0.14233 265014.560000
   7216   7217     1   0.15375 251793.120000
   7216   7224     1   0.14233 265014.560000
   7217   7218     1   0.15375 251793.120000
   7217   7223     1   0.14233 265014.560000
   7218   7222     1   0.14316 258236.480000
   7218   7234     1   0.14316 258236.480000
   7226   7232     1   0.14233 265014.560000
   7235   7236     1   0.15375 251793.120000
   7235   7249     1   0.15375 251793.120000
   7235   7257     1   0.14316 258236.480000
   7236   7239     1   0.15375 251793.120000
   7236   7248     1   0.14233 265014.560000
   7239   7240     1   0.15375 251793.120000
   7239   7247     1   0.14233 265014.560000
   7240   7241     1   0.15375 251793.120000
   7240   7246     1   0.14233 265014.560000
   7241   7245     1   0.14316 258236.480000
   7241   7257     1   0.14316 258236.480000
   7249   7255     1   0.14233 265014.560000
   7258   7259     1   0.15375 251793.120000
   7258   7272     1   0.15375 251793.120000
   7258   7280     1   0.14316 258236.480000
   7259   7262     1   0.15375 251793.120000
   7259   7271     1   0.14233 265014.560000
   7262   7263     1   0.15375 251793.120000
   7262   7270     1   0.14233 265014.560000
   7263   7264     1   0.15375 251793.120000
   7263   7269     1   0.14233 265014.560000
   7264   7268     1   0.14316 258236.480000
   7264   7280     1   0.14316 258236.480000
   7272   7278     1   0.14233 265014.560000
   7281   7282     1   0.15375 251793.120000
   7281   7295     1   0.15375 251793.120000
   7281   7303     1   0.14316 258236.480000
   7282   7285     1   0.15375 251793.120000
   7282   7294     1   0.14233 265014.560000
   7285   7286     1   0.15375 251793.120000
   7285   7293     1   0.14233 265014.560000
   7286   7287     1   0.15375 251793.120000
   7286   7292     1   0.14233 265014.560000
   7287   7291     1   0.14316 258236.480000
   7287   7303     1   0.14316 258236.480000
   7295   7301     1   0.14233 265014.560000
   7304   7305     1   0.15375 251793.120000
   7304   7318     1   0.15375 251793.120000
   7304   7326     1   0.14316 258236.480000
   7305   7308     1   0.15375 251793.120000
   7305   7317     1   0.14233 265014.560000
   7308   7309     1   0.15375 251793.120000
   7308   7316     1   0.14233 265014.560000
   7309   7310     1   0.15375 251793.120000
   7309   7315     1   0.14233 265014.560000
   7310   7314     1   0.14316 258236.480000
   7310   7326     1   0.14316 258236.480000
   7318   7324     1   0.14233 265014.560000
   7327   7328     1   0.15375 251793.120000
   7327   7341     1   0.15375 251793.120000
   7327   7349     1   0.14316 258236.480000
   7328   7331     1   0.15375 251793.120000
   7328   7340     1   0.14233 265014.560000
   7331   7332     1   0.15375 251793.120000
   7331   7339     1   0.14233 265014.560000
   7332   7333     1   0.15375 251793.120000
   7332   7338     1   0.14233 265014.560000
   7333   7337     1   0.14316 258236.480000
   7333   7349     1   0.14316 258236.480000
   7341   7347     1   0.14233 265014.560000
   7350   7351     1   0.15375 251793.120000
   7350   7364     1   0.15375 251793.120000
   7350   7372     1   0.14316 258236.480000
   7351   7354     1   0.15375 251793.120000
   7351   7363     1   0.14233 265014.560000
   7354   7355     1   0.15375 251793.120000
   7354   7362     1   0.14233 265014.560000
   7355   7356     1   0.15375 251793.120000
   7355   7361     1   0.14233 265014.560000
   7356   7360     1   0.14316 258236.480000
   7356   7372     1   0.14316 258236.480000
   7364   7370     1   0.14233 265014.560000
   7373   7374     1   0.15375 251793.120000
   7373   7387     1   0.15375 251793.120000
   7373   7395     1   0.14316 258236.480000
   7374   7377     1   0.15375 251793.120000
   7374   7386     1   0.14233 265014.560000
   7377   7378     1   0.15375 251793.120000
   7377   7385     1   0.14233 265014.560000
   7378   7379     1   0.15375 251793.120000
   7378   7384     1   0.14233 265014.560000
   7379   7383     1   0.14316 258236.480000
   7379   7395     1   0.14316 258236.480000
   7387   7393     1   0.14233 265014.560000
   7396   7397     1   0.15375 251793.120000
   7396   7410     1   0.15375 251793.120000
   7396   7418     1   0.14316 258236.480000
   7397   7400     1   0.15375 251793.120000
   7397   7409     1   0.14233 265014.560000
   7400   7401     1   0.15375 251793.120000
   7400   7408     1   0.14233 265014.560000
   7401   7402     1   0.15375 251793.120000
   7401   7407     1   0.14233 265014.560000
   7402   7406     1   0.14316 258236.480000
   7402   7418     1   0.14316 258236.480000
   7410   7416     1   0.14233 265014.560000
   7419   7420     1   0.15375 251793.120000
   7419   7433     1   0.15375 251793.120000
   7419   7441     1   0.14316 258236.480000
   7420   7423     1   0.15375 251793.120000
   7420   7432     1   0.14233 265014.560000
   7423   7424     1   0.15375 251793.120000
   7423   7431     1   0.14233 265014.560000
   7424   7425     1   0.15375 251793.120000
   7424   7430     1   0.14233 265014.560000
   7425   7429     1   0.14316 258236.480000
   7425   7441     1   0.14316 258236.480000
   7433   7439     1   0.14233 265014.560000
   7442   7443     1   0.15375 251793.120000
   7442   7456     1   0.15375 251793.120000
   7442   7464     1   0.14316 258236.480000
   7443   7446     1   0.15375 251793.120000
   7443   7455     1   0.14233 265014.560000
   7446   7447     1   0.15375 251793.120000
   7446   7454     1   0.14233 265014.560000
   7447   7448     1   0.15375 251793.120000
   7447   7453     1   0.14233 265014.560000
   7448   7452     1   0.14316 258236.480000
   7448   7464     1   0.14316 258236.480000
   7456   7462     1   0.14233 265014.560000
   7465   7466     1   0.15375 251793.120000
   7465   7479     1   0.15375 251793.120000
   7465   7487     1   0.14316 258236.480000
   7466   7469     1   0.15375 251793.120000
   7466   7478     1   0.14233 265014.560000
   7469   7470     1   0.15375 251793.120000
   7469   7477     1   0.14233 265014.560000
   7470   7471     1   0.15375 251793.120000
   7470   7476     1   0.14233 265014.560000
   7471   7475     1   0.14316 258236.480000
   7471   7487     1   0.14316 258236.480000
   7479   7485     1   0.14233 265014.560000
   7488   7489     1   0.15375 251793.120000
   7488   7502     1   0.15375 251793.120000
   7488   7510     1   0.14316 258236.480000
   7489   7492     1   0.15375 251793.120000
   7489   7501     1   0.14233 265014.560000
   7492   7493     1   0.15375 251793.120000
   7492   7500     1   0.14233 265014.560000
   7493   7494     1   0.15375 251793.120000
   7493   7499     1   0.14233 265014.560000
   7494   7498     1   0.14316 258236.480000
   7494   7510     1   0.14316 258236.480000
   7502   7508     1   0.14233 265014.560000
   7511   7512     1   0.15375 251793.120000
   7511   7525     1   0.15375 251793.120000
   7511   7533     1   0.14316 258236.480000
   7512   7515     1   0.15375 251793.120000
   7512   7524     1   0.14233 265014.560000
   7515   7516     1   0.15375 251793.120000
   7515   7523     1   0.14233 265014.560000
   7516   7517     1   0.15375 251793.120000
   7516   7522     1   0.14233 265014.560000
   7517   7521     1   0.14316 258236.480000
   7517   7533     1   0.14316 258236.480000
   7525   7531     1   0.14233 265014.560000
   7534   7535     1   0.15375 251793.120000
   7534   7548     1   0.15375 251793.120000
   7534   7556     1   0.14316 258236.480000
   7535   7538     1   0.15375 251793.120000
   7535   7547     1   0.14233 265014.560000
   7538   7539     1   0.15375 251793.120000
   7538   7546     1   0.14233 265014.560000
   7539   7540     1   0.15375 251793.120000
   7539   7545     1   0.14233 265014.560000
   7540   7544     1   0.14316 258236.480000
   7540   7556     1   0.14316 258236.480000
   7548   7554     1   0.14233 265014.560000
   7557   7558     1   0.15375 251793.120000
   7557   7571     1   0.15375 251793.120000
   7557   7579     1   0.14316 258236.480000
   7558   7561     1   0.15375 251793.120000
   7558   7570     1   0.14233 265014.560000
   7561   7562     1   0.15375 251793.120000
   7561   7569     1   0.14233 265014.560000
   7562   7563     1   0.15375 251793.120000
   7562   7568     1   0.14233 265014.560000
   7563   7567     1   0.14316 258236.480000
   7563   7579     1   0.14316 258236.480000
   7571   7577     1   0.14233 265014.560000
   7580   7581     1   0.15375 251793.120000
   7580   7594     1   0.15375 251793.120000
   7580   7602     1   0.14316 258236.480000
   7581   7584     1   0.15375 251793.120000
   7581   7593     1   0.14233 265014.560000
   7584   7585     1   0.15375 251793.120000
   7584   7592     1   0.14233 265014.560000
   7585   7586     1   0.15375 251793.120000
   7585   7591     1   0.14233 265014.560000
   7586   7590     1   0.14316 258236.480000
   7586   7602     1   0.14316 258236.480000
   7594   7600     1   0.14233 265014.560000
   7603   7604     1   0.15375 251793.120000
   7603   7617     1   0.15375 251793.120000
   7603   7625     1   0.14316 258236.480000
   7604   7607     1   0.15375 251793.120000
   7604   7616     1   0.14233 265014.560000
   7607   7608     1   0.15375 251793.120000
   7607   7615     1   0.14233 265014.560000
   7608   7609     1   0.15375 251793.120000
   7608   7614     1   0.14233 265014.560000
   7609   7613     1   0.14316 258236.480000
   7609   7625     1   0.14316 258236.480000
   7617   7623     1   0.14233 265014.560000
   7626   7627     1   0.15375 251793.120000
   7626   7640     1   0.15375 251793.120000
   7626   7648     1   0.14316 258236.480000
   7627   7630     1   0.15375 251793.120000
   7627   7639     1   0.14233 265014.560000
   7630   7631     1   0.15375 251793.120000
   7630   7638     1   0.14233 265014.560000
   7631   7632     1   0.15375 251793.120000
   7631   7637     1   0.14233 265014.560000
   7632   7636     1   0.14316 258236.480000
   7632   7648     1   0.14316 258236.480000
   7640   7646     1   0.14233 265014.560000
   7649   7650     1   0.15375 251793.120000
   7649   7663     1   0.15375 251793.120000
   7649   7671     1   0.14316 258236.480000
   7650   7653     1   0.15375 251793.120000
   7650   7662     1   0.14233 265014.560000
   7653   7654     1   0.15375 251793.120000
   7653   7661     1   0.14233 265014.560000
   7654   7655     1   0.15375 251793.120000
   7654   7660     1   0.14233 265014.560000
   7655   7659     1   0.14316 258236.480000
   7655   7671     1   0.14316 258236.480000
   7663   7669     1   0.14233 265014.560000
   7672   7673     1   0.15375 251793.120000
   7672   7686     1   0.15375 251793.120000
   7672   7694     1   0.14316 258236.480000
   7673   7676     1   0.15375 251793.120000
   7673   7685     1   0.14233 265014.560000
   7676   7677     1   0.15375 251793.120000
   7676   7684     1   0.14233 265014.560000
   7677   7678     1   0.15375 251793.120000
   7677   7683     1   0.14233 265014.560000
   7678   7682     1   0.14316 258236.480000
   7678   7694     1   0.14316 258236.480000
   7686   7692     1   0.14233 265014.560000
   7695   7696     1   0.15375 251793.120000
   7695   7709     1   0.15375 251793.120000
   7695   7717     1   0.14316 258236.480000
   7696   7699     1   0.15375 251793.120000
   7696   7708     1   0.14233 265014.560000
   7699   7700     1   0.15375 251793.120000
   7699   7707     1   0.14233 265014.560000
   7700   7701     1   0.15375 251793.120000
   7700   7706     1   0.14233 265014.560000
   7701   7705     1   0.14316 258236.480000
   7701   7717     1   0.14316 258236.480000
   7709   7715     1   0.14233 265014.560000
   7718   7719     1   0.15375 251793.120000
   7718   7732     1   0.15375 251793.120000
   7718   7740     1   0.14316 258236.480000
   7719   7722     1   0.15375 251793.120000
   7719   7731     1   0.14233 265014.560000
   7722   7723     1   0.15375 251793.120000
   7722   7730     1   0.14233 265014.560000
   7723   7724     1   0.15375 251793.120000
   7723   7729     1   0.14233 265014.560000
   7724   7728     1   0.14316 258236.480000
   7724   7740     1   0.14316 258236.480000
   7732   7738     1   0.14233 265014.560000
   7741   7742     1   0.15375 251793.120000
   7741   7755     1   0.15375 251793.120000
   7741   7763     1   0.14316 258236.480000
   7742   7745     1   0.15375 251793.120000
   7742   7754     1   0.14233 265014.560000
   7745   7746     1   0.15375 251793.120000
   7745   7753     1   0.14233 265014.560000
   7746   7747     1   0.15375 251793.120000
   7746   7752     1   0.14233 265014.560000
   7747   7751     1   0.14316 258236.480000
   7747   7763     1   0.14316 258236.480000
   7755   7761     1   0.14233 265014.560000
   7764   7765     1   0.15375 251793.120000
   7764   7778     1   0.15375 251793.120000
   7764   7786     1   0.14316 258236.480000
   7765   7768     1   0.15375 251793.120000
   7765   7777     1   0.14233 265014.560000
   7768   7769     1   0.15375 251793.120000
   7768   7776     1   0.14233 265014.560000
   7769   7770     1   0.15375 251793.120000
   7769   7775     1   0.14233 265014.560000
   7770   7774     1   0.14316 258236.480000
   7770   7786     1   0.14316 258236.480000
   7778   7784     1   0.14233 265014.560000
   7787   7788     1   0.15375 251793.120000
   7787   7801     1   0.15375 251793.120000
   7787   7809     1   0.14316 258236.480000
   7788   7791     1   0.15375 251793.120000
   7788   7800     1   0.14233 265014.560000
   7791   7792     1   0.15375 251793.120000
   7791   7799     1   0.14233 265014.560000
   7792   7793     1   0.15375 251793.120000
   7792   7798     1   0.14233 265014.560000
   7793   7797     1   0.14316 258236.480000
   7793   7809     1   0.14316 258236.480000
   7801   7807     1   0.14233 265014.560000
   7810   7811     1   0.15375 251793.120000
   7810   7824     1   0.15375 251793.120000
   7810   7832     1   0.14316 258236.480000
   7811   7814     1   0.15375 251793.120000
   7811   7823     1   0.14233 265014.560000
   7814   7815     1   0.15375 251793.120000
   7814   7822     1   0.14233 265014.560000
   7815   7816     1   0.15375 251793.120000
   7815   7821     1   0.14233 265014.560000
   7816   7820     1   0.14316 258236.480000
   7816   7832     1   0.14316 258236.480000
   7824   7830     1   0.14233 265014.560000
   7833   7834     1   0.15375 251793.120000
   7833   7847     1   0.15375 251793.120000
   7833   7855     1   0.14316 258236.480000
   7834   7837     1   0.15375 251793.120000
   7834   7846     1   0.14233 265014.560000
   7837   7838     1   0.15375 251793.120000
   7837   7845     1   0.14233 265014.560000
   7838   7839     1   0.15375 251793.120000
   7838   7844     1   0.14233 265014.560000
   7839   7843     1   0.14316 258236.480000
   7839   7855     1   0.14316 258236.480000
   7847   7853     1   0.14233 265014.560000
   7856   7857     1   0.15375 251793.120000
   7856   7870     1   0.15375 251793.120000
   7856   7878     1   0.14316 258236.480000
   7857   7860     1   0.15375 251793.120000
   7857   7869     1   0.14233 265014.560000
   7860   7861     1   0.15375 251793.120000
   7860   7868     1   0.14233 265014.560000
   7861   7862     1   0.15375 251793.120000
   7861   7867     1   0.14233 265014.560000
   7862   7866     1   0.14316 258236.480000
   7862   7878     1   0.14316 258236.480000
   7870   7876     1   0.14233 265014.560000
   7879   7880     1   0.15375 251793.120000
   7879   7893     1   0.15375 251793.120000
   7879   7901     1   0.14316 258236.480000
   7880   7883     1   0.15375 251793.120000
   7880   7892     1   0.14233 265014.560000
   7883   7884     1   0.15375 251793.120000
   7883   7891     1   0.14233 265014.560000
   7884   7885     1   0.15375 251793.120000
   7884   7890     1   0.14233 265014.560000
   7885   7889     1   0.14316 258236.480000
   7885   7901     1   0.14316 258236.480000
   7893   7899     1   0.14233 265014.560000
   7902   7903     1   0.15375 251793.120000
   7902   7916     1   0.15375 251793.120000
   7902   7924     1   0.14316 258236.480000
   7903   7906     1   0.15375 251793.120000
   7903   7915     1   0.14233 265014.560000
   7906   7907     1   0.15375 251793.120000
   7906   7914     1   0.14233 265014.560000
   7907   7908     1   0.15375 251793.120000
   7907   7913     1   0.14233 265014.560000
   7908   7912     1   0.14316 258236.480000
   7908   7924     1   0.14316 258236.480000
   7916   7922     1   0.14233 265014.560000
   7925   7926     1   0.15375 251793.120000
   7925   7939     1   0.15375 251793.120000
   7925   7947     1   0.14316 258236.480000
   7926   7929     1   0.15375 251793.120000
   7926   7938     1   0.14233 265014.560000
   7929   7930     1   0.15375 251793.120000
   7929   7937     1   0.14233 265014.560000
   7930   7931     1   0.15375 251793.120000
   7930   7936     1   0.14233 265014.560000
   7931   7935     1   0.14316 258236.480000
   7931   7947     1   0.14316 258236.480000
   7939   7945     1   0.14233 265014.560000
   7948   7949     1   0.15375 251793.120000
   7948   7962     1   0.15375 251793.120000
   7948   7970     1   0.14316 258236.480000
   7949   7952     1   0.15375 251793.120000
   7949   7961     1   0.14233 265014.560000
   7952   7953     1   0.15375 251793.120000
   7952   7960     1   0.14233 265014.560000
   7953   7954     1   0.15375 251793.120000
   7953   7959     1   0.14233 265014.560000
   7954   7958     1   0.14316 258236.480000
   7954   7970     1   0.14316 258236.480000
   7962   7968     1   0.14233 265014.560000
   7971   7972     1   0.15375 251793.120000
   7971   7985     1   0.15375 251793.120000
   7971   7993     1   0.14316 258236.480000
   7972   7975     1   0.15375 251793.120000
   7972   7984     1   0.14233 265014.560000
   7975   7976     1   0.15375 251793.120000
   7975   7983     1   0.14233 265014.560000
   7976   7977     1   0.15375 251793.120000
   7976   7982     1   0.14233 265014.560000
   7977   7981     1   0.14316 258236.480000
   7977   7993     1   0.14316 258236.480000
   7985   7991     1   0.14233 265014.560000
   7994   7995     1   0.15375 251793.120000
   7994   8008     1   0.15375 251793.120000
   7994   8016     1   0.14316 258236.480000
   7995   7998     1   0.15375 251793.120000
   7995   8007     1   0.14233 265014.560000
   7998   7999     1   0.15375 251793.120000
   7998   8006     1   0.14233 265014.560000
   7999   8000     1   0.15375 251793.120000
   7999   8005     1   0.14233 265014.560000
   8000   8004     1   0.14316 258236.480000
   8000   8016     1   0.14316 258236.480000
   8008   8014     1   0.14233 265014.560000
   8017   8018     1   0.15375 251793.120000
   8017   8031     1   0.15375 251793.120000
   8017   8039     1   0.14316 258236.480000
   8018   8021     1   0.15375 251793.120000
   8018   8030     1   0.14233 265014.560000
   8021   8022     1   0.15375 251793.120000
   8021   8029     1   0.14233 265014.560000
   8022   8023     1   0.15375 251793.120000
   8022   8028     1   0.14233 265014.560000
   8023   8027     1   0.14316 258236.480000
   8023   8039     1   0.14316 258236.480000
   8031   8037     1   0.14233 265014.560000
   8040   8041     1   0.15375 251793.120000
   8040   8054     1   0.15375 251793.120000
   8040   8062     1   0.14316 258236.480000
   8041   8044     1   0.15375 251793.120000
   8041   8053     1   0.14233 265014.560000
   8044   8045     1   0.15375 251793.120000
   8044   8052     1   0.14233 265014.560000
   8045   8046     1   0.15375 251793.120000
   8045   8051     1   0.14233 265014.560000
   8046   8050     1   0.14316 258236.480000
   8046   8062     1   0.14316 258236.480000
   8054   8060     1   0.14233 265014.560000
   8063   8064     1   0.15375 251793.120000
   8063   8077     1   0.15375 251793.120000
   8063   8085     1   0.14316 258236.480000
   8064   8067     1   0.15375 251793.120000
   8064   8076     1   0.14233 265014.560000
   8067   8068     1   0.15375 251793.120000
   8067   8075     1   0.14233 265014.560000
   8068   8069     1   0.15375 251793.120000
   8068   8074     1   0.14233 265014.560000
   8069   8073     1   0.14316 258236.480000
   8069   8085     1   0.14316 258236.480000
   8077   8083     1   0.14233 265014.560000
   8086   8087     1   0.15375 251793.120000
   8086   8100     1   0.15375 251793.120000
   8086   8108     1   0.14316 258236.480000
   8087   8090     1   0.15375 251793.120000
   8087   8099     1   0.14233 265014.560000
   8090   8091     1   0.15375 251793.120000
   8090   8098     1   0.14233 265014.560000
   8091   8092     1   0.15375 251793.120000
   8091   8097     1   0.14233 265014.560000
   8092   8096     1   0.14316 258236.480000
   8092   8108     1   0.14316 258236.480000
   8100   8106     1   0.14233 265014.560000
   8109   8110     1   0.15375 251793.120000
   8109   8123     1   0.15375 251793.120000
   8109   8131     1   0.14316 258236.480000
   8110   8113     1   0.15375 251793.120000
   8110   8122     1   0.14233 265014.560000
   8113   8114     1   0.15375 251793.120000
   8113   8121     1   0.14233 265014.560000
   8114   8115     1   0.15375 251793.120000
   8114   8120     1   0.14233 265014.560000
   8115   8119     1   0.14316 258236.480000
   8115   8131     1   0.14316 258236.480000
   8123   8129     1   0.14233 265014.560000
   8132   8133     1   0.15375 251793.120000
   8132   8146     1   0.15375 251793.120000
   8132   8154     1   0.14316 258236.480000
   8133   8136     1   0.15375 251793.120000
   8133   8145     1   0.14233 265014.560000
   8136   8137     1   0.15375 251793.120000
   8136   8144     1   0.14233 265014.560000
   8137   8138     1   0.15375 251793.120000
   8137   8143     1   0.14233 265014.560000
   8138   8142     1   0.14316 258236.480000
   8138   8154     1   0.14316 258236.480000
   8146   8152     1   0.14233 265014.560000
   8155   8156     1   0.15375 251793.120000
   8155   8169     1   0.15375 251793.120000
   8155   8177     1   0.14316 258236.480000
   8156   8159     1   0.15375 251793.120000
   8156   8168     1   0.14233 265014.560000
   8159   8160     1   0.15375 251793.120000
   8159   8167     1   0.14233 265014.560000
   8160   8161     1   0.15375 251793.120000
   8160   8166     1   0.14233 265014.560000
   8161   8165     1   0.14316 258236.480000
   8161   8177     1   0.14316 258236.480000
   8169   8175     1   0.14233 265014.560000
   8178   8179     1   0.15375 251793.120000
   8178   8192     1   0.15375 251793.120000
   8178   8200     1   0.14316 258236.480000
   8179   8182     1   0.15375 251793.120000
   8179   8191     1   0.14233 265014.560000
   8182   8183     1   0.15375 251793.120000
   8182   8190     1   0.14233 265014.560000
   8183   8184     1   0.15375 251793.120000
   8183   8189     1   0.14233 265014.560000
   8184   8188     1   0.14316 258236.480000
   8184   8200     1   0.14316 258236.480000
   8192   8198     1   0.14233 265014.560000
   8201   8202     1   0.15375 251793.120000
   8201   8215     1   0.15375 251793.120000
   8201   8223     1   0.14316 258236.480000
   8202   8205     1   0.15375 251793.120000
   8202   8214     1   0.14233 265014.560000
   8205   8206     1   0.15375 251793.120000
   8205   8213     1   0.14233 265014.560000
   8206   8207     1   0.15375 251793.120000
   8206   8212     1   0.14233 265014.560000
   8207   8211     1   0.14316 258236.480000
   8207   8223     1   0.14316 258236.480000
   8215   8221     1   0.14233 265014.560000
   8224   8225     1   0.15375 251793.120000
   8224   8238     1   0.15375 251793.120000
   8224   8246     1   0.14316 258236.480000
   8225   8228     1   0.15375 251793.120000
   8225   8237     1   0.14233 265014.560000
   8228   8229     1   0.15375 251793.120000
   8228   8236     1   0.14233 265014.560000
   8229   8230     1   0.15375 251793.120000
   8229   8235     1   0.14233 265014.560000
   8230   8234     1   0.14316 258236.480000
   8230   8246     1   0.14316 258236.480000
   8238   8244     1   0.14233 265014.560000
   8247   8248     1   0.15375 251793.120000
   8247   8261     1   0.15375 251793.120000
   8247   8269     1   0.14316 258236.480000
   8248   8251     1   0.15375 251793.120000
   8248   8260     1   0.14233 265014.560000
   8251   8252     1   0.15375 251793.120000
   8251   8259     1   0.14233 265014.560000
   8252   8253     1   0.15375 251793.120000
   8252   8258     1   0.14233 265014.560000
   8253   8257     1   0.14316 258236.480000
   8253   8269     1   0.14316 258236.480000
   8261   8267     1   0.14233 265014.560000
   8270   8271     1   0.15375 251793.120000
   8270   8284     1   0.15375 251793.120000
   8270   8292     1   0.14316 258236.480000
   8271   8274     1   0.15375 251793.120000
   8271   8283     1   0.14233 265014.560000
   8274   8275     1   0.15375 251793.120000
   8274   8282     1   0.14233 265014.560000
   8275   8276     1   0.15375 251793.120000
   8275   8281     1   0.14233 265014.560000
   8276   8280     1   0.14316 258236.480000
   8276   8292     1   0.14316 258236.480000
   8284   8290     1   0.14233 265014.560000
   8293   8294     1   0.15375 251793.120000
   8293   8307     1   0.15375 251793.120000
   8293   8315     1   0.14316 258236.480000
   8294   8297     1   0.15375 251793.120000
   8294   8306     1   0.14233 265014.560000
   8297   8298     1   0.15375 251793.120000
   8297   8305     1   0.14233 265014.560000
   8298   8299     1   0.15375 251793.120000
   8298   8304     1   0.14233 265014.560000
   8299   8303     1   0.14316 258236.480000
   8299   8315     1   0.14316 258236.480000
   8307   8313     1   0.14233 265014.560000
   8316   8317     1   0.15375 251793.120000
   8316   8330     1   0.15375 251793.120000
   8316   8338     1   0.14316 258236.480000
   8317   8320     1   0.15375 251793.120000
   8317   8329     1   0.14233 265014.560000
   8320   8321     1   0.15375 251793.120000
   8320   8328     1   0.14233 265014.560000
   8321   8322     1   0.15375 251793.120000
   8321   8327     1   0.14233 265014.560000
   8322   8326     1   0.14316 258236.480000
   8322   8338     1   0.14316 258236.480000
   8330   8336     1   0.14233 265014.560000
   8339   8340     1   0.15375 251793.120000
   8339   8353     1   0.15375 251793.120000
   8339   8361     1   0.14316 258236.480000
   8340   8343     1   0.15375 251793.120000
   8340   8352     1   0.14233 265014.560000
   8343   8344     1   0.15375 251793.120000
   8343   8351     1   0.14233 265014.560000
   8344   8345     1   0.15375 251793.120000
   8344   8350     1   0.14233 265014.560000
   8345   8349     1   0.14316 258236.480000
   8345   8361     1   0.14316 258236.480000
   8353   8359     1   0.14233 265014.560000
   8362   8363     1   0.15375 251793.120000
   8362   8376     1   0.15375 251793.120000
   8362   8384     1   0.14316 258236.480000
   8363   8366     1   0.15375 251793.120000
   8363   8375     1   0.14233 265014.560000
   8366   8367     1   0.15375 251793.120000
   8366   8374     1   0.14233 265014.560000
   8367   8368     1   0.15375 251793.120000
   8367   8373     1   0.14233 265014.560000
   8368   8372     1   0.14316 258236.480000
   8368   8384     1   0.14316 258236.480000
   8376   8382     1   0.14233 265014.560000
   8385   8386     1   0.15375 251793.120000
   8385   8399     1   0.15375 251793.120000
   8385   8407     1   0.14316 258236.480000
   8386   8389     1   0.15375 251793.120000
   8386   8398     1   0.14233 265014.560000
   8389   8390     1   0.15375 251793.120000
   8389   8397     1   0.14233 265014.560000
   8390   8391     1   0.15375 251793.120000
   8390   8396     1   0.14233 265014.560000
   8391   8395     1   0.14316 258236.480000
   8391   8407     1   0.14316 258236.480000
   8399   8405     1   0.14233 265014.560000
   8408   8409     1   0.15375 251793.120000
   8408   8422     1   0.15375 251793.120000
   8408   8430     1   0.14316 258236.480000
   8409   8412     1   0.15375 251793.120000
   8409   8421     1   0.14233 265014.560000
   8412   8413     1   0.15375 251793.120000
   8412   8420     1   0.14233 265014.560000
   8413   8414     1   0.15375 251793.120000
   8413   8419     1   0.14233 265014.560000
   8414   8418     1   0.14316 258236.480000
   8414   8430     1   0.14316 258236.480000
   8422   8428     1   0.14233 265014.560000
   8431   8432     1   0.15375 251793.120000
   8431   8445     1   0.15375 251793.120000
   8431   8453     1   0.14316 258236.480000
   8432   8435     1   0.15375 251793.120000
   8432   8444     1   0.14233 265014.560000
   8435   8436     1   0.15375 251793.120000
   8435   8443     1   0.14233 265014.560000
   8436   8437     1   0.15375 251793.120000
   8436   8442     1   0.14233 265014.560000
   8437   8441     1   0.14316 258236.480000
   8437   8453     1   0.14316 258236.480000
   8445   8451     1   0.14233 265014.560000
   8454   8455     1   0.15375 251793.120000
   8454   8468     1   0.15375 251793.120000
   8454   8476     1   0.14316 258236.480000
   8455   8458     1   0.15375 251793.120000
   8455   8467     1   0.14233 265014.560000
   8458   8459     1   0.15375 251793.120000
   8458   8466     1   0.14233 265014.560000
   8459   8460     1   0.15375 251793.120000
   8459   8465     1   0.14233 265014.560000
   8460   8464     1   0.14316 258236.480000
   8460   8476     1   0.14316 258236.480000
   8468   8474     1   0.14233 265014.560000
   8477   8478     1   0.15375 251793.120000
   8477   8491     1   0.15375 251793.120000
   8477   8499     1   0.14316 258236.480000
   8478   8481     1   0.15375 251793.120000
   8478   8490     1   0.14233 265014.560000
   8481   8482     1   0.15375 251793.120000
   8481   8489     1   0.14233 265014.560000
   8482   8483     1   0.15375 251793.120000
   8482   8488     1   0.14233 265014.560000
   8483   8487     1   0.14316 258236.480000
   8483   8499     1   0.14316 258236.480000
   8491   8497     1   0.14233 265014.560000
   8500   8501     1   0.15375 251793.120000
   8500   8514     1   0.15375 251793.120000
   8500   8522     1   0.14316 258236.480000
   8501   8504     1   0.15375 251793.120000
   8501   8513     1   0.14233 265014.560000
   8504   8505     1   0.15375 251793.120000
   8504   8512     1   0.14233 265014.560000
   8505   8506     1   0.15375 251793.120000
   8505   8511     1   0.14233 265014.560000
   8506   8510     1   0.14316 258236.480000
   8506   8522     1   0.14316 258236.480000
   8514   8520     1   0.14233 265014.560000
   8523   8524     1   0.15375 251793.120000
   8523   8537     1   0.15375 251793.120000
   8523   8545     1   0.14316 258236.480000
   8524   8527     1   0.15375 251793.120000
   8524   8536     1   0.14233 265014.560000
   8527   8528     1   0.15375 251793.120000
   8527   8535     1   0.14233 265014.560000
   8528   8529     1   0.15375 251793.120000
   8528   8534     1   0.14233 265014.560000
   8529   8533     1   0.14316 258236.480000
   8529   8545     1   0.14316 258236.480000
   8537   8543     1   0.14233 265014.560000
   8546   8547     1   0.15375 251793.120000
   8546   8560     1   0.15375 251793.120000
   8546   8568     1   0.14316 258236.480000
   8547   8550     1   0.15375 251793.120000
   8547   8559     1   0.14233 265014.560000
   8550   8551     1   0.15375 251793.120000
   8550   8558     1   0.14233 265014.560000
   8551   8552     1   0.15375 251793.120000
   8551   8557     1   0.14233 265014.560000
   8552   8556     1   0.14316 258236.480000
   8552   8568     1   0.14316 258236.480000
   8560   8566     1   0.14233 265014.560000
   8569   8570     1   0.15375 251793.120000
   8569   8583     1   0.15375 251793.120000
   8569   8591     1   0.14316 258236.480000
   8570   8573     1   0.15375 251793.120000
   8570   8582     1   0.14233 265014.560000
   8573   8574     1   0.15375 251793.120000
   8573   8581     1   0.14233 265014.560000
   8574   8575     1   0.15375 251793.120000
   8574   8580     1   0.14233 265014.560000
   8575   8579     1   0.14316 258236.480000
   8575   8591     1   0.14316 258236.480000
   8583   8589     1   0.14233 265014.560000
   8592   8593     1   0.15375 251793.120000
   8592   8606     1   0.15375 251793.120000
   8592   8614     1   0.14316 258236.480000
   8593   8596     1   0.15375 251793.120000
   8593   8605     1   0.14233 265014.560000
   8596   8597     1   0.15375 251793.120000
   8596   8604     1   0.14233 265014.560000
   8597   8598     1   0.15375 251793.120000
   8597   8603     1   0.14233 265014.560000
   8598   8602     1   0.14316 258236.480000
   8598   8614     1   0.14316 258236.480000
   8606   8612     1   0.14233 265014.560000
   8615   8616     1   0.15375 251793.120000
   8615   8629     1   0.15375 251793.120000
   8615   8637     1   0.14316 258236.480000
   8616   8619     1   0.15375 251793.120000
   8616   8628     1   0.14233 265014.560000
   8619   8620     1   0.15375 251793.120000
   8619   8627     1   0.14233 265014.560000
   8620   8621     1   0.15375 251793.120000
   8620   8626     1   0.14233 265014.560000
   8621   8625     1   0.14316 258236.480000
   8621   8637     1   0.14316 258236.480000
   8629   8635     1   0.14233 265014.560000
   8638   8639     1   0.15375 251793.120000
   8638   8652     1   0.15375 251793.120000
   8638   8660     1   0.14316 258236.480000
   8639   8642     1   0.15375 251793.120000
   8639   8651     1   0.14233 265014.560000
   8642   8643     1   0.15375 251793.120000
   8642   8650     1   0.14233 265014.560000
   8643   8644     1   0.15375 251793.120000
   8643   8649     1   0.14233 265014.560000
   8644   8648     1   0.14316 258236.480000
   8644   8660     1   0.14316 258236.480000
   8652   8658     1   0.14233 265014.560000
   8661   8662     1   0.15375 251793.120000
   8661   8675     1   0.15375 251793.120000
   8661   8683     1   0.14316 258236.480000
   8662   8665     1   0.15375 251793.120000
   8662   8674     1   0.14233 265014.560000
   8665   8666     1   0.15375 251793.120000
   8665   8673     1   0.14233 265014.560000
   8666   8667     1   0.15375 251793.120000
   8666   8672     1   0.14233 265014.560000
   8667   8671     1   0.14316 258236.480000
   8667   8683     1   0.14316 258236.480000
   8675   8681     1   0.14233 265014.560000
   8684   8685     1   0.15375 251793.120000
   8684   8698     1   0.15375 251793.120000
   8684   8706     1   0.14316 258236.480000
   8685   8688     1   0.15375 251793.120000
   8685   8697     1   0.14233 265014.560000
   8688   8689     1   0.15375 251793.120000
   8688   8696     1   0.14233 265014.560000
   8689   8690     1   0.15375 251793.120000
   8689   8695     1   0.14233 265014.560000
   8690   8694     1   0.14316 258236.480000
   8690   8706     1   0.14316 258236.480000
   8698   8704     1   0.14233 265014.560000
   8707   8708     1   0.15375 251793.120000
   8707   8721     1   0.15375 251793.120000
   8707   8729     1   0.14316 258236.480000
   8708   8711     1   0.15375 251793.120000
   8708   8720     1   0.14233 265014.560000
   8711   8712     1   0.15375 251793.120000
   8711   8719     1   0.14233 265014.560000
   8712   8713     1   0.15375 251793.120000
   8712   8718     1   0.14233 265014.560000
   8713   8717     1   0.14316 258236.480000
   8713   8729     1   0.14316 258236.480000
   8721   8727     1   0.14233 265014.560000
   8730   8731     1   0.15375 251793.120000
   8730   8744     1   0.15375 251793.120000
   8730   8752     1   0.14316 258236.480000
   8731   8734     1   0.15375 251793.120000
   8731   8743     1   0.14233 265014.560000
   8734   8735     1   0.15375 251793.120000
   8734   8742     1   0.14233 265014.560000
   8735   8736     1   0.15375 251793.120000
   8735   8741     1   0.14233 265014.560000
   8736   8740     1   0.14316 258236.480000
   8736   8752     1   0.14316 258236.480000
   8744   8750     1   0.14233 265014.560000
   8753   8754     1   0.15375 251793.120000
   8753   8767     1   0.15375 251793.120000
   8753   8775     1   0.14316 258236.480000
   8754   8757     1   0.15375 251793.120000
   8754   8766     1   0.14233 265014.560000
   8757   8758     1   0.15375 251793.120000
   8757   8765     1   0.14233 265014.560000
   8758   8759     1   0.15375 251793.120000
   8758   8764     1   0.14233 265014.560000
   8759   8763     1   0.14316 258236.480000
   8759   8775     1   0.14316 258236.480000
   8767   8773     1   0.14233 265014.560000
   8776   8777     1   0.15375 251793.120000
   8776   8790     1   0.15375 251793.120000
   8776   8798     1   0.14316 258236.480000
   8777   8780     1   0.15375 251793.120000
   8777   8789     1   0.14233 265014.560000
   8780   8781     1   0.15375 251793.120000
   8780   8788     1   0.14233 265014.560000
   8781   8782     1   0.15375 251793.120000
   8781   8787     1   0.14233 265014.560000
   8782   8786     1   0.14316 258236.480000
   8782   8798     1   0.14316 258236.480000
   8790   8796     1   0.14233 265014.560000
   8799   8800     1   0.15375 251793.120000
   8799   8813     1   0.15375 251793.120000
   8799   8821     1   0.14316 258236.480000
   8800   8803     1   0.15375 251793.120000
   8800   8812     1   0.14233 265014.560000
   8803   8804     1   0.15375 251793.120000
   8803   8811     1   0.14233 265014.560000
   8804   8805     1   0.15375 251793.120000
   8804   8810     1   0.14233 265014.560000
   8805   8809     1   0.14316 258236.480000
   8805   8821     1   0.14316 258236.480000
   8813   8819     1   0.14233 265014.560000
   8822   8823     1   0.15375 251793.120000
   8822   8836     1   0.15375 251793.120000
   8822   8844     1   0.14316 258236.480000
   8823   8826     1   0.15375 251793.120000
   8823   8835     1   0.14233 265014.560000
   8826   8827     1   0.15375 251793.120000
   8826   8834     1   0.14233 265014.560000
   8827   8828     1   0.15375 251793.120000
   8827   8833     1   0.14233 265014.560000
   8828   8832     1   0.14316 258236.480000
   8828   8844     1   0.14316 258236.480000
   8836   8842     1   0.14233 265014.560000
   8845   8846     1   0.15375 251793.120000
   8845   8859     1   0.15375 251793.120000
   8845   8867     1   0.14316 258236.480000
   8846   8849     1   0.15375 251793.120000
   8846   8858     1   0.14233 265014.560000
   8849   8850     1   0.15375 251793.120000
   8849   8857     1   0.14233 265014.560000
   8850   8851     1   0.15375 251793.120000
   8850   8856     1   0.14233 265014.560000
   8851   8855     1   0.14316 258236.480000
   8851   8867     1   0.14316 258236.480000
   8859   8865     1   0.14233 265014.560000
   8868   8869     1   0.15375 251793.120000
   8868   8882     1   0.15375 251793.120000
   8868   8890     1   0.14316 258236.480000
   8869   8872     1   0.15375 251793.120000
   8869   8881     1   0.14233 265014.560000
   8872   8873     1   0.15375 251793.120000
   8872   8880     1   0.14233 265014.560000
   8873   8874     1   0.15375 251793.120000
   8873   8879     1   0.14233 265014.560000
   8874   8878     1   0.14316 258236.480000
   8874   8890     1   0.14316 258236.480000
   8882   8888     1   0.14233 265014.560000
   8891   8892     1   0.15375 251793.120000
   8891   8905     1   0.15375 251793.120000
   8891   8913     1   0.14316 258236.480000
   8892   8895     1   0.15375 251793.120000
   8892   8904     1   0.14233 265014.560000
   8895   8896     1   0.15375 251793.120000
   8895   8903     1   0.14233 265014.560000
   8896   8897     1   0.15375 251793.120000
   8896   8902     1   0.14233 265014.560000
   8897   8901     1   0.14316 258236.480000
   8897   8913     1   0.14316 258236.480000
   8905   8911     1   0.14233 265014.560000
   8914   8915     1   0.15375 251793.120000
   8914   8928     1   0.15375 251793.120000
   8914   8936     1   0.14316 258236.480000
   8915   8918     1   0.15375 251793.120000
   8915   8927     1   0.14233 265014.560000
   8918   8919     1   0.15375 251793.120000
   8918   8926     1   0.14233 265014.560000
   8919   8920     1   0.15375 251793.120000
   8919   8925     1   0.14233 265014.560000
   8920   8924     1   0.14316 258236.480000
   8920   8936     1   0.14316 258236.480000
   8928   8934     1   0.14233 265014.560000
   8937   8938     1   0.15375 251793.120000
   8937   8951     1   0.15375 251793.120000
   8937   8959     1   0.14316 258236.480000
   8938   8941     1   0.15375 251793.120000
   8938   8950     1   0.14233 265014.560000
   8941   8942     1   0.15375 251793.120000
   8941   8949     1   0.14233 265014.560000
   8942   8943     1   0.15375 251793.120000
   8942   8948     1   0.14233 265014.560000
   8943   8947     1   0.14316 258236.480000
   8943   8959     1   0.14316 258236.480000
   8951   8957     1   0.14233 265014.560000
   8960   8961     1   0.15375 251793.120000
   8960   8974     1   0.15375 251793.120000
   8960   8982     1   0.14316 258236.480000
   8961   8964     1   0.15375 251793.120000
   8961   8973     1   0.14233 265014.560000
   8964   8965     1   0.15375 251793.120000
   8964   8972     1   0.14233 265014.560000
   8965   8966     1   0.15375 251793.120000
   8965   8971     1   0.14233 265014.560000
   8966   8970     1   0.14316 258236.480000
   8966   8982     1   0.14316 258236.480000
   8974   8980     1   0.14233 265014.560000
   8983   8984     1   0.15375 251793.120000
   8983   8997     1   0.15375 251793.120000
   8983   9005     1   0.14316 258236.480000
   8984   8987     1   0.15375 251793.120000
   8984   8996     1   0.14233 265014.560000
   8987   8988     1   0.15375 251793.120000
   8987   8995     1   0.14233 265014.560000
   8988   8989     1   0.15375 251793.120000
   8988   8994     1   0.14233 265014.560000
   8989   8993     1   0.14316 258236.480000
   8989   9005     1   0.14316 258236.480000
   8997   9003     1   0.14233 265014.560000
   9006   9007     1   0.15375 251793.120000
   9006   9020     1   0.15375 251793.120000
   9006   9028     1   0.14316 258236.480000
   9007   9010     1   0.15375 251793.120000
   9007   9019     1   0.14233 265014.560000
   9010   9011     1   0.15375 251793.120000
   9010   9018     1   0.14233 265014.560000
   9011   9012     1   0.15375 251793.120000
   9011   9017     1   0.14233 265014.560000
   9012   9016     1   0.14316 258236.480000
   9012   9028     1   0.14316 258236.480000
   9020   9026     1   0.14233 265014.560000
   9029   9030     1   0.15375 251793.120000
   9029   9043     1   0.15375 251793.120000
   9029   9051     1   0.14316 258236.480000
   9030   9033     1   0.15375 251793.120000
   9030   9042     1   0.14233 265014.560000
   9033   9034     1   0.15375 251793.120000
   9033   9041     1   0.14233 265014.560000
   9034   9035     1   0.15375 251793.120000
   9034   9040     1   0.14233 265014.560000
   9035   9039     1   0.14316 258236.480000
   9035   9051     1   0.14316 258236.480000
   9043   9049     1   0.14233 265014.560000
   9052   9053     1   0.15375 251793.120000
   9052   9066     1   0.15375 251793.120000
   9052   9074     1   0.14316 258236.480000
   9053   9056     1   0.15375 251793.120000
   9053   9065     1   0.14233 265014.560000
   9056   9057     1   0.15375 251793.120000
   9056   9064     1   0.14233 265014.560000
   9057   9058     1   0.15375 251793.120000
   9057   9063     1   0.14233 265014.560000
   9058   9062     1   0.14316 258236.480000
   9058   9074     1   0.14316 258236.480000
   9066   9072     1   0.14233 265014.560000
   9075   9076     1   0.15375 251793.120000
   9075   9089     1   0.15375 251793.120000
   9075   9097     1   0.14316 258236.480000
   9076   9079     1   0.15375 251793.120000
   9076   9088     1   0.14233 265014.560000
   9079   9080     1   0.15375 251793.120000
   9079   9087     1   0.14233 265014.560000
   9080   9081     1   0.15375 251793.120000
   9080   9086     1   0.14233 265014.560000
   9081   9085     1   0.14316 258236.480000
   9081   9097     1   0.14316 258236.480000
   9089   9095     1   0.14233 265014.560000
   9098   9099     1   0.15375 251793.120000
   9098   9112     1   0.15375 251793.120000
   9098   9120     1   0.14316 258236.480000
   9099   9102     1   0.15375 251793.120000
   9099   9111     1   0.14233 265014.560000
   9102   9103     1   0.15375 251793.120000
   9102   9110     1   0.14233 265014.560000
   9103   9104     1   0.15375 251793.120000
   9103   9109     1   0.14233 265014.560000
   9104   9108     1   0.14316 258236.480000
   9104   9120     1   0.14316 258236.480000
   9112   9118     1   0.14233 265014.560000
   9121   9122     1   0.15375 251793.120000
   9121   9135     1   0.15375 251793.120000
   9121   9143     1   0.14316 258236.480000
   9122   9125     1   0.15375 251793.120000
   9122   9134     1   0.14233 265014.560000
   9125   9126     1   0.15375 251793.120000
   9125   9133     1   0.14233 265014.560000
   9126   9127     1   0.15375 251793.120000
   9126   9132     1   0.14233 265014.560000
   9127   9131     1   0.14316 258236.480000
   9127   9143     1   0.14316 258236.480000
   9135   9141     1   0.14233 265014.560000
   9144   9145     1   0.15375 251793.120000
   9144   9158     1   0.15375 251793.120000
   9144   9166     1   0.14316 258236.480000
   9145   9148     1   0.15375 251793.120000
   9145   9157     1   0.14233 265014.560000
   9148   9149     1   0.15375 251793.120000
   9148   9156     1   0.14233 265014.560000
   9149   9150     1   0.15375 251793.120000
   9149   9155     1   0.14233 265014.560000
   9150   9154     1   0.14316 258236.480000
   9150   9166     1   0.14316 258236.480000
   9158   9164     1   0.14233 265014.560000
   9167   9168     1   0.15375 251793.120000
   9167   9181     1   0.15375 251793.120000
   9167   9189     1   0.14316 258236.480000
   9168   9171     1   0.15375 251793.120000
   9168   9180     1   0.14233 265014.560000
   9171   9172     1   0.15375 251793.120000
   9171   9179     1   0.14233 265014.560000
   9172   9173     1   0.15375 251793.120000
   9172   9178     1   0.14233 265014.560000
   9173   9177     1   0.14316 258236.480000
   9173   9189     1   0.14316 258236.480000
   9181   9187     1   0.14233 265014.560000
   9190   9191     1   0.15375 251793.120000
   9190   9204     1   0.15375 251793.120000
   9190   9212     1   0.14316 258236.480000
   9191   9194     1   0.15375 251793.120000
   9191   9203     1   0.14233 265014.560000
   9194   9195     1   0.15375 251793.120000
   9194   9202     1   0.14233 265014.560000
   9195   9196     1   0.15375 251793.120000
   9195   9201     1   0.14233 265014.560000
   9196   9200     1   0.14316 258236.480000
   9196   9212     1   0.14316 258236.480000
   9204   9210     1   0.14233 265014.560000
   9213   9214     1   0.15375 251793.120000
   9213   9227     1   0.15375 251793.120000
   9213   9235     1   0.14316 258236.480000
   9214   9217     1   0.15375 251793.120000
   9214   9226     1   0.14233 265014.560000
   9217   9218     1   0.15375 251793.120000
   9217   9225     1   0.14233 265014.560000
   9218   9219     1   0.15375 251793.120000
   9218   9224     1   0.14233 265014.560000
   9219   9223     1   0.14316 258236.480000
   9219   9235     1   0.14316 258236.480000
   9227   9233     1   0.14233 265014.560000
   9236   9237     1   0.15375 251793.120000
   9236   9250     1   0.15375 251793.120000
   9236   9258     1   0.14316 258236.480000
   9237   9240     1   0.15375 251793.120000
   9237   9249     1   0.14233 265014.560000
   9240   9241     1   0.15375 251793.120000
   9240   9248     1   0.14233 265014.560000
   9241   9242     1   0.15375 251793.120000
   9241   9247     1   0.14233 265014.560000
   9242   9246     1   0.14316 258236.480000
   9242   9258     1   0.14316 258236.480000
   9250   9256     1   0.14233 265014.560000
   9259   9260     1   0.15375 251793.120000
   9259   9273     1   0.15375 251793.120000
   9259   9281     1   0.14316 258236.480000
   9260   9263     1   0.15375 251793.120000
   9260   9272     1   0.14233 265014.560000
   9263   9264     1   0.15375 251793.120000
   9263   9271     1   0.14233 265014.560000
   9264   9265     1   0.15375 251793.120000
   9264   9270     1   0.14233 265014.560000
   9265   9269     1   0.14316 258236.480000
   9265   9281     1   0.14316 258236.480000
   9273   9279     1   0.14233 265014.560000
   9282   9283     1   0.15375 251793.120000
   9282   9296     1   0.15375 251793.120000
   9282   9304     1   0.14316 258236.480000
   9283   9286     1   0.15375 251793.120000
   9283   9295     1   0.14233 265014.560000
   9286   9287     1   0.15375 251793.120000
   9286   9294     1   0.14233 265014.560000
   9287   9288     1   0.15375 251793.120000
   9287   9293     1   0.14233 265014.560000
   9288   9292     1   0.14316 258236.480000
   9288   9304     1   0.14316 258236.480000
   9296   9302     1   0.14233 265014.560000
   9305   9306     1   0.15375 251793.120000
   9305   9319     1   0.15375 251793.120000
   9305   9327     1   0.14316 258236.480000
   9306   9309     1   0.15375 251793.120000
   9306   9318     1   0.14233 265014.560000
   9309   9310     1   0.15375 251793.120000
   9309   9317     1   0.14233 265014.560000
   9310   9311     1   0.15375 251793.120000
   9310   9316     1   0.14233 265014.560000
   9311   9315     1   0.14316 258236.480000
   9311   9327     1   0.14316 258236.480000
   9319   9325     1   0.14233 265014.560000
   9328   9329     1   0.15375 251793.120000
   9328   9342     1   0.15375 251793.120000
   9328   9350     1   0.14316 258236.480000
   9329   9332     1   0.15375 251793.120000
   9329   9341     1   0.14233 265014.560000
   9332   9333     1   0.15375 251793.120000
   9332   9340     1   0.14233 265014.560000
   9333   9334     1   0.15375 251793.120000
   9333   9339     1   0.14233 265014.560000
   9334   9338     1   0.14316 258236.480000
   9334   9350     1   0.14316 258236.480000
   9342   9348     1   0.14233 265014.560000
   9351   9352     1   0.15375 251793.120000
   9351   9365     1   0.15375 251793.120000
   9351   9373     1   0.14316 258236.480000
   9352   9355     1   0.15375 251793.120000
   9352   9364     1   0.14233 265014.560000
   9355   9356     1   0.15375 251793.120000
   9355   9363     1   0.14233 265014.560000
   9356   9357     1   0.15375 251793.120000
   9356   9362     1   0.14233 265014.560000
   9357   9361     1   0.14316 258236.480000
   9357   9373     1   0.14316 258236.480000
   9365   9371     1   0.14233 265014.560000
   9374   9375     1   0.15375 251793.120000
   9374   9388     1   0.15375 251793.120000
   9374   9396     1   0.14316 258236.480000
   9375   9378     1   0.15375 251793.120000
   9375   9387     1   0.14233 265014.560000
   9378   9379     1   0.15375 251793.120000
   9378   9386     1   0.14233 265014.560000
   9379   9380     1   0.15375 251793.120000
   9379   9385     1   0.14233 265014.560000
   9380   9384     1   0.14316 258236.480000
   9380   9396     1   0.14316 258236.480000
   9388   9394     1   0.14233 265014.560000
   9397   9398     1   0.15375 251793.120000
   9397   9411     1   0.15375 251793.120000
   9397   9419     1   0.14316 258236.480000
   9398   9401     1   0.15375 251793.120000
   9398   9410     1   0.14233 265014.560000
   9401   9402     1   0.15375 251793.120000
   9401   9409     1   0.14233 265014.560000
   9402   9403     1   0.15375 251793.120000
   9402   9408     1   0.14233 265014.560000
   9403   9407     1   0.14316 258236.480000
   9403   9419     1   0.14316 258236.480000
   9411   9417     1   0.14233 265014.560000
   9420   9421     1   0.15375 251793.120000
   9420   9434     1   0.15375 251793.120000
   9420   9442     1   0.14316 258236.480000
   9421   9424     1   0.15375 251793.120000
   9421   9433     1   0.14233 265014.560000
   9424   9425     1   0.15375 251793.120000
   9424   9432     1   0.14233 265014.560000
   9425   9426     1   0.15375 251793.120000
   9425   9431     1   0.14233 265014.560000
   9426   9430     1   0.14316 258236.480000
   9426   9442     1   0.14316 258236.480000
   9434   9440     1   0.14233 265014.560000
   9443   9444     1   0.15375 251793.120000
   9443   9457     1   0.15375 251793.120000
   9443   9465     1   0.14316 258236.480000
   9444   9447     1   0.15375 251793.120000
   9444   9456     1   0.14233 265014.560000
   9447   9448     1   0.15375 251793.120000
   9447   9455     1   0.14233 265014.560000
   9448   9449     1   0.15375 251793.120000
   9448   9454     1   0.14233 265014.560000
   9449   9453     1   0.14316 258236.480000
   9449   9465     1   0.14316 258236.480000
   9457   9463     1   0.14233 265014.560000
   9466   9467     1   0.15375 251793.120000
   9466   9480     1   0.15375 251793.120000
   9466   9488     1   0.14316 258236.480000
   9467   9470     1   0.15375 251793.120000
   9467   9479     1   0.14233 265014.560000
   9470   9471     1   0.15375 251793.120000
   9470   9478     1   0.14233 265014.560000
   9471   9472     1   0.15375 251793.120000
   9471   9477     1   0.14233 265014.560000
   9472   9476     1   0.14316 258236.480000
   9472   9488     1   0.14316 258236.480000
   9480   9486     1   0.14233 265014.560000
   9489   9490     1   0.15375 251793.120000
   9489   9503     1   0.15375 251793.120000
   9489   9511     1   0.14316 258236.480000
   9490   9493     1   0.15375 251793.120000
   9490   9502     1   0.14233 265014.560000
   9493   9494     1   0.15375 251793.120000
   9493   9501     1   0.14233 265014.560000
   9494   9495     1   0.15375 251793.120000
   9494   9500     1   0.14233 265014.560000
   9495   9499     1   0.14316 258236.480000
   9495   9511     1   0.14316 258236.480000
   9503   9509     1   0.14233 265014.560000
   9512   9513     1   0.15375 251793.120000
   9512   9526     1   0.15375 251793.120000
   9512   9534     1   0.14316 258236.480000
   9513   9516     1   0.15375 251793.120000
   9513   9525     1   0.14233 265014.560000
   9516   9517     1   0.15375 251793.120000
   9516   9524     1   0.14233 265014.560000
   9517   9518     1   0.15375 251793.120000
   9517   9523     1   0.14233 265014.560000
   9518   9522     1   0.14316 258236.480000
   9518   9534     1   0.14316 258236.480000
   9526   9532     1   0.14233 265014.560000
   9535   9536     1   0.15375 251793.120000
   9535   9549     1   0.15375 251793.120000
   9535   9557     1   0.14316 258236.480000
   9536   9539     1   0.15375 251793.120000
   9536   9548     1   0.14233 265014.560000
   9539   9540     1   0.15375 251793.120000
   9539   9547     1   0.14233 265014.560000
   9540   9541     1   0.15375 251793.120000
   9540   9546     1   0.14233 265014.560000
   9541   9545     1   0.14316 258236.480000
   9541   9557     1   0.14316 258236.480000
   9549   9555     1   0.14233 265014.560000
   9558   9559     1   0.15375 251793.120000
   9558   9572     1   0.15375 251793.120000
   9558   9580     1   0.14316 258236.480000
   9559   9562     1   0.15375 251793.120000
   9559   9571     1   0.14233 265014.560000
   9562   9563     1   0.15375 251793.120000
   9562   9570     1   0.14233 265014.560000
   9563   9564     1   0.15375 251793.120000
   9563   9569     1   0.14233 265014.560000
   9564   9568     1   0.14316 258236.480000
   9564   9580     1   0.14316 258236.480000
   9572   9578     1   0.14233 265014.560000
   9581   9582     1   0.15375 251793.120000
   9581   9595     1   0.15375 251793.120000
   9581   9603     1   0.14316 258236.480000
   9582   9585     1   0.15375 251793.120000
   9582   9594     1   0.14233 265014.560000
   9585   9586     1   0.15375 251793.120000
   9585   9593     1   0.14233 265014.560000
   9586   9587     1   0.15375 251793.120000
   9586   9592     1   0.14233 265014.560000
   9587   9591     1   0.14316 258236.480000
   9587   9603     1   0.14316 258236.480000
   9595   9601     1   0.14233 265014.560000
   9604   9605     1   0.15375 251793.120000
   9604   9618     1   0.15375 251793.120000
   9604   9626     1   0.14316 258236.480000
   9605   9608     1   0.15375 251793.120000
   9605   9617     1   0.14233 265014.560000
   9608   9609     1   0.15375 251793.120000
   9608   9616     1   0.14233 265014.560000
   9609   9610     1   0.15375 251793.120000
   9609   9615     1   0.14233 265014.560000
   9610   9614     1   0.14316 258236.480000
   9610   9626     1   0.14316 258236.480000
   9618   9624     1   0.14233 265014.560000
   9627   9628     1   0.15375 251793.120000
   9627   9641     1   0.15375 251793.120000
   9627   9649     1   0.14316 258236.480000
   9628   9631     1   0.15375 251793.120000
   9628   9640     1   0.14233 265014.560000
   9631   9632     1   0.15375 251793.120000
   9631   9639     1   0.14233 265014.560000
   9632   9633     1   0.15375 251793.120000
   9632   9638     1   0.14233 265014.560000
   9633   9637     1   0.14316 258236.480000
   9633   9649     1   0.14316 258236.480000
   9641   9647     1   0.14233 265014.560000
   9650   9651     1   0.15375 251793.120000
   9650   9664     1   0.15375 251793.120000
   9650   9672     1   0.14316 258236.480000
   9651   9654     1   0.15375 251793.120000
   9651   9663     1   0.14233 265014.560000
   9654   9655     1   0.15375 251793.120000
   9654   9662     1   0.14233 265014.560000
   9655   9656     1   0.15375 251793.120000
   9655   9661     1   0.14233 265014.560000
   9656   9660     1   0.14316 258236.480000
   9656   9672     1   0.14316 258236.480000
   9664   9670     1   0.14233 265014.560000
   9673   9674     1   0.15375 251793.120000
   9673   9687     1   0.15375 251793.120000
   9673   9695     1   0.14316 258236.480000
   9674   9677     1   0.15375 251793.120000
   9674   9686     1   0.14233 265014.560000
   9677   9678     1   0.15375 251793.120000
   9677   9685     1   0.14233 265014.560000
   9678   9679     1   0.15375 251793.120000
   9678   9684     1   0.14233 265014.560000
   9679   9683     1   0.14316 258236.480000
   9679   9695     1   0.14316 258236.480000
   9687   9693     1   0.14233 265014.560000
   9696   9697     1   0.15375 251793.120000
   9696   9710     1   0.15375 251793.120000
   9696   9718     1   0.14316 258236.480000
   9697   9700     1   0.15375 251793.120000
   9697   9709     1   0.14233 265014.560000
   9700   9701     1   0.15375 251793.120000
   9700   9708     1   0.14233 265014.560000
   9701   9702     1   0.15375 251793.120000
   9701   9707     1   0.14233 265014.560000
   9702   9706     1   0.14316 258236.480000
   9702   9718     1   0.14316 258236.480000
   9710   9716     1   0.14233 265014.560000
   9719   9720     1   0.15375 251793.120000
   9719   9733     1   0.15375 251793.120000
   9719   9741     1   0.14316 258236.480000
   9720   9723     1   0.15375 251793.120000
   9720   9732     1   0.14233 265014.560000
   9723   9724     1   0.15375 251793.120000
   9723   9731     1   0.14233 265014.560000
   9724   9725     1   0.15375 251793.120000
   9724   9730     1   0.14233 265014.560000
   9725   9729     1   0.14316 258236.480000
   9725   9741     1   0.14316 258236.480000
   9733   9739     1   0.14233 265014.560000
   9742   9743     1   0.15375 251793.120000
   9742   9756     1   0.15375 251793.120000
   9742   9764     1   0.14316 258236.480000
   9743   9746     1   0.15375 251793.120000
   9743   9755     1   0.14233 265014.560000
   9746   9747     1   0.15375 251793.120000
   9746   9754     1   0.14233 265014.560000
   9747   9748     1   0.15375 251793.120000
   9747   9753     1   0.14233 265014.560000
   9748   9752     1   0.14316 258236.480000
   9748   9764     1   0.14316 258236.480000
   9756   9762     1   0.14233 265014.560000
   9765   9766     1   0.15375 251793.120000
   9765   9779     1   0.15375 251793.120000
   9765   9787     1   0.14316 258236.480000
   9766   9769     1   0.15375 251793.120000
   9766   9778     1   0.14233 265014.560000
   9769   9770     1   0.15375 251793.120000
   9769   9777     1   0.14233 265014.560000
   9770   9771     1   0.15375 251793.120000
   9770   9776     1   0.14233 265014.560000
   9771   9775     1   0.14316 258236.480000
   9771   9787     1   0.14316 258236.480000
   9779   9785     1   0.14233 265014.560000
   9788   9789     1   0.15375 251793.120000
   9788   9802     1   0.15375 251793.120000
   9788   9810     1   0.14316 258236.480000
   9789   9792     1   0.15375 251793.120000
   9789   9801     1   0.14233 265014.560000
   9792   9793     1   0.15375 251793.120000
   9792   9800     1   0.14233 265014.560000
   9793   9794     1   0.15375 251793.120000
   9793   9799     1   0.14233 265014.560000
   9794   9798     1   0.14316 258236.480000
   9794   9810     1   0.14316 258236.480000
   9802   9808     1   0.14233 265014.560000
   9811   9812     1   0.15375 251793.120000
   9811   9825     1   0.15375 251793.120000
   9811   9833     1   0.14316 258236.480000
   9812   9815     1   0.15375 251793.120000
   9812   9824     1   0.14233 265014.560000
   9815   9816     1   0.15375 251793.120000
   9815   9823     1   0.14233 265014.560000
   9816   9817     1   0.15375 251793.120000
   9816   9822     1   0.14233 265014.560000
   9817   9821     1   0.14316 258236.480000
   9817   9833     1   0.14316 258236.480000
   9825   9831     1   0.14233 265014.560000
   9834   9835     1   0.15375 251793.120000
   9834   9848     1   0.15375 251793.120000
   9834   9856     1   0.14316 258236.480000
   9835   9838     1   0.15375 251793.120000
   9835   9847     1   0.14233 265014.560000
   9838   9839     1   0.15375 251793.120000
   9838   9846     1   0.14233 265014.560000
   9839   9840     1   0.15375 251793.120000
   9839   9845     1   0.14233 265014.560000
   9840   9844     1   0.14316 258236.480000
   9840   9856     1   0.14316 258236.480000
   9848   9854     1   0.14233 265014.560000
   9857   9858     1   0.15375 251793.120000
   9857   9871     1   0.15375 251793.120000
   9857   9879     1   0.14316 258236.480000
   9858   9861     1   0.15375 251793.120000
   9858   9870     1   0.14233 265014.560000
   9861   9862     1   0.15375 251793.120000
   9861   9869     1   0.14233 265014.560000
   9862   9863     1   0.15375 251793.120000
   9862   9868     1   0.14233 265014.560000
   9863   9867     1   0.14316 258236.480000
   9863   9879     1   0.14316 258236.480000
   9871   9877     1   0.14233 265014.560000
   9880   9881     1   0.15375 251793.120000
   9880   9894     1   0.15375 251793.120000
   9880   9902     1   0.14316 258236.480000
   9881   9884     1   0.15375 251793.120000
   9881   9893     1   0.14233 265014.560000
   9884   9885     1   0.15375 251793.120000
   9884   9892     1   0.14233 265014.560000
   9885   9886     1   0.15375 251793.120000
   9885   9891     1   0.14233 265014.560000
   9886   9890     1   0.14316 258236.480000
   9886   9902     1   0.14316 258236.480000
   9894   9900     1   0.14233 265014.560000
   9903   9904     1   0.15375 251793.120000
   9903   9917     1   0.15375 251793.120000
   9903   9925     1   0.14316 258236.480000
   9904   9907     1   0.15375 251793.120000
   9904   9916     1   0.14233 265014.560000
   9907   9908     1   0.15375 251793.120000
   9907   9915     1   0.14233 265014.560000
   9908   9909     1   0.15375 251793.120000
   9908   9914     1   0.14233 265014.560000
   9909   9913     1   0.14316 258236.480000
   9909   9925     1   0.14316 258236.480000
   9917   9923     1   0.14233 265014.560000
      2      3     1   0.10969 276646.080000
      2      4     1   0.10969 276646.080000
      5      6     1   0.10969 276646.080000
      5      7     1   0.10969 276646.080000
      8      9     1   0.10969 276646.080000
      8     10     1   0.10969 276646.080000
     11     12     1   0.10969 276646.080000
     11     13     1   0.10969 276646.080000
     14     15     1   0.10969 276646.080000
     14     16     1   0.10969 276646.080000
     17     18     1   0.10969 276646.080000
     17     19     1   0.10969 276646.080000
     20     21     1   0.10969 276646.080000
     20     22     1   0.10969 276646.080000
     23     24     1   0.10969 276646.080000
     23     25     1   0.10969 276646.080000
     26     27     1   0.10969 276646.080000
     26     28     1   0.10969 276646.080000
     30     31     1   0.10969 276646.080000
     30     32     1   0.10969 276646.080000
     33     34     1   0.10969 276646.080000
     33     35     1   0.10969 276646.080000
     36     37     1   0.10969 276646.080000
     36     38     1   0.10969 276646.080000
     39     40     1   0.10969 276646.080000
     39     41     1   0.10969 276646.080000
     42     43     1   0.10969 276646.080000
     42     44     1   0.10969 276646.080000
     45     46     1   0.10969 276646.080000
     45     47     1   0.10969 276646.080000
     48     49     1   0.10969 276646.080000
     48     50     1   0.10969 276646.080000
     51     52     1   0.10969 276646.080000
     51     53     1   0.10969 276646.080000
     54     55     1   0.10969 276646.080000
     54     56     1   0.10969 276646.080000
     59     60     1   0.10969 276646.080000
     59     61     1   0.10969 276646.080000
     62     63     1   0.10969 276646.080000
     62     64     1   0.10969 276646.080000
     65     66     1   0.10969 276646.080000
     65     67     1   0.10969 276646.080000
     68     69     1   0.10969 276646.080000
     68     70     1   0.10969 276646.080000
     71     72     1   0.10969 276646.080000
     71     73     1   0.10969 276646.080000
     74     75     1   0.10969 276646.080000
     74     76     1   0.10969 276646.080000
     77     78     1   0.10969 276646.080000
     77     79     1   0.10969 276646.080000
     80     81     1   0.10969 276646.080000
     80     82     1   0.10969 276646.080000
     83     84     1   0.10969 276646.080000
     83     85     1   0.10969 276646.080000
     88     89     1   0.10969 276646.080000
     88     90     1   0.10969 276646.080000
     91     92     1   0.10969 276646.080000
     91     93     1   0.10969 276646.080000
     94     95     1   0.10969 276646.080000
     94     96     1   0.10969 276646.080000
     97     98     1   0.10969 276646.080000
     97     99     1   0.10969 276646.080000
    100    101     1   0.10969 276646.080000
    100    102     1   0.10969 276646.080000
    103    104     1   0.10969 276646.080000
    103    105     1   0.10969 276646.080000
    106    107     1   0.10969 276646.080000
    106    108     1   0.10969 276646.080000
    109    110     1   0.10969 276646.080000
    109    111     1   0.10969 276646.080000
    112    113     1   0.10969 276646.080000
    112    114     1   0.10969 276646.080000
    117    118     1   0.10969 276646.080000
    117    119     1   0.10969 276646.080000
    120    121     1   0.10969 276646.080000
    120    122     1   0.10969 276646.080000
    123    124     1   0.10969 276646.080000
    123    125     1   0.10969 276646.080000
    126    127     1   0.10969 276646.080000
    126    128     1   0.10969 276646.080000
    129    130     1   0.10969 276646.080000
    129    131     1   0.10969 276646.080000
    132    133     1   0.10969 276646.080000
    132    134     1   0.10969 276646.080000
    135    136     1   0.10969 276646.080000
    135    137     1   0.10969 276646.080000
    138    139     1   0.10969 276646.080000
    138    140     1   0.10969 276646.080000
    141    142     1   0.10969 276646.080000
    141    143     1   0.10969 276646.080000
    146    147     1   0.10969 276646.080000
    146    148     1   0.10969 276646.080000
    149    150     1   0.10969 276646.080000
    149    151     1   0.10969 276646.080000
    152    153     1   0.10969 276646.080000
    152    154     1   0.10969 276646.080000
    155    156     1   0.10969 276646.080000
    155    157     1   0.10969 276646.080000
    158    159     1   0.10969 276646.080000
    158    160     1   0.10969 276646.080000
    161    162     1   0.10969 276646.080000
    161    163     1   0.10969 276646.080000
    164    165     1   0.10969 276646.080000
    164    166     1   0.10969 276646.080000
    167    168     1   0.10969 276646.080000
    167    169     1   0.10969 276646.080000
    170    171     1   0.10969 276646.080000
    170    172     1   0.10969 276646.080000
    175    176     1   0.10969 276646.080000
    175    177     1   0.10969 276646.080000
    178    179     1   0.10969 276646.080000
    178    180     1   0.10969 276646.080000
    181    182     1   0.10969 276646.080000
    181    183     1   0.10969 276646.080000
    184    185     1   0.10969 276646.080000
    184    186     1   0.10969 276646.080000
    187    188     1   0.10969 276646.080000
    187    189     1   0.10969 276646.080000
    190    191     1   0.10969 276646.080000
    190    192     1   0.10969 276646.080000
    193    194     1   0.10969 276646.080000
    193    195     1   0.10969 276646.080000
    196    197     1   0.10969 276646.080000
    196    198     1   0.10969 276646.080000
    199    200     1   0.10969 276646.080000
    199    201     1   0.10969 276646.080000
    204    205     1   0.10969 276646.080000
    204    206     1   0.10969 276646.080000
    207    208     1   0.10969 276646.080000
    207    209     1   0.10969 276646.080000
    210    211     1   0.10969 276646.080000
    210    212     1   0.10969 276646.080000
    213    214     1   0.10969 276646.080000
    213    215     1   0.10969 276646.080000
    216    217     1   0.10969 276646.080000
    216    218     1   0.10969 276646.080000
    219    220     1   0.10969 276646.080000
    219    221     1   0.10969 276646.080000
    222    223     1   0.10969 276646.080000
    222    224     1   0.10969 276646.080000
    225    226     1   0.10969 276646.080000
    225    227     1   0.10969 276646.080000
    228    229     1   0.10969 276646.080000
    228    230     1   0.10969 276646.080000
    233    234     1   0.10969 276646.080000
    233    235     1   0.10969 276646.080000
    236    237     1   0.10969 276646.080000
    236    238     1   0.10969 276646.080000
    239    240     1   0.10969 276646.080000
    239    241     1   0.10969 276646.080000
    242    243     1   0.10969 276646.080000
    242    244     1   0.10969 276646.080000
    245    246     1   0.10969 276646.080000
    245    247     1   0.10969 276646.080000
    248    249     1   0.10969 276646.080000
    248    250     1   0.10969 276646.080000
    251    252     1   0.10969 276646.080000
    251    253     1   0.10969 276646.080000
    254    255     1   0.10969 276646.080000
    254    256     1   0.10969 276646.080000
    257    258     1   0.10969 276646.080000
    257    259     1   0.10969 276646.080000
    262    263     1   0.10969 276646.080000
    262    264     1   0.10969 276646.080000
    265    266     1   0.10969 276646.080000
    265    267     1   0.10969 276646.080000
    268    269     1   0.10969 276646.080000
    268    270     1   0.10969 276646.080000
    271    272     1   0.10969 276646.080000
    271    273     1   0.10969 276646.080000
    274    275     1   0.10969 276646.080000
    274    276     1   0.10969 276646.080000
    277    278     1   0.10969 276646.080000
    277    279     1   0.10969 276646.080000
    280    281     1   0.10969 276646.080000
    280    282     1   0.10969 276646.080000
    283    284     1   0.10969 276646.080000
    283    285     1   0.10969 276646.080000
    286    287     1   0.10969 276646.080000
    286    288     1   0.10969 276646.080000
    291    292     1   0.10969 276646.080000
    291    293     1   0.10969 276646.080000
    294    295     1   0.10969 276646.080000
    294    296     1   0.10969 276646.080000
    297    298     1   0.10969 276646.080000
    297    299     1   0.10969 276646.080000
    300    301     1   0.10969 276646.080000
    300    302     1   0.10969 276646.080000
    303    304     1   0.10969 276646.080000
    303    305     1   0.10969 276646.080000
    306    307     1   0.10969 276646.080000
    306    308     1   0.10969 276646.080000
    309    310     1   0.10969 276646.080000
    309    311     1   0.10969 276646.080000
    312    313     1   0.10969 276646.080000
    312    314     1   0.10969 276646.080000
    315    316     1   0.10969 276646.080000
    315    317     1   0.10969 276646.080000
    320    321     1   0.10969 276646.080000
    320    322     1   0.10969 276646.080000
    323    324     1   0.10969 276646.080000
    323    325     1   0.10969 276646.080000
    326    327     1   0.10969 276646.080000
    326    328     1   0.10969 276646.080000
    329    330     1   0.10969 276646.080000
    329    331     1   0.10969 276646.080000
    332    333     1   0.10969 276646.080000
    332    334     1   0.10969 276646.080000
    335    336     1   0.10969 276646.080000
    335    337     1   0.10969 276646.080000
    338    339     1   0.10969 276646.080000
    338    340     1   0.10969 276646.080000
    341    342     1   0.10969 276646.080000
    341    343     1   0.10969 276646.080000
    344    345     1   0.10969 276646.080000
    344    346     1   0.10969 276646.080000
    349    350     1   0.10969 276646.080000
    349    351     1   0.10969 276646.080000
    352    353     1   0.10969 276646.080000
    352    354     1   0.10969 276646.080000
    355    356     1   0.10969 276646.080000
    355    357     1   0.10969 276646.080000
    358    359     1   0.10969 276646.080000
    358    360     1   0.10969 276646.080000
    361    362     1   0.10969 276646.080000
    361    363     1   0.10969 276646.080000
    364    365     1   0.10969 276646.080000
    364    366     1   0.10969 276646.080000
    367    368     1   0.10969 276646.080000
    367    369     1   0.10969 276646.080000
    370    371     1   0.10969 276646.080000
    370    372     1   0.10969 276646.080000
    373    374     1   0.10969 276646.080000
    373    375     1   0.10969 276646.080000
    378    379     1   0.10969 276646.080000
    378    380     1   0.10969 276646.080000
    381    382     1   0.10969 276646.080000
    381    383     1   0.10969 276646.080000
    384    385     1   0.10969 276646.080000
    384    386     1   0.10969 276646.080000
    387    388     1   0.10969 276646.080000
    387    389     1   0.10969 276646.080000
    390    391     1   0.10969 276646.080000
    390    392     1   0.10969 276646.080000
    393    394     1   0.10969 276646.080000
    393    395     1   0.10969 276646.080000
    396    397     1   0.10969 276646.080000
    396    398     1   0.10969 276646.080000
    399    400     1   0.10969 276646.080000
    399    401     1   0.10969 276646.080000
    402    403     1   0.10969 276646.080000
    402    404     1   0.10969 276646.080000
    407    408     1   0.10969 276646.080000
    407    409     1   0.10969 276646.080000
    410    411     1   0.10969 276646.080000
    410    412     1   0.10969 276646.080000
    413    414     1   0.10969 276646.080000
    413    415     1   0.10969 276646.080000
    416    417     1   0.10969 276646.080000
    416    418     1   0.10969 276646.080000
    419    420     1   0.10969 276646.080000
    419    421     1   0.10969 276646.080000
    422    423     1   0.10969 276646.080000
    422    424     1   0.10969 276646.080000
    425    426     1   0.10969 276646.080000
    425    427     1   0.10969 276646.080000
    428    429     1   0.10969 276646.080000
    428    430     1   0.10969 276646.080000
    431    432     1   0.10969 276646.080000
    431    433     1   0.10969 276646.080000
    436    437     1   0.10969 276646.080000
    436    438     1   0.10969 276646.080000
    439    440     1   0.10969 276646.080000
    439    441     1   0.10969 276646.080000
    442    443     1   0.10969 276646.080000
    442    444     1   0.10969 276646.080000
    445    446     1   0.10969 276646.080000
    445    447     1   0.10969 276646.080000
    448    449     1   0.10969 276646.080000
    448    450     1   0.10969 276646.080000
    451    452     1   0.10969 276646.080000
    451    453     1   0.10969 276646.080000
    454    455     1   0.10969 276646.080000
    454    456     1   0.10969 276646.080000
    457    458     1   0.10969 276646.080000
    457    459     1   0.10969 276646.080000
    460    461     1   0.10969 276646.080000
    460    462     1   0.10969 276646.080000
    465    466     1   0.10969 276646.080000
    465    467     1   0.10969 276646.080000
    468    469     1   0.10969 276646.080000
    468    470     1   0.10969 276646.080000
    471    472     1   0.10969 276646.080000
    471    473     1   0.10969 276646.080000
    474    475     1   0.10969 276646.080000
    474    476     1   0.10969 276646.080000
    477    478     1   0.10969 276646.080000
    477    479     1   0.10969 276646.080000
    480    481     1   0.10969 276646.080000
    480    482     1   0.10969 276646.080000
    483    484     1   0.10969 276646.080000
    483    485     1   0.10969 276646.080000
    486    487     1   0.10969 276646.080000
    486    488     1   0.10969 276646.080000
    489    490     1   0.10969 276646.080000
    489    491     1   0.10969 276646.080000
    494    495     1   0.10969 276646.080000
    494    496     1   0.10969 276646.080000
    497    498     1   0.10969 276646.080000
    497    499     1   0.10969 276646.080000
    500    501     1   0.10969 276646.080000
    500    502     1   0.10969 276646.080000
    503    504     1   0.10969 276646.080000
    503    505     1   0.10969 276646.080000
    506    507     1   0.10969 276646.080000
    506    508     1   0.10969 276646.080000
    509    510     1   0.10969 276646.080000
    509    511     1   0.10969 276646.080000
    512    513     1   0.10969 276646.080000
    512    514     1   0.10969 276646.080000
    515    516     1   0.10969 276646.080000
    515    517     1   0.10969 276646.080000
    518    519     1   0.10969 276646.080000
    518    520     1   0.10969 276646.080000
    523    524     1   0.10969 276646.080000
    523    525     1   0.10969 276646.080000
    526    527     1   0.10969 276646.080000
    526    528     1   0.10969 276646.080000
    529    530     1   0.10969 276646.080000
    529    531     1   0.10969 276646.080000
    532    533     1   0.10969 276646.080000
    532    534     1   0.10969 276646.080000
    535    536     1   0.10969 276646.080000
    535    537     1   0.10969 276646.080000
    538    539     1   0.10969 276646.080000
    538    540     1   0.10969 276646.080000
    541    542     1   0.10969 276646.080000
    541    543     1   0.10969 276646.080000
    544    545     1   0.10969 276646.080000
    544    546     1   0.10969 276646.080000
    547    548     1   0.10969 276646.080000
    547    549     1   0.10969 276646.080000
    552    553     1   0.10969 276646.080000
    552    554     1   0.10969 276646.080000
    555    556     1   0.10969 276646.080000
    555    557     1   0.10969 276646.080000
    558    559     1   0.10969 276646.080000
    558    560     1   0.10969 276646.080000
    561    562     1   0.10969 276646.080000
    561    563     1   0.10969 276646.080000
    564    565     1   0.10969 276646.080000
    564    566     1   0.10969 276646.080000
    567    568     1   0.10969 276646.080000
    567    569     1   0.10969 276646.080000
    570    571     1   0.10969 276646.080000
    570    572     1   0.10969 276646.080000
    573    574     1   0.10969 276646.080000
    573    575     1   0.10969 276646.080000
    576    577     1   0.10969 276646.080000
    576    578     1   0.10969 276646.080000
    581    582     1   0.10969 276646.080000
    581    583     1   0.10969 276646.080000
    584    585     1   0.10969 276646.080000
    584    586     1   0.10969 276646.080000
    587    588     1   0.10969 276646.080000
    587    589     1   0.10969 276646.080000
    590    591     1   0.10969 276646.080000
    590    592     1   0.10969 276646.080000
    593    594     1   0.10969 276646.080000
    593    595     1   0.10969 276646.080000
    596    597     1   0.10969 276646.080000
    596    598     1   0.10969 276646.080000
    599    600     1   0.10969 276646.080000
    599    601     1   0.10969 276646.080000
    602    603     1   0.10969 276646.080000
    602    604     1   0.10969 276646.080000
    605    606     1   0.10969 276646.080000
    605    607     1   0.10969 276646.080000
    610    611     1   0.10969 276646.080000
    610    612     1   0.10969 276646.080000
    613    614     1   0.10969 276646.080000
    613    615     1   0.10969 276646.080000
    616    617     1   0.10969 276646.080000
    616    618     1   0.10969 276646.080000
    619    620     1   0.10969 276646.080000
    619    621     1   0.10969 276646.080000
    622    623     1   0.10969 276646.080000
    622    624     1   0.10969 276646.080000
    625    626     1   0.10969 276646.080000
    625    627     1   0.10969 276646.080000
    628    629     1   0.10969 276646.080000
    628    630     1   0.10969 276646.080000
    631    632     1   0.10969 276646.080000
    631    633     1   0.10969 276646.080000
    634    635     1   0.10969 276646.080000
    634    636     1   0.10969 276646.080000
    639    640     1   0.10969 276646.080000
    639    641     1   0.10969 276646.080000
    642    643     1   0.10969 276646.080000
    642    644     1   0.10969 276646.080000
    645    646     1   0.10969 276646.080000
    645    647     1   0.10969 276646.080000
    648    649     1   0.10969 276646.080000
    648    650     1   0.10969 276646.080000
    651    652     1   0.10969 276646.080000
    651    653     1   0.10969 276646.080000
    654    655     1   0.10969 276646.080000
    654    656     1   0.10969 276646.080000
    657    658     1   0.10969 276646.080000
    657    659     1   0.10969 276646.080000
    660    661     1   0.10969 276646.080000
    660    662     1   0.10969 276646.080000
    663    664     1   0.10969 276646.080000
    663    665     1   0.10969 276646.080000
    668    669     1   0.10969 276646.080000
    668    670     1   0.10969 276646.080000
    671    672     1   0.10969 276646.080000
    671    673     1   0.10969 276646.080000
    674    675     1   0.10969 276646.080000
    674    676     1   0.10969 276646.080000
    677    678     1   0.10969 276646.080000
    677    679     1   0.10969 276646.080000
    680    681     1   0.10969 276646.080000
    680    682     1   0.10969 276646.080000
    683    684     1   0.10969 276646.080000
    683    685     1   0.10969 276646.080000
    686    687     1   0.10969 276646.080000
    686    688     1   0.10969 276646.080000
    689    690     1   0.10969 276646.080000
    689    691     1   0.10969 276646.080000
    692    693     1   0.10969 276646.080000
    692    694     1   0.10969 276646.080000
    697    698     1   0.10969 276646.080000
    697    699     1   0.10969 276646.080000
    700    701     1   0.10969 276646.080000
    700    702     1   0.10969 276646.080000
    703    704     1   0.10969 276646.080000
    703    705     1   0.10969 276646.080000
    706    707     1   0.10969 276646.080000
    706    708     1   0.10969 276646.080000
    709    710     1   0.10969 276646.080000
    709    711     1   0.10969 276646.080000
    712    713     1   0.10969 276646.080000
    712    714     1   0.10969 276646.080000
    715    716     1   0.10969 276646.080000
    715    717     1   0.10969 276646.080000
    718    719     1   0.10969 276646.080000
    718    720     1   0.10969 276646.080000
    721    722     1   0.10969 276646.080000
    721    723     1   0.10969 276646.080000
    726    727     1   0.10969 276646.080000
    726    728     1   0.10969 276646.080000
    729    730     1   0.10969 276646.080000
    729    731     1   0.10969 276646.080000
    732    733     1   0.10969 276646.080000
    732    734     1   0.10969 276646.080000
    735    736     1   0.10969 276646.080000
    735    737     1   0.10969 276646.080000
    738    739     1   0.10969 276646.080000
    738    740     1   0.10969 276646.080000
    741    742     1   0.10969 276646.080000
    741    743     1   0.10969 276646.080000
    744    745     1   0.10969 276646.080000
    744    746     1   0.10969 276646.080000
    747    748     1   0.10969 276646.080000
    747    749     1   0.10969 276646.080000
    750    751     1   0.10969 276646.080000
    750    752     1   0.10969 276646.080000
    755    756     1   0.10969 276646.080000
    755    757     1   0.10969 276646.080000
    758    759     1   0.10969 276646.080000
    758    760     1   0.10969 276646.080000
    761    762     1   0.10969 276646.080000
    761    763     1   0.10969 276646.080000
    764    765     1   0.10969 276646.080000
    764    766     1   0.10969 276646.080000
    767    768     1   0.10969 276646.080000
    767    769     1   0.10969 276646.080000
    770    771     1   0.10969 276646.080000
    770    772     1   0.10969 276646.080000
    773    774     1   0.10969 276646.080000
    773    775     1   0.10969 276646.080000
    776    777     1   0.10969 276646.080000
    776    778     1   0.10969 276646.080000
    779    780     1   0.10969 276646.080000
    779    781     1   0.10969 276646.080000
    784    785     1   0.10969 276646.080000
    784    786     1   0.10969 276646.080000
    787    788     1   0.10969 276646.080000
    787    789     1   0.10969 276646.080000
    790    791     1   0.10969 276646.080000
    790    792     1   0.10969 276646.080000
    793    794     1   0.10969 276646.080000
    793    795     1   0.10969 276646.080000
    796    797     1   0.10969 276646.080000
    796    798     1   0.10969 276646.080000
    799    800     1   0.10969 276646.080000
    799    801     1   0.10969 276646.080000
    802    803     1   0.10969 276646.080000
    802    804     1   0.10969 276646.080000
    805    806     1   0.10969 276646.080000
    805    807     1   0.10969 276646.080000
    808    809     1   0.10969 276646.080000
    808    810     1   0.10969 276646.080000
    813    814     1   0.10969 276646.080000
    813    815     1   0.10969 276646.080000
    816    817     1   0.10969 276646.080000
    816    818     1   0.10969 276646.080000
    819    820     1   0.10969 276646.080000
    819    821     1   0.10969 276646.080000
    822    823     1   0.10969 276646.080000
    822    824     1   0.10969 276646.080000
    825    826     1   0.10969 276646.080000
    825    827     1   0.10969 276646.080000
    828    829     1   0.10969 276646.080000
    828    830     1   0.10969 276646.080000
    831    832     1   0.10969 276646.080000
    831    833     1   0.10969 276646.080000
    834    835     1   0.10969 276646.080000
    834    836     1   0.10969 276646.080000
    837    838     1   0.10969 276646.080000
    837    839     1   0.10969 276646.080000
    842    843     1   0.10969 276646.080000
    842    844     1   0.10969 276646.080000
    845    846     1   0.10969 276646.080000
    845    847     1   0.10969 276646.080000
    848    849     1   0.10969 276646.080000
    848    850     1   0.10969 276646.080000
    851    852     1   0.10969 276646.080000
    851    853     1   0.10969 276646.080000
    854    855     1   0.10969 276646.080000
    854    856     1   0.10969 276646.080000
    857    858     1   0.10969 276646.080000
    857    859     1   0.10969 276646.080000
    860    861     1   0.10969 276646.080000
    860    862     1   0.10969 276646.080000
    863    864     1   0.10969 276646.080000
    863    865     1   0.10969 276646.080000
    866    867     1   0.10969 276646.080000
    866    868     1   0.10969 276646.080000
    871    872     1   0.10969 276646.080000
    871    873     1   0.10969 276646.080000
    874    875     1   0.10969 276646.080000
    874    876     1   0.10969 276646.080000
    877    878     1   0.10969 276646.080000
    877    879     1   0.10969 276646.080000
    880    881     1   0.10969 276646.080000
    880    882     1   0.10969 276646.080000
    883    884     1   0.10969 276646.080000
    883    885     1   0.10969 276646.080000
    886    887     1   0.10969 276646.080000
    886    888     1   0.10969 276646.080000
    889    890     1   0.10969 276646.080000
    889    891     1   0.10969 276646.080000
    892    893     1   0.10969 276646.080000
    892    894     1   0.10969 276646.080000
    895    896     1   0.10969 276646.080000
    895    897     1   0.10969 276646.080000
    900    901     1   0.10969 276646.080000
    900    902     1   0.10969 276646.080000
    903    904     1   0.10969 276646.080000
    903    905     1   0.10969 276646.080000
    906    907     1   0.10969 276646.080000
    906    908     1   0.10969 276646.080000
    909    910     1   0.10969 276646.080000
    909    911     1   0.10969 276646.080000
    912    913     1   0.10969 276646.080000
    912    914     1   0.10969 276646.080000
    915    916     1   0.10969 276646.080000
    915    917     1   0.10969 276646.080000
    918    919     1   0.10969 276646.080000
    918    920     1   0.10969 276646.080000
    921    922     1   0.10969 276646.080000
    921    923     1   0.10969 276646.080000
    924    925     1   0.10969 276646.080000
    924    926     1   0.10969 276646.080000
    929    930     1   0.10969 276646.080000
    929    931     1   0.10969 276646.080000
    932    933     1   0.10969 276646.080000
    932    934     1   0.10969 276646.080000
    935    936     1   0.10969 276646.080000
    935    937     1   0.10969 276646.080000
    938    939     1   0.10969 276646.080000
    938    940     1   0.10969 276646.080000
    941    942     1   0.10969 276646.080000
    941    943     1   0.10969 276646.080000
    944    945     1   0.10969 276646.080000
    944    946     1   0.10969 276646.080000
    947    948     1   0.10969 276646.080000
    947    949     1   0.10969 276646.080000
    950    951     1   0.10969 276646.080000
    950    952     1   0.10969 276646.080000
    953    954     1   0.10969 276646.080000
    953    955     1   0.10969 276646.080000
    958    959     1   0.10969 276646.080000
    958    960     1   0.10969 276646.080000
    961    962     1   0.10969 276646.080000
    961    963     1   0.10969 276646.080000
    964    965     1   0.10969 276646.080000
    964    966     1   0.10969 276646.080000
    967    968     1   0.10969 276646.080000
    967    969     1   0.10969 276646.080000
    970    971     1   0.10969 276646.080000
    970    972     1   0.10969 276646.080000
    973    974     1   0.10969 276646.080000
    973    975     1   0.10969 276646.080000
    976    977     1   0.10969 276646.080000
    976    978     1   0.10969 276646.080000
    979    980     1   0.10969 276646.080000
    979    981     1   0.10969 276646.080000
    982    983     1   0.10969 276646.080000
    982    984     1   0.10969 276646.080000
    987    988     1   0.10969 276646.080000
    987    989     1   0.10969 276646.080000
    990    991     1   0.10969 276646.080000
    990    992     1   0.10969 276646.080000
    993    994     1   0.10969 276646.080000
    993    995     1   0.10969 276646.080000
    996    997     1   0.10969 276646.080000
    996    998     1   0.10969 276646.080000
    999   1000     1   0.10969 276646.080000
    999   1001     1   0.10969 276646.080000
   1002   1003     1   0.10969 276646.080000
   1002   1004     1   0.10969 276646.080000
   1005   1006     1   0.10969 276646.080000
   1005   1007     1   0.10969 276646.080000
   1008   1009     1   0.10969 276646.080000
   1008   1010     1   0.10969 276646.080000
   1011   1012     1   0.10969 276646.080000
   1011   1013     1   0.10969 276646.080000
   1016   1017     1   0.10969 276646.080000
   1016   1018     1   0.10969 276646.080000
   1019   1020     1   0.10969 276646.080000
   1019   1021     1   0.10969 276646.080000
   1022   1023     1   0.10969 276646.080000
   1022   1024     1   0.10969 276646.080000
   1025   1026     1   0.10969 276646.080000
   1025   1027     1   0.10969 276646.080000
   1028   1029     1   0.10969 276646.080000
   1028   1030     1   0.10969 276646.080000
   1031   1032     1   0.10969 276646.080000
   1031   1033     1   0.10969 276646.080000
   1034   1035     1   0.10969 276646.080000
   1034   1036     1   0.10969 276646.080000
   1037   1038     1   0.10969 276646.080000
   1037   1039     1   0.10969 276646.080000
   1040   1041     1   0.10969 276646.080000
   1040   1042     1   0.10969 276646.080000
   1045   1046     1   0.10969 276646.080000
   1045   1047     1   0.10969 276646.080000
   1048   1049     1   0.10969 276646.080000
   1048   1050     1   0.10969 276646.080000
   1051   1052     1   0.10969 276646.080000
   1051   1053     1   0.10969 276646.080000
   1054   1055     1   0.10969 276646.080000
   1054   1056     1   0.10969 276646.080000
   1057   1058     1   0.10969 276646.080000
   1057   1059     1   0.10969 276646.080000
   1060   1061     1   0.10969 276646.080000
   1060   1062     1   0.10969 276646.080000
   1063   1064     1   0.10969 276646.080000
   1063   1065     1   0.10969 276646.080000
   1066   1067     1   0.10969 276646.080000
   1066   1068     1   0.10969 276646.080000
   1069   1070     1   0.10969 276646.080000
   1069   1071     1   0.10969 276646.080000
   1074   1075     1   0.10969 276646.080000
   1074   1076     1   0.10969 276646.080000
   1077   1078     1   0.10969 276646.080000
   1077   1079     1   0.10969 276646.080000
   1080   1081     1   0.10969 276646.080000
   1080   1082     1   0.10969 276646.080000
   1083   1084     1   0.10969 276646.080000
   1083   1085     1   0.10969 276646.080000
   1086   1087     1   0.10969 276646.080000
   1086   1088     1   0.10969 276646.080000
   1089   1090     1   0.10969 276646.080000
   1089   1091     1   0.10969 276646.080000
   1092   1093     1   0.10969 276646.080000
   1092   1094     1   0.10969 276646.080000
   1095   1096     1   0.10969 276646.080000
   1095   1097     1   0.10969 276646.080000
   1098   1099     1   0.10969 276646.080000
   1098   1100     1   0.10969 276646.080000
   1103   1104     1   0.10969 276646.080000
   1103   1105     1   0.10969 276646.080000
   1106   1107     1   0.10969 276646.080000
   1106   1108     1   0.10969 276646.080000
   1109   1110     1   0.10969 276646.080000
   1109   1111     1   0.10969 276646.080000
   1112   1113     1   0.10969 276646.080000
   1112   1114     1   0.10969 276646.080000
   1115   1116     1   0.10969 276646.080000
   1115   1117     1   0.10969 276646.080000
   1118   1119     1   0.10969 276646.080000
   1118   1120     1   0.10969 276646.080000
   1121   1122     1   0.10969 276646.080000
   1121   1123     1   0.10969 276646.080000
   1124   1125     1   0.10969 276646.080000
   1124   1126     1   0.10969 276646.080000
   1127   1128     1   0.10969 276646.080000
   1127   1129     1   0.10969 276646.080000
   1132   1133     1   0.10969 276646.080000
   1132   1134     1   0.10969 276646.080000
   1135   1136     1   0.10969 276646.080000
   1135   1137     1   0.10969 276646.080000
   1138   1139     1   0.10969 276646.080000
   1138   1140     1   0.10969 276646.080000
   1141   1142     1   0.10969 276646.080000
   1141   1143     1   0.10969 276646.080000
   1144   1145     1   0.10969 276646.080000
   1144   1146     1   0.10969 276646.080000
   1147   1148     1   0.10969 276646.080000
   1147   1149     1   0.10969 276646.080000
   1150   1151     1   0.10969 276646.080000
   1150   1152     1   0.10969 276646.080000
   1153   1154     1   0.10969 276646.080000
   1153   1155     1   0.10969 276646.080000
   1156   1157     1   0.10969 276646.080000
   1156   1158     1   0.10969 276646.080000
   1161   1162     1   0.10969 276646.080000
   1161   1163     1   0.10969 276646.080000
   1164   1165     1   0.10969 276646.080000
   1164   1166     1   0.10969 276646.080000
   1167   1168     1   0.10969 276646.080000
   1167   1169     1   0.10969 276646.080000
   1170   1171     1   0.10969 276646.080000
   1170   1172     1   0.10969 276646.080000
   1173   1174     1   0.10969 276646.080000
   1173   1175     1   0.10969 276646.080000
   1176   1177     1   0.10969 276646.080000
   1176   1178     1   0.10969 276646.080000
   1179   1180     1   0.10969 276646.080000
   1179   1181     1   0.10969 276646.080000
   1182   1183     1   0.10969 276646.080000
   1182   1184     1   0.10969 276646.080000
   1185   1186     1   0.10969 276646.080000
   1185   1187     1   0.10969 276646.080000
   1190   1191     1   0.10969 276646.080000
   1190   1192     1   0.10969 276646.080000
   1193   1194     1   0.10969 276646.080000
   1193   1195     1   0.10969 276646.080000
   1196   1197     1   0.10969 276646.080000
   1196   1198     1   0.10969 276646.080000
   1199   1200     1   0.10969 276646.080000
   1199   1201     1   0.10969 276646.080000
   1202   1203     1   0.10969 276646.080000
   1202   1204     1   0.10969 276646.080000
   1205   1206     1   0.10969 276646.080000
   1205   1207     1   0.10969 276646.080000
   1208   1209     1   0.10969 276646.080000
   1208   1210     1   0.10969 276646.080000
   1211   1212     1   0.10969 276646.080000
   1211   1213     1   0.10969 276646.080000
   1214   1215     1   0.10969 276646.080000
   1214   1216     1   0.10969 276646.080000
   1219   1220     1   0.10969 276646.080000
   1219   1221     1   0.10969 276646.080000
   1222   1223     1   0.10969 276646.080000
   1222   1224     1   0.10969 276646.080000
   1225   1226     1   0.10969 276646.080000
   1225   1227     1   0.10969 276646.080000
   1228   1229     1   0.10969 276646.080000
   1228   1230     1   0.10969 276646.080000
   1231   1232     1   0.10969 276646.080000
   1231   1233     1   0.10969 276646.080000
   1234   1235     1   0.10969 276646.080000
   1234   1236     1   0.10969 276646.080000
   1237   1238     1   0.10969 276646.080000
   1237   1239     1   0.10969 276646.080000
   1240   1241     1   0.10969 276646.080000
   1240   1242     1   0.10969 276646.080000
   1243   1244     1   0.10969 276646.080000
   1243   1245     1   0.10969 276646.080000
   1248   1249     1   0.10969 276646.080000
   1248   1250     1   0.10969 276646.080000
   1251   1252     1   0.10969 276646.080000
   1251   1253     1   0.10969 276646.080000
   1254   1255     1   0.10969 276646.080000
   1254   1256     1   0.10969 276646.080000
   1257   1258     1   0.10969 276646.080000
   1257   1259     1   0.10969 276646.080000
   1260   1261     1   0.10969 276646.080000
   1260   1262     1   0.10969 276646.080000
   1263   1264     1   0.10969 276646.080000
   1263   1265     1   0.10969 276646.080000
   1266   1267     1   0.10969 276646.080000
   1266   1268     1   0.10969 276646.080000
   1269   1270     1   0.10969 276646.080000
   1269   1271     1   0.10969 276646.080000
   1272   1273     1   0.10969 276646.080000
   1272   1274     1   0.10969 276646.080000
   1277   1278     1   0.10969 276646.080000
   1277   1279     1   0.10969 276646.080000
   1280   1281     1   0.10969 276646.080000
   1280   1282     1   0.10969 276646.080000
   1283   1284     1   0.10969 276646.080000
   1283   1285     1   0.10969 276646.080000
   1286   1287     1   0.10969 276646.080000
   1286   1288     1   0.10969 276646.080000
   1289   1290     1   0.10969 276646.080000
   1289   1291     1   0.10969 276646.080000
   1292   1293     1   0.10969 276646.080000
   1292   1294     1   0.10969 276646.080000
   1295   1296     1   0.10969 276646.080000
   1295   1297     1   0.10969 276646.080000
   1298   1299     1   0.10969 276646.080000
   1298   1300     1   0.10969 276646.080000
   1301   1302     1   0.10969 276646.080000
   1301   1303     1   0.10969 276646.080000
   1306   1307     1   0.10969 276646.080000
   1306   1308     1   0.10969 276646.080000
   1309   1310     1   0.10969 276646.080000
   1309   1311     1   0.10969 276646.080000
   1312   1313     1   0.10969 276646.080000
   1312   1314     1   0.10969 276646.080000
   1315   1316     1   0.10969 276646.080000
   1315   1317     1   0.10969 276646.080000
   1318   1319     1   0.10969 276646.080000
   1318   1320     1   0.10969 276646.080000
   1321   1322     1   0.10969 276646.080000
   1321   1323     1   0.10969 276646.080000
   1324   1325     1   0.10969 276646.080000
   1324   1326     1   0.10969 276646.080000
   1327   1328     1   0.10969 276646.080000
   1327   1329     1   0.10969 276646.080000
   1330   1331     1   0.10969 276646.080000
   1330   1332     1   0.10969 276646.080000
   1335   1336     1   0.10969 276646.080000
   1335   1337     1   0.10969 276646.080000
   1338   1339     1   0.10969 276646.080000
   1338   1340     1   0.10969 276646.080000
   1341   1342     1   0.10969 276646.080000
   1341   1343     1   0.10969 276646.080000
   1344   1345     1   0.10969 276646.080000
   1344   1346     1   0.10969 276646.080000
   1347   1348     1   0.10969 276646.080000
   1347   1349     1   0.10969 276646.080000
   1350   1351     1   0.10969 276646.080000
   1350   1352     1   0.10969 276646.080000
   1353   1354     1   0.10969 276646.080000
   1353   1355     1   0.10969 276646.080000
   1356   1357     1   0.10969 276646.080000
   1356   1358     1   0.10969 276646.080000
   1359   1360     1   0.10969 276646.080000
   1359   1361     1   0.10969 276646.080000
   1364   1365     1   0.10969 276646.080000
   1364   1366     1   0.10969 276646.080000
   1367   1368     1   0.10969 276646.080000
   1367   1369     1   0.10969 276646.080000
   1370   1371     1   0.10969 276646.080000
   1370   1372     1   0.10969 276646.080000
   1373   1374     1   0.10969 276646.080000
   1373   1375     1   0.10969 276646.080000
   1376   1377     1   0.10969 276646.080000
   1376   1378     1   0.10969 276646.080000
   1379   1380     1   0.10969 276646.080000
   1379   1381     1   0.10969 276646.080000
   1382   1383     1   0.10969 276646.080000
   1382   1384     1   0.10969 276646.080000
   1385   1386     1   0.10969 276646.080000
   1385   1387     1   0.10969 276646.080000
   1388   1389     1   0.10969 276646.080000
   1388   1390     1   0.10969 276646.080000
   1393   1394     1   0.10969 276646.080000
   1393   1395     1   0.10969 276646.080000
   1396   1397     1   0.10969 276646.080000
   1396   1398     1   0.10969 276646.080000
   1399   1400     1   0.10969 276646.080000
   1399   1401     1   0.10969 276646.080000
   1402   1403     1   0.10969 276646.080000
   1402   1404     1   0.10969 276646.080000
   1405   1406     1   0.10969 276646.080000
   1405   1407     1   0.10969 276646.080000
   1408   1409     1   0.10969 276646.080000
   1408   1410     1   0.10969 276646.080000
   1411   1412     1   0.10969 276646.080000
   1411   1413     1   0.10969 276646.080000
   1414   1415     1   0.10969 276646.080000
   1414   1416     1   0.10969 276646.080000
   1417   1418     1   0.10969 276646.080000
   1417   1419     1   0.10969 276646.080000
   1422   1423     1   0.10969 276646.080000
   1422   1424     1   0.10969 276646.080000
   1425   1426     1   0.10969 276646.080000
   1425   1427     1   0.10969 276646.080000
   1428   1429     1   0.10969 276646.080000
   1428   1430     1   0.10969 276646.080000
   1431   1432     1   0.10969 276646.080000
   1431   1433     1   0.10969 276646.080000
   1434   1435     1   0.10969 276646.080000
   1434   1436     1   0.10969 276646.080000
   1437   1438     1   0.10969 276646.080000
   1437   1439     1   0.10969 276646.080000
   1440   1441     1   0.10969 276646.080000
   1440   1442     1   0.10969 276646.080000
   1443   1444     1   0.10969 276646.080000
   1443   1445     1   0.10969 276646.080000
   1446   1447     1   0.10969 276646.080000
   1446   1448     1   0.10969 276646.080000
   1451   1452     1   0.10969 276646.080000
   1451   1453     1   0.10969 276646.080000
   1454   1455     1   0.10969 276646.080000
   1454   1456     1   0.10969 276646.080000
   1457   1458     1   0.10969 276646.080000
   1457   1459     1   0.10969 276646.080000
   1460   1461     1   0.10969 276646.080000
   1460   1462     1   0.10969 276646.080000
   1463   1464     1   0.10969 276646.080000
   1463   1465     1   0.10969 276646.080000
   1466   1467     1   0.10969 276646.080000
   1466   1468     1   0.10969 276646.080000
   1469   1470     1   0.10969 276646.080000
   1469   1471     1   0.10969 276646.080000
   1472   1473     1   0.10969 276646.080000
   1472   1474     1   0.10969 276646.080000
   1475   1476     1   0.10969 276646.080000
   1475   1477     1   0.10969 276646.080000
   1480   1481     1   0.10969 276646.080000
   1480   1482     1   0.10969 276646.080000
   1483   1484     1   0.10969 276646.080000
   1483   1485     1   0.10969 276646.080000
   1486   1487     1   0.10969 276646.080000
   1486   1488     1   0.10969 276646.080000
   1489   1490     1   0.10969 276646.080000
   1489   1491     1   0.10969 276646.080000
   1492   1493     1   0.10969 276646.080000
   1492   1494     1   0.10969 276646.080000
   1495   1496     1   0.10969 276646.080000
   1495   1497     1   0.10969 276646.080000
   1498   1499     1   0.10969 276646.080000
   1498   1500     1   0.10969 276646.080000
   1501   1502     1   0.10969 276646.080000
   1501   1503     1   0.10969 276646.080000
   1504   1505     1   0.10969 276646.080000
   1504   1506     1   0.10969 276646.080000
   1509   1510     1   0.10969 276646.080000
   1509   1511     1   0.10969 276646.080000
   1512   1513     1   0.10969 276646.080000
   1512   1514     1   0.10969 276646.080000
   1515   1516     1   0.10969 276646.080000
   1515   1517     1   0.10969 276646.080000
   1518   1519     1   0.10969 276646.080000
   1518   1520     1   0.10969 276646.080000
   1521   1522     1   0.10969 276646.080000
   1521   1523     1   0.10969 276646.080000
   1524   1525     1   0.10969 276646.080000
   1524   1526     1   0.10969 276646.080000
   1527   1528     1   0.10969 276646.080000
   1527   1529     1   0.10969 276646.080000
   1530   1531     1   0.10969 276646.080000
   1530   1532     1   0.10969 276646.080000
   1533   1534     1   0.10969 276646.080000
   1533   1535     1   0.10969 276646.080000
   1538   1539     1   0.10969 276646.080000
   1538   1540     1   0.10969 276646.080000
   1541   1542     1   0.10969 276646.080000
   1541   1543     1   0.10969 276646.080000
   1544   1545     1   0.10969 276646.080000
   1544   1546     1   0.10969 276646.080000
   1547   1548     1   0.10969 276646.080000
   1547   1549     1   0.10969 276646.080000
   1550   1551     1   0.10969 276646.080000
   1550   1552     1   0.10969 276646.080000
   1553   1554     1   0.10969 276646.080000
   1553   1555     1   0.10969 276646.080000
   1556   1557     1   0.10969 276646.080000
   1556   1558     1   0.10969 276646.080000
   1559   1560     1   0.10969 276646.080000
   1559   1561     1   0.10969 276646.080000
   1562   1563     1   0.10969 276646.080000
   1562   1564     1   0.10969 276646.080000
   1567   1568     1   0.10969 276646.080000
   1567   1569     1   0.10969 276646.080000
   1570   1571     1   0.10969 276646.080000
   1570   1572     1   0.10969 276646.080000
   1573   1574     1   0.10969 276646.080000
   1573   1575     1   0.10969 276646.080000
   1576   1577     1   0.10969 276646.080000
   1576   1578     1   0.10969 276646.080000
   1579   1580     1   0.10969 276646.080000
   1579   1581     1   0.10969 276646.080000
   1582   1583     1   0.10969 276646.080000
   1582   1584     1   0.10969 276646.080000
   1585   1586     1   0.10969 276646.080000
   1585   1587     1   0.10969 276646.080000
   1588   1589     1   0.10969 276646.080000
   1588   1590     1   0.10969 276646.080000
   1591   1592     1   0.10969 276646.080000
   1591   1593     1   0.10969 276646.080000
   1596   1597     1   0.10969 276646.080000
   1596   1598     1   0.10969 276646.080000
   1599   1600     1   0.10969 276646.080000
   1599   1601     1   0.10969 276646.080000
   1602   1603     1   0.10969 276646.080000
   1602   1604     1   0.10969 276646.080000
   1605   1606     1   0.10969 276646.080000
   1605   1607     1   0.10969 276646.080000
   1608   1609     1   0.10969 276646.080000
   1608   1610     1   0.10969 276646.080000
   1611   1612     1   0.10969 276646.080000
   1611   1613     1   0.10969 276646.080000
   1614   1615     1   0.10969 276646.080000
   1614   1616     1   0.10969 276646.080000
   1617   1618     1   0.10969 276646.080000
   1617   1619     1   0.10969 276646.080000
   1620   1621     1   0.10969 276646.080000
   1620   1622     1   0.10969 276646.080000
   1625   1626     1   0.10969 276646.080000
   1625   1627     1   0.10969 276646.080000
   1628   1629     1   0.10969 276646.080000
   1628   1630     1   0.10969 276646.080000
   1631   1632     1   0.10969 276646.080000
   1631   1633     1   0.10969 276646.080000
   1634   1635     1   0.10969 276646.080000
   1634   1636     1   0.10969 276646.080000
   1637   1638     1   0.10969 276646.080000
   1637   1639     1   0.10969 276646.080000
   1640   1641     1   0.10969 276646.080000
   1640   1642     1   0.10969 276646.080000
   1643   1644     1   0.10969 276646.080000
   1643   1645     1   0.10969 276646.080000
   1646   1647     1   0.10969 276646.080000
   1646   1648     1   0.10969 276646.080000
   1649   1650     1   0.10969 276646.080000
   1649   1651     1   0.10969 276646.080000
   1654   1655     1   0.10969 276646.080000
   1654   1656     1   0.10969 276646.080000
   1657   1658     1   0.10969 276646.080000
   1657   1659     1   0.10969 276646.080000
   1660   1661     1   0.10969 276646.080000
   1660   1662     1   0.10969 276646.080000
   1663   1664     1   0.10969 276646.080000
   1663   1665     1   0.10969 276646.080000
   1666   1667     1   0.10969 276646.080000
   1666   1668     1   0.10969 276646.080000
   1669   1670     1   0.10969 276646.080000
   1669   1671     1   0.10969 276646.080000
   1672   1673     1   0.10969 276646.080000
   1672   1674     1   0.10969 276646.080000
   1675   1676     1   0.10969 276646.080000
   1675   1677     1   0.10969 276646.080000
   1678   1679     1   0.10969 276646.080000
   1678   1680     1   0.10969 276646.080000
   1683   1684     1   0.10969 276646.080000
   1683   1685     1   0.10969 276646.080000
   1686   1687     1   0.10969 276646.080000
   1686   1688     1   0.10969 276646.080000
   1689   1690     1   0.10969 276646.080000
   1689   1691     1   0.10969 276646.080000
   1692   1693     1   0.10969 276646.080000
   1692   1694     1   0.10969 276646.080000
   1695   1696     1   0.10969 276646.080000
   1695   1697     1   0.10969 276646.080000
   1698   1699     1   0.10969 276646.080000
   1698   1700     1   0.10969 276646.080000
   1701   1702     1   0.10969 276646.080000
   1701   1703     1   0.10969 276646.080000
   1704   1705     1   0.10969 276646.080000
   1704   1706     1   0.10969 276646.080000
   1707   1708     1   0.10969 276646.080000
   1707   1709     1   0.10969 276646.080000
   1712   1713     1   0.10969 276646.080000
   1712   1714     1   0.10969 276646.080000
   1715   1716     1   0.10969 276646.080000
   1715   1717     1   0.10969 276646.080000
   1718   1719     1   0.10969 276646.080000
   1718   1720     1   0.10969 276646.080000
   1721   1722     1   0.10969 276646.080000
   1721   1723     1   0.10969 276646.080000
   1724   1725     1   0.10969 276646.080000
   1724   1726     1   0.10969 276646.080000
   1727   1728     1   0.10969 276646.080000
   1727   1729     1   0.10969 276646.080000
   1730   1731     1   0.10969 276646.080000
   1730   1732     1   0.10969 276646.080000
   1733   1734     1   0.10969 276646.080000
   1733   1735     1   0.10969 276646.080000
   1736   1737     1   0.10969 276646.080000
   1736   1738     1   0.10969 276646.080000
   1741   1742     1   0.10969 276646.080000
   1741   1743     1   0.10969 276646.080000
   1744   1745     1   0.10969 276646.080000
   1744   1746     1   0.10969 276646.080000
   1747   1748     1   0.10969 276646.080000
   1747   1749     1   0.10969 276646.080000
   1750   1751     1   0.10969 276646.080000
   1750   1752     1   0.10969 276646.080000
   1753   1754     1   0.10969 276646.080000
   1753   1755     1   0.10969 276646.080000
   1756   1757     1   0.10969 276646.080000
   1756   1758     1   0.10969 276646.080000
   1759   1760     1   0.10969 276646.080000
   1759   1761     1   0.10969 276646.080000
   1762   1763     1   0.10969 276646.080000
   1762   1764     1   0.10969 276646.080000
   1765   1766     1   0.10969 276646.080000
   1765   1767     1   0.10969 276646.080000
   1770   1771     1   0.10969 276646.080000
   1770   1772     1   0.10969 276646.080000
   1773   1774     1   0.10969 276646.080000
   1773   1775     1   0.10969 276646.080000
   1776   1777     1   0.10969 276646.080000
   1776   1778     1   0.10969 276646.080000
   1779   1780     1   0.10969 276646.080000
   1779   1781     1   0.10969 276646.080000
   1782   1783     1   0.10969 276646.080000
   1782   1784     1   0.10969 276646.080000
   1785   1786     1   0.10969 276646.080000
   1785   1787     1   0.10969 276646.080000
   1788   1789     1   0.10969 276646.080000
   1788   1790     1   0.10969 276646.080000
   1791   1792     1   0.10969 276646.080000
   1791   1793     1   0.10969 276646.080000
   1794   1795     1   0.10969 276646.080000
   1794   1796     1   0.10969 276646.080000
   1799   1800     1   0.10969 276646.080000
   1799   1801     1   0.10969 276646.080000
   1802   1803     1   0.10969 276646.080000
   1802   1804     1   0.10969 276646.080000
   1805   1806     1   0.10969 276646.080000
   1805   1807     1   0.10969 276646.080000
   1808   1809     1   0.10969 276646.080000
   1808   1810     1   0.10969 276646.080000
   1811   1812     1   0.10969 276646.080000
   1811   1813     1   0.10969 276646.080000
   1814   1815     1   0.10969 276646.080000
   1814   1816     1   0.10969 276646.080000
   1817   1818     1   0.10969 276646.080000
   1817   1819     1   0.10969 276646.080000
   1820   1821     1   0.10969 276646.080000
   1820   1822     1   0.10969 276646.080000
   1823   1824     1   0.10969 276646.080000
   1823   1825     1   0.10969 276646.080000
   1828   1829     1   0.10969 276646.080000
   1828   1830     1   0.10969 276646.080000
   1831   1832     1   0.10969 276646.080000
   1831   1833     1   0.10969 276646.080000
   1834   1835     1   0.10969 276646.080000
   1834   1836     1   0.10969 276646.080000
   1837   1838     1   0.10969 276646.080000
   1837   1839     1   0.10969 276646.080000
   1840   1841     1   0.10969 276646.080000
   1840   1842     1   0.10969 276646.080000
   1843   1844     1   0.10969 276646.080000
   1843   1845     1   0.10969 276646.080000
   1846   1847     1   0.10969 276646.080000
   1846   1848     1   0.10969 276646.080000
   1849   1850     1   0.10969 276646.080000
   1849   1851     1   0.10969 276646.080000
   1852   1853     1   0.10969 276646.080000
   1852   1854     1   0.10969 276646.080000
   1857   1858     1   0.10969 276646.080000
   1857   1859     1   0.10969 276646.080000
   1860   1861     1   0.10969 276646.080000
   1860   1862     1   0.10969 276646.080000
   1863   1864     1   0.10969 276646.080000
   1863   1865     1   0.10969 276646.080000
   1866   1867     1   0.10969 276646.080000
   1866   1868     1   0.10969 276646.080000
   1869   1870     1   0.10969 276646.080000
   1869   1871     1   0.10969 276646.080000
   1872   1873     1   0.10969 276646.080000
   1872   1874     1   0.10969 276646.080000
   1875   1876     1   0.10969 276646.080000
   1875   1877     1   0.10969 276646.080000
   1878   1879     1   0.10969 276646.080000
   1878   1880     1   0.10969 276646.080000
   1881   1882     1   0.10969 276646.080000
   1881   1883     1   0.10969 276646.080000
   1886   1887     1   0.10969 276646.080000
   1886   1888     1   0.10969 276646.080000
   1889   1890     1   0.10969 276646.080000
   1889   1891     1   0.10969 276646.080000
   1892   1893     1   0.10969 276646.080000
   1892   1894     1   0.10969 276646.080000
   1895   1896     1   0.10969 276646.080000
   1895   1897     1   0.10969 276646.080000
   1898   1899     1   0.10969 276646.080000
   1898   1900     1   0.10969 276646.080000
   1901   1902     1   0.10969 276646.080000
   1901   1903     1   0.10969 276646.080000
   1904   1905     1   0.10969 276646.080000
   1904   1906     1   0.10969 276646.080000
   1907   1908     1   0.10969 276646.080000
   1907   1909     1   0.10969 276646.080000
   1910   1911     1   0.10969 276646.080000
   1910   1912     1   0.10969 276646.080000
   1915   1916     1   0.10969 276646.080000
   1915   1917     1   0.10969 276646.080000
   1918   1919     1   0.10969 276646.080000
   1918   1920     1   0.10969 276646.080000
   1921   1922     1   0.10969 276646.080000
   1921   1923     1   0.10969 276646.080000
   1924   1925     1   0.10969 276646.080000
   1924   1926     1   0.10969 276646.080000
   1927   1928     1   0.10969 276646.080000
   1927   1929     1   0.10969 276646.080000
   1930   1931     1   0.10969 276646.080000
   1930   1932     1   0.10969 276646.080000
   1933   1934     1   0.10969 276646.080000
   1933   1935     1   0.10969 276646.080000
   1936   1937     1   0.10969 276646.080000
   1936   1938     1   0.10969 276646.080000
   1939   1940     1   0.10969 276646.080000
   1939   1941     1   0.10969 276646.080000
   1944   1945     1   0.10969 276646.080000
   1944   1946     1   0.10969 276646.080000
   1947   1948     1   0.10969 276646.080000
   1947   1949     1   0.10969 276646.080000
   1950   1951     1   0.10969 276646.080000
   1950   1952     1   0.10969 276646.080000
   1953   1954     1   0.10969 276646.080000
   1953   1955     1   0.10969 276646.080000
   1956   1957     1   0.10969 276646.080000
   1956   1958     1   0.10969 276646.080000
   1959   1960     1   0.10969 276646.080000
   1959   1961     1   0.10969 276646.080000
   1962   1963     1   0.10969 276646.080000
   1962   1964     1   0.10969 276646.080000
   1965   1966     1   0.10969 276646.080000
   1965   1967     1   0.10969 276646.080000
   1968   1969     1   0.10969 276646.080000
   1968   1970     1   0.10969 276646.080000
   1973   1974     1   0.10969 276646.080000
   1973   1975     1   0.10969 276646.080000
   1976   1977     1   0.10969 276646.080000
   1976   1978     1   0.10969 276646.080000
   1979   1980     1   0.10969 276646.080000
   1979   1981     1   0.10969 276646.080000
   1982   1983     1   0.10969 276646.080000
   1982   1984     1   0.10969 276646.080000
   1985   1986     1   0.10969 276646.080000
   1985   1987     1   0.10969 276646.080000
   1988   1989     1   0.10969 276646.080000
   1988   1990     1   0.10969 276646.080000
   1991   1992     1   0.10969 276646.080000
   1991   1993     1   0.10969 276646.080000
   1994   1995     1   0.10969 276646.080000
   1994   1996     1   0.10969 276646.080000
   1997   1998     1   0.10969 276646.080000
   1997   1999     1   0.10969 276646.080000
   2002   2003     1   0.10969 276646.080000
   2002   2004     1   0.10969 276646.080000
   2005   2006     1   0.10969 276646.080000
   2005   2007     1   0.10969 276646.080000
   2008   2009     1   0.10969 276646.080000
   2008   2010     1   0.10969 276646.080000
   2011   2012     1   0.10969 276646.080000
   2011   2013     1   0.10969 276646.080000
   2014   2015     1   0.10969 276646.080000
   2014   2016     1   0.10969 276646.080000
   2017   2018     1   0.10969 276646.080000
   2017   2019     1   0.10969 276646.080000
   2020   2021     1   0.10969 276646.080000
   2020   2022     1   0.10969 276646.080000
   2023   2024     1   0.10969 276646.080000
   2023   2025     1   0.10969 276646.080000
   2026   2027     1   0.10969 276646.080000
   2026   2028     1   0.10969 276646.080000
   2031   2032     1   0.10969 276646.080000
   2031   2033     1   0.10969 276646.080000
   2034   2035     1   0.10969 276646.080000
   2034   2036     1   0.10969 276646.080000
   2037   2038     1   0.10969 276646.080000
   2037   2039     1   0.10969 276646.080000
   2040   2041     1   0.10969 276646.080000
   2040   2042     1   0.10969 276646.080000
   2043   2044     1   0.10969 276646.080000
   2043   2045     1   0.10969 276646.080000
   2046   2047     1   0.10969 276646.080000
   2046   2048     1   0.10969 276646.080000
   2049   2050     1   0.10969 276646.080000
   2049   2051     1   0.10969 276646.080000
   2052   2053     1   0.10969 276646.080000
   2052   2054     1   0.10969 276646.080000
   2055   2056     1   0.10969 276646.080000
   2055   2057     1   0.10969 276646.080000
   2060   2061     1   0.10969 276646.080000
   2060   2062     1   0.10969 276646.080000
   2063   2064     1   0.10969 276646.080000
   2063   2065     1   0.10969 276646.080000
   2066   2067     1   0.10969 276646.080000
   2066   2068     1   0.10969 276646.080000
   2069   2070     1   0.10969 276646.080000
   2069   2071     1   0.10969 276646.080000
   2072   2073     1   0.10969 276646.080000
   2072   2074     1   0.10969 276646.080000
   2075   2076     1   0.10969 276646.080000
   2075   2077     1   0.10969 276646.080000
   2078   2079     1   0.10969 276646.080000
   2078   2080     1   0.10969 276646.080000
   2081   2082     1   0.10969 276646.080000
   2081   2083     1   0.10969 276646.080000
   2084   2085     1   0.10969 276646.080000
   2084   2086     1   0.10969 276646.080000
   2089   2090     1   0.10969 276646.080000
   2089   2091     1   0.10969 276646.080000
   2092   2093     1   0.10969 276646.080000
   2092   2094     1   0.10969 276646.080000
   2095   2096     1   0.10969 276646.080000
   2095   2097     1   0.10969 276646.080000
   2098   2099     1   0.10969 276646.080000
   2098   2100     1   0.10969 276646.080000
   2101   2102     1   0.10969 276646.080000
   2101   2103     1   0.10969 276646.080000
   2104   2105     1   0.10969 276646.080000
   2104   2106     1   0.10969 276646.080000
   2107   2108     1   0.10969 276646.080000
   2107   2109     1   0.10969 276646.080000
   2110   2111     1   0.10969 276646.080000
   2110   2112     1   0.10969 276646.080000
   2113   2114     1   0.10969 276646.080000
   2113   2115     1   0.10969 276646.080000
   2118   2119     1   0.10969 276646.080000
   2118   2120     1   0.10969 276646.080000
   2121   2122     1   0.10969 276646.080000
   2121   2123     1   0.10969 276646.080000
   2124   2125     1   0.10969 276646.080000
   2124   2126     1   0.10969 276646.080000
   2127   2128     1   0.10969 276646.080000
   2127   2129     1   0.10969 276646.080000
   2130   2131     1   0.10969 276646.080000
   2130   2132     1   0.10969 276646.080000
   2133   2134     1   0.10969 276646.080000
   2133   2135     1   0.10969 276646.080000
   2136   2137     1   0.10969 276646.080000
   2136   2138     1   0.10969 276646.080000
   2139   2140     1   0.10969 276646.080000
   2139   2141     1   0.10969 276646.080000
   2142   2143     1   0.10969 276646.080000
   2142   2144     1   0.10969 276646.080000
   2147   2148     1   0.10969 276646.080000
   2147   2149     1   0.10969 276646.080000
   2150   2151     1   0.10969 276646.080000
   2150   2152     1   0.10969 276646.080000
   2153   2154     1   0.10969 276646.080000
   2153   2155     1   0.10969 276646.080000
   2156   2157     1   0.10969 276646.080000
   2156   2158     1   0.10969 276646.080000
   2159   2160     1   0.10969 276646.080000
   2159   2161     1   0.10969 276646.080000
   2162   2163     1   0.10969 276646.080000
   2162   2164     1   0.10969 276646.080000
   2165   2166     1   0.10969 276646.080000
   2165   2167     1   0.10969 276646.080000
   2168   2169     1   0.10969 276646.080000
   2168   2170     1   0.10969 276646.080000
   2171   2172     1   0.10969 276646.080000
   2171   2173     1   0.10969 276646.080000
   2176   2177     1   0.10969 276646.080000
   2176   2178     1   0.10969 276646.080000
   2179   2180     1   0.10969 276646.080000
   2179   2181     1   0.10969 276646.080000
   2182   2183     1   0.10969 276646.080000
   2182   2184     1   0.10969 276646.080000
   2185   2186     1   0.10969 276646.080000
   2185   2187     1   0.10969 276646.080000
   2188   2189     1   0.10969 276646.080000
   2188   2190     1   0.10969 276646.080000
   2191   2192     1   0.10969 276646.080000
   2191   2193     1   0.10969 276646.080000
   2194   2195     1   0.10969 276646.080000
   2194   2196     1   0.10969 276646.080000
   2197   2198     1   0.10969 276646.080000
   2197   2199     1   0.10969 276646.080000
   2200   2201     1   0.10969 276646.080000
   2200   2202     1   0.10969 276646.080000
   2205   2206     1   0.10969 276646.080000
   2205   2207     1   0.10969 276646.080000
   2208   2209     1   0.10969 276646.080000
   2208   2210     1   0.10969 276646.080000
   2211   2212     1   0.10969 276646.080000
   2211   2213     1   0.10969 276646.080000
   2214   2215     1   0.10969 276646.080000
   2214   2216     1   0.10969 276646.080000
   2217   2218     1   0.10969 276646.080000
   2217   2219     1   0.10969 276646.080000
   2220   2221     1   0.10969 276646.080000
   2220   2222     1   0.10969 276646.080000
   2223   2224     1   0.10969 276646.080000
   2223   2225     1   0.10969 276646.080000
   2226   2227     1   0.10969 276646.080000
   2226   2228     1   0.10969 276646.080000
   2229   2230     1   0.10969 276646.080000
   2229   2231     1   0.10969 276646.080000
   2234   2235     1   0.10969 276646.080000
   2234   2236     1   0.10969 276646.080000
   2237   2238     1   0.10969 276646.080000
   2237   2239     1   0.10969 276646.080000
   2240   2241     1   0.10969 276646.080000
   2240   2242     1   0.10969 276646.080000
   2243   2244     1   0.10969 276646.080000
   2243   2245     1   0.10969 276646.080000
   2246   2247     1   0.10969 276646.080000
   2246   2248     1   0.10969 276646.080000
   2249   2250     1   0.10969 276646.080000
   2249   2251     1   0.10969 276646.080000
   2252   2253     1   0.10969 276646.080000
   2252   2254     1   0.10969 276646.080000
   2255   2256     1   0.10969 276646.080000
   2255   2257     1   0.10969 276646.080000
   2258   2259     1   0.10969 276646.080000
   2258   2260     1   0.10969 276646.080000
   2263   2264     1   0.10969 276646.080000
   2263   2265     1   0.10969 276646.080000
   2266   2267     1   0.10969 276646.080000
   2266   2268     1   0.10969 276646.080000
   2269   2270     1   0.10969 276646.080000
   2269   2271     1   0.10969 276646.080000
   2272   2273     1   0.10969 276646.080000
   2272   2274     1   0.10969 276646.080000
   2275   2276     1   0.10969 276646.080000
   2275   2277     1   0.10969 276646.080000
   2278   2279     1   0.10969 276646.080000
   2278   2280     1   0.10969 276646.080000
   2281   2282     1   0.10969 276646.080000
   2281   2283     1   0.10969 276646.080000
   2284   2285     1   0.10969 276646.080000
   2284   2286     1   0.10969 276646.080000
   2287   2288     1   0.10969 276646.080000
   2287   2289     1   0.10969 276646.080000
   2292   2293     1   0.10969 276646.080000
   2292   2294     1   0.10969 276646.080000
   2295   2296     1   0.10969 276646.080000
   2295   2297     1   0.10969 276646.080000
   2298   2299     1   0.10969 276646.080000
   2298   2300     1   0.10969 276646.080000
   2301   2302     1   0.10969 276646.080000
   2301   2303     1   0.10969 276646.080000
   2304   2305     1   0.10969 276646.080000
   2304   2306     1   0.10969 276646.080000
   2307   2308     1   0.10969 276646.080000
   2307   2309     1   0.10969 276646.080000
   2310   2311     1   0.10969 276646.080000
   2310   2312     1   0.10969 276646.080000
   2313   2314     1   0.10969 276646.080000
   2313   2315     1   0.10969 276646.080000
   2316   2317     1   0.10969 276646.080000
   2316   2318     1   0.10969 276646.080000
   2321   2322     1   0.10969 276646.080000
   2321   2323     1   0.10969 276646.080000
   2324   2325     1   0.10969 276646.080000
   2324   2326     1   0.10969 276646.080000
   2327   2328     1   0.10969 276646.080000
   2327   2329     1   0.10969 276646.080000
   2330   2331     1   0.10969 276646.080000
   2330   2332     1   0.10969 276646.080000
   2333   2334     1   0.10969 276646.080000
   2333   2335     1   0.10969 276646.080000
   2336   2337     1   0.10969 276646.080000
   2336   2338     1   0.10969 276646.080000
   2339   2340     1   0.10969 276646.080000
   2339   2341     1   0.10969 276646.080000
   2342   2343     1   0.10969 276646.080000
   2342   2344     1   0.10969 276646.080000
   2345   2346     1   0.10969 276646.080000
   2345   2347     1   0.10969 276646.080000
   2350   2351     1   0.10969 276646.080000
   2350   2352     1   0.10969 276646.080000
   2353   2354     1   0.10969 276646.080000
   2353   2355     1   0.10969 276646.080000
   2356   2357     1   0.10969 276646.080000
   2356   2358     1   0.10969 276646.080000
   2359   2360     1   0.10969 276646.080000
   2359   2361     1   0.10969 276646.080000
   2362   2363     1   0.10969 276646.080000
   2362   2364     1   0.10969 276646.080000
   2365   2366     1   0.10969 276646.080000
   2365   2367     1   0.10969 276646.080000
   2368   2369     1   0.10969 276646.080000
   2368   2370     1   0.10969 276646.080000
   2371   2372     1   0.10969 276646.080000
   2371   2373     1   0.10969 276646.080000
   2374   2375     1   0.10969 276646.080000
   2374   2376     1   0.10969 276646.080000
   2379   2380     1   0.10969 276646.080000
   2379   2381     1   0.10969 276646.080000
   2382   2383     1   0.10969 276646.080000
   2382   2384     1   0.10969 276646.080000
   2385   2386     1   0.10969 276646.080000
   2385   2387     1   0.10969 276646.080000
   2388   2389     1   0.10969 276646.080000
   2388   2390     1   0.10969 276646.080000
   2391   2392     1   0.10969 276646.080000
   2391   2393     1   0.10969 276646.080000
   2394   2395     1   0.10969 276646.080000
   2394   2396     1   0.10969 276646.080000
   2397   2398     1   0.10969 276646.080000
   2397   2399     1   0.10969 276646.080000
   2400   2401     1   0.10969 276646.080000
   2400   2402     1   0.10969 276646.080000
   2403   2404     1   0.10969 276646.080000
   2403   2405     1   0.10969 276646.080000
   2408   2409     1   0.10969 276646.080000
   2408   2410     1   0.10969 276646.080000
   2411   2412     1   0.10969 276646.080000
   2411   2413     1   0.10969 276646.080000
   2414   2415     1   0.10969 276646.080000
   2414   2416     1   0.10969 276646.080000
   2417   2418     1   0.10969 276646.080000
   2417   2419     1   0.10969 276646.080000
   2420   2421     1   0.10969 276646.080000
   2420   2422     1   0.10969 276646.080000
   2423   2424     1   0.10969 276646.080000
   2423   2425     1   0.10969 276646.080000
   2426   2427     1   0.10969 276646.080000
   2426   2428     1   0.10969 276646.080000
   2429   2430     1   0.10969 276646.080000
   2429   2431     1   0.10969 276646.080000
   2432   2433     1   0.10969 276646.080000
   2432   2434     1   0.10969 276646.080000
   2437   2438     1   0.10969 276646.080000
   2437   2439     1   0.10969 276646.080000
   2440   2441     1   0.10969 276646.080000
   2440   2442     1   0.10969 276646.080000
   2443   2444     1   0.10969 276646.080000
   2443   2445     1   0.10969 276646.080000
   2446   2447     1   0.10969 276646.080000
   2446   2448     1   0.10969 276646.080000
   2449   2450     1   0.10969 276646.080000
   2449   2451     1   0.10969 276646.080000
   2452   2453     1   0.10969 276646.080000
   2452   2454     1   0.10969 276646.080000
   2455   2456     1   0.10969 276646.080000
   2455   2457     1   0.10969 276646.080000
   2458   2459     1   0.10969 276646.080000
   2458   2460     1   0.10969 276646.080000
   2461   2462     1   0.10969 276646.080000
   2461   2463     1   0.10969 276646.080000
   2466   2467     1   0.10969 276646.080000
   2466   2468     1   0.10969 276646.080000
   2469   2470     1   0.10969 276646.080000
   2469   2471     1   0.10969 276646.080000
   2472   2473     1   0.10969 276646.080000
   2472   2474     1   0.10969 276646.080000
   2475   2476     1   0.10969 276646.080000
   2475   2477     1   0.10969 276646.080000
   2478   2479     1   0.10969 276646.080000
   2478   2480     1   0.10969 276646.080000
   2481   2482     1   0.10969 276646.080000
   2481   2483     1   0.10969 276646.080000
   2484   2485     1   0.10969 276646.080000
   2484   2486     1   0.10969 276646.080000
   2487   2488     1   0.10969 276646.080000
   2487   2489     1   0.10969 276646.080000
   2490   2491     1   0.10969 276646.080000
   2490   2492     1   0.10969 276646.080000
   2495   2496     1   0.10969 276646.080000
   2495   2497     1   0.10969 276646.080000
   2498   2499     1   0.10969 276646.080000
   2498   2500     1   0.10969 276646.080000
   2501   2502     1   0.10969 276646.080000
   2501   2503     1   0.10969 276646.080000
   2504   2505     1   0.10969 276646.080000
   2504   2506     1   0.10969 276646.080000
   2507   2508     1   0.10969 276646.080000
   2507   2509     1   0.10969 276646.080000
   2510   2511     1   0.10969 276646.080000
   2510   2512     1   0.10969 276646.080000
   2513   2514     1   0.10969 276646.080000
   2513   2515     1   0.10969 276646.080000
   2516   2517     1   0.10969 276646.080000
   2516   2518     1   0.10969 276646.080000
   2519   2520     1   0.10969 276646.080000
   2519   2521     1   0.10969 276646.080000
   2524   2525     1   0.10969 276646.080000
   2524   2526     1   0.10969 276646.080000
   2527   2528     1   0.10969 276646.080000
   2527   2529     1   0.10969 276646.080000
   2530   2531     1   0.10969 276646.080000
   2530   2532     1   0.10969 276646.080000
   2533   2534     1   0.10969 276646.080000
   2533   2535     1   0.10969 276646.080000
   2536   2537     1   0.10969 276646.080000
   2536   2538     1   0.10969 276646.080000
   2539   2540     1   0.10969 276646.080000
   2539   2541     1   0.10969 276646.080000
   2542   2543     1   0.10969 276646.080000
   2542   2544     1   0.10969 276646.080000
   2545   2546     1   0.10969 276646.080000
   2545   2547     1   0.10969 276646.080000
   2548   2549     1   0.10969 276646.080000
   2548   2550     1   0.10969 276646.080000
   2553   2554     1   0.10969 276646.080000
   2553   2555     1   0.10969 276646.080000
   2556   2557     1   0.10969 276646.080000
   2556   2558     1   0.10969 276646.080000
   2559   2560     1   0.10969 276646.080000
   2559   2561     1   0.10969 276646.080000
   2562   2563     1   0.10969 276646.080000
   2562   2564     1   0.10969 276646.080000
   2565   2566     1   0.10969 276646.080000
   2565   2567     1   0.10969 276646.080000
   2568   2569     1   0.10969 276646.080000
   2568   2570     1   0.10969 276646.080000
   2571   2572     1   0.10969 276646.080000
   2571   2573     1   0.10969 276646.080000
   2574   2575     1   0.10969 276646.080000
   2574   2576     1   0.10969 276646.080000
   2577   2578     1   0.10969 276646.080000
   2577   2579     1   0.10969 276646.080000
   2582   2583     1   0.10969 276646.080000
   2582   2584     1   0.10969 276646.080000
   2585   2586     1   0.10969 276646.080000
   2585   2587     1   0.10969 276646.080000
   2588   2589     1   0.10969 276646.080000
   2588   2590     1   0.10969 276646.080000
   2591   2592     1   0.10969 276646.080000
   2591   2593     1   0.10969 276646.080000
   2594   2595     1   0.10969 276646.080000
   2594   2596     1   0.10969 276646.080000
   2597   2598     1   0.10969 276646.080000
   2597   2599     1   0.10969 276646.080000
   2600   2601     1   0.10969 276646.080000
   2600   2602     1   0.10969 276646.080000
   2603   2604     1   0.10969 276646.080000
   2603   2605     1   0.10969 276646.080000
   2606   2607     1   0.10969 276646.080000
   2606   2608     1   0.10969 276646.080000
   2611   2612     1   0.10969 276646.080000
   2611   2613     1   0.10969 276646.080000
   2614   2615     1   0.10969 276646.080000
   2614   2616     1   0.10969 276646.080000
   2617   2618     1   0.10969 276646.080000
   2617   2619     1   0.10969 276646.080000
   2620   2621     1   0.10969 276646.080000
   2620   2622     1   0.10969 276646.080000
   2623   2624     1   0.10969 276646.080000
   2623   2625     1   0.10969 276646.080000
   2626   2627     1   0.10969 276646.080000
   2626   2628     1   0.10969 276646.080000
   2629   2630     1   0.10969 276646.080000
   2629   2631     1   0.10969 276646.080000
   2632   2633     1   0.10969 276646.080000
   2632   2634     1   0.10969 276646.080000
   2635   2636     1   0.10969 276646.080000
   2635   2637     1   0.10969 276646.080000
   2640   2641     1   0.10969 276646.080000
   2640   2642     1   0.10969 276646.080000
   2643   2644     1   0.10969 276646.080000
   2643   2645     1   0.10969 276646.080000
   2646   2647     1   0.10969 276646.080000
   2646   2648     1   0.10969 276646.080000
   2649   2650     1   0.10969 276646.080000
   2649   2651     1   0.10969 276646.080000
   2652   2653     1   0.10969 276646.080000
   2652   2654     1   0.10969 276646.080000
   2655   2656     1   0.10969 276646.080000
   2655   2657     1   0.10969 276646.080000
   2658   2659     1   0.10969 276646.080000
   2658   2660     1   0.10969 276646.080000
   2661   2662     1   0.10969 276646.080000
   2661   2663     1   0.10969 276646.080000
   2664   2665     1   0.10969 276646.080000
   2664   2666     1   0.10969 276646.080000
   2669   2670     1   0.10969 276646.080000
   2669   2671     1   0.10969 276646.080000
   2672   2673     1   0.10969 276646.080000
   2672   2674     1   0.10969 276646.080000
   2675   2676     1   0.10969 276646.080000
   2675   2677     1   0.10969 276646.080000
   2678   2679     1   0.10969 276646.080000
   2678   2680     1   0.10969 276646.080000
   2681   2682     1   0.10969 276646.080000
   2681   2683     1   0.10969 276646.080000
   2684   2685     1   0.10969 276646.080000
   2684   2686     1   0.10969 276646.080000
   2687   2688     1   0.10969 276646.080000
   2687   2689     1   0.10969 276646.080000
   2690   2691     1   0.10969 276646.080000
   2690   2692     1   0.10969 276646.080000
   2693   2694     1   0.10969 276646.080000
   2693   2695     1   0.10969 276646.080000
   2698   2699     1   0.10969 276646.080000
   2698   2700     1   0.10969 276646.080000
   2701   2702     1   0.10969 276646.080000
   2701   2703     1   0.10969 276646.080000
   2704   2705     1   0.10969 276646.080000
   2704   2706     1   0.10969 276646.080000
   2707   2708     1   0.10969 276646.080000
   2707   2709     1   0.10969 276646.080000
   2710   2711     1   0.10969 276646.080000
   2710   2712     1   0.10969 276646.080000
   2713   2714     1   0.10969 276646.080000
   2713   2715     1   0.10969 276646.080000
   2716   2717     1   0.10969 276646.080000
   2716   2718     1   0.10969 276646.080000
   2719   2720     1   0.10969 276646.080000
   2719   2721     1   0.10969 276646.080000
   2722   2723     1   0.10969 276646.080000
   2722   2724     1   0.10969 276646.080000
   2727   2728     1   0.10969 276646.080000
   2727   2729     1   0.10969 276646.080000
   2730   2731     1   0.10969 276646.080000
   2730   2732     1   0.10969 276646.080000
   2733   2734     1   0.10969 276646.080000
   2733   2735     1   0.10969 276646.080000
   2736   2737     1   0.10969 276646.080000
   2736   2738     1   0.10969 276646.080000
   2739   2740     1   0.10969 276646.080000
   2739   2741     1   0.10969 276646.080000
   2742   2743     1   0.10969 276646.080000
   2742   2744     1   0.10969 276646.080000
   2745   2746     1   0.10969 276646.080000
   2745   2747     1   0.10969 276646.080000
   2748   2749     1   0.10969 276646.080000
   2748   2750     1   0.10969 276646.080000
   2751   2752     1   0.10969 276646.080000
   2751   2753     1   0.10969 276646.080000
   2756   2757     1   0.10969 276646.080000
   2756   2758     1   0.10969 276646.080000
   2759   2760     1   0.10969 276646.080000
   2759   2761     1   0.10969 276646.080000
   2762   2763     1   0.10969 276646.080000
   2762   2764     1   0.10969 276646.080000
   2765   2766     1   0.10969 276646.080000
   2765   2767     1   0.10969 276646.080000
   2768   2769     1   0.10969 276646.080000
   2768   2770     1   0.10969 276646.080000
   2771   2772     1   0.10969 276646.080000
   2771   2773     1   0.10969 276646.080000
   2774   2775     1   0.10969 276646.080000
   2774   2776     1   0.10969 276646.080000
   2777   2778     1   0.10969 276646.080000
   2777   2779     1   0.10969 276646.080000
   2780   2781     1   0.10969 276646.080000
   2780   2782     1   0.10969 276646.080000
   2785   2786     1   0.10969 276646.080000
   2785   2787     1   0.10969 276646.080000
   2788   2789     1   0.10969 276646.080000
   2788   2790     1   0.10969 276646.080000
   2791   2792     1   0.10969 276646.080000
   2791   2793     1   0.10969 276646.080000
   2794   2795     1   0.10969 276646.080000
   2794   2796     1   0.10969 276646.080000
   2797   2798     1   0.10969 276646.080000
   2797   2799     1   0.10969 276646.080000
   2800   2801     1   0.10969 276646.080000
   2800   2802     1   0.10969 276646.080000
   2803   2804     1   0.10969 276646.080000
   2803   2805     1   0.10969 276646.080000
   2806   2807     1   0.10969 276646.080000
   2806   2808     1   0.10969 276646.080000
   2809   2810     1   0.10969 276646.080000
   2809   2811     1   0.10969 276646.080000
   2814   2815     1   0.10969 276646.080000
   2814   2816     1   0.10969 276646.080000
   2817   2818     1   0.10969 276646.080000
   2817   2819     1   0.10969 276646.080000
   2820   2821     1   0.10969 276646.080000
   2820   2822     1   0.10969 276646.080000
   2823   2824     1   0.10969 276646.080000
   2823   2825     1   0.10969 276646.080000
   2826   2827     1   0.10969 276646.080000
   2826   2828     1   0.10969 276646.080000
   2829   2830     1   0.10969 276646.080000
   2829   2831     1   0.10969 276646.080000
   2832   2833     1   0.10969 276646.080000
   2832   2834     1   0.10969 276646.080000
   2835   2836     1   0.10969 276646.080000
   2835   2837     1   0.10969 276646.080000
   2838   2839     1   0.10969 276646.080000
   2838   2840     1   0.10969 276646.080000
   2843   2844     1   0.10969 276646.080000
   2843   2845     1   0.10969 276646.080000
   2846   2847     1   0.10969 276646.080000
   2846   2848     1   0.10969 276646.080000
   2849   2850     1   0.10969 276646.080000
   2849   2851     1   0.10969 276646.080000
   2852   2853     1   0.10969 276646.080000
   2852   2854     1   0.10969 276646.080000
   2855   2856     1   0.10969 276646.080000
   2855   2857     1   0.10969 276646.080000
   2858   2859     1   0.10969 276646.080000
   2858   2860     1   0.10969 276646.080000
   2861   2862     1   0.10969 276646.080000
   2861   2863     1   0.10969 276646.080000
   2864   2865     1   0.10969 276646.080000
   2864   2866     1   0.10969 276646.080000
   2867   2868     1   0.10969 276646.080000
   2867   2869     1   0.10969 276646.080000
   2872   2873     1   0.10969 276646.080000
   2872   2874     1   0.10969 276646.080000
   2875   2876     1   0.10969 276646.080000
   2875   2877     1   0.10969 276646.080000
   2878   2879     1   0.10969 276646.080000
   2878   2880     1   0.10969 276646.080000
   2881   2882     1   0.10969 276646.080000
   2881   2883     1   0.10969 276646.080000
   2884   2885     1   0.10969 276646.080000
   2884   2886     1   0.10969 276646.080000
   2887   2888     1   0.10969 276646.080000
   2887   2889     1   0.10969 276646.080000
   2890   2891     1   0.10969 276646.080000
   2890   2892     1   0.10969 276646.080000
   2893   2894     1   0.10969 276646.080000
   2893   2895     1   0.10969 276646.080000
   2896   2897     1   0.10969 276646.080000
   2896   2898     1   0.10969 276646.080000
   2901   2902     1   0.10969 276646.080000
   2901   2903     1   0.10969 276646.080000
   2904   2905     1   0.10969 276646.080000
   2904   2906     1   0.10969 276646.080000
   2907   2908     1   0.10969 276646.080000
   2907   2909     1   0.10969 276646.080000
   2910   2911     1   0.10969 276646.080000
   2910   2912     1   0.10969 276646.080000
   2913   2914     1   0.10969 276646.080000
   2913   2915     1   0.10969 276646.080000
   2916   2917     1   0.10969 276646.080000
   2916   2918     1   0.10969 276646.080000
   2919   2920     1   0.10969 276646.080000
   2919   2921     1   0.10969 276646.080000
   2922   2923     1   0.10969 276646.080000
   2922   2924     1   0.10969 276646.080000
   2925   2926     1   0.10969 276646.080000
   2925   2927     1   0.10969 276646.080000
   2930   2931     1   0.10969 276646.080000
   2930   2932     1   0.10969 276646.080000
   2933   2934     1   0.10969 276646.080000
   2933   2935     1   0.10969 276646.080000
   2936   2937     1   0.10969 276646.080000
   2936   2938     1   0.10969 276646.080000
   2939   2940     1   0.10969 276646.080000
   2939   2941     1   0.10969 276646.080000
   2942   2943     1   0.10969 276646.080000
   2942   2944     1   0.10969 276646.080000
   2945   2946     1   0.10969 276646.080000
   2945   2947     1   0.10969 276646.080000
   2948   2949     1   0.10969 276646.080000
   2948   2950     1   0.10969 276646.080000
   2951   2952     1   0.10969 276646.080000
   2951   2953     1   0.10969 276646.080000
   2954   2955     1   0.10969 276646.080000
   2954   2956     1   0.10969 276646.080000
   2959   2960     1   0.10969 276646.080000
   2959   2961     1   0.10969 276646.080000
   2962   2963     1   0.10969 276646.080000
   2962   2964     1   0.10969 276646.080000
   2965   2966     1   0.10969 276646.080000
   2965   2967     1   0.10969 276646.080000
   2968   2969     1   0.10969 276646.080000
   2968   2970     1   0.10969 276646.080000
   2971   2972     1   0.10969 276646.080000
   2971   2973     1   0.10969 276646.080000
   2974   2975     1   0.10969 276646.080000
   2974   2976     1   0.10969 276646.080000
   2977   2978     1   0.10969 276646.080000
   2977   2979     1   0.10969 276646.080000
   2980   2981     1   0.10969 276646.080000
   2980   2982     1   0.10969 276646.080000
   2983   2984     1   0.10969 276646.080000
   2983   2985     1   0.10969 276646.080000
   2988   2989     1   0.10969 276646.080000
   2988   2990     1   0.10969 276646.080000
   2991   2992     1   0.10969 276646.080000
   2991   2993     1   0.10969 276646.080000
   2994   2995     1   0.10969 276646.080000
   2994   2996     1   0.10969 276646.080000
   2997   2998     1   0.10969 276646.080000
   2997   2999     1   0.10969 276646.080000
   3000   3001     1   0.10969 276646.080000
   3000   3002     1   0.10969 276646.080000
   3003   3004     1   0.10969 276646.080000
   3003   3005     1   0.10969 276646.080000
   3006   3007     1   0.10969 276646.080000
   3006   3008     1   0.10969 276646.080000
   3009   3010     1   0.10969 276646.080000
   3009   3011     1   0.10969 276646.080000
   3012   3013     1   0.10969 276646.080000
   3012   3014     1   0.10969 276646.080000
   3017   3018     1   0.10969 276646.080000
   3017   3019     1   0.10969 276646.080000
   3020   3021     1   0.10969 276646.080000
   3020   3022     1   0.10969 276646.080000
   3023   3024     1   0.10969 276646.080000
   3023   3025     1   0.10969 276646.080000
   3026   3027     1   0.10969 276646.080000
   3026   3028     1   0.10969 276646.080000
   3029   3030     1   0.10969 276646.080000
   3029   3031     1   0.10969 276646.080000
   3032   3033     1   0.10969 276646.080000
   3032   3034     1   0.10969 276646.080000
   3035   3036     1   0.10969 276646.080000
   3035   3037     1   0.10969 276646.080000
   3038   3039     1   0.10969 276646.080000
   3038   3040     1   0.10969 276646.080000
   3041   3042     1   0.10969 276646.080000
   3041   3043     1   0.10969 276646.080000
   3046   3047     1   0.10969 276646.080000
   3046   3048     1   0.10969 276646.080000
   3049   3050     1   0.10969 276646.080000
   3049   3051     1   0.10969 276646.080000
   3052   3053     1   0.10969 276646.080000
   3052   3054     1   0.10969 276646.080000
   3055   3056     1   0.10969 276646.080000
   3055   3057     1   0.10969 276646.080000
   3058   3059     1   0.10969 276646.080000
   3058   3060     1   0.10969 276646.080000
   3061   3062     1   0.10969 276646.080000
   3061   3063     1   0.10969 276646.080000
   3064   3065     1   0.10969 276646.080000
   3064   3066     1   0.10969 276646.080000
   3067   3068     1   0.10969 276646.080000
   3067   3069     1   0.10969 276646.080000
   3070   3071     1   0.10969 276646.080000
   3070   3072     1   0.10969 276646.080000
   3075   3076     1   0.10969 276646.080000
   3075   3077     1   0.10969 276646.080000
   3078   3079     1   0.10969 276646.080000
   3078   3080     1   0.10969 276646.080000
   3081   3082     1   0.10969 276646.080000
   3081   3083     1   0.10969 276646.080000
   3084   3085     1   0.10969 276646.080000
   3084   3086     1   0.10969 276646.080000
   3087   3088     1   0.10969 276646.080000
   3087   3089     1   0.10969 276646.080000
   3090   3091     1   0.10969 276646.080000
   3090   3092     1   0.10969 276646.080000
   3093   3094     1   0.10969 276646.080000
   3093   3095     1   0.10969 276646.080000
   3096   3097     1   0.10969 276646.080000
   3096   3098     1   0.10969 276646.080000
   3099   3100     1   0.10969 276646.080000
   3099   3101     1   0.10969 276646.080000
   3104   3105     1   0.10969 276646.080000
   3104   3106     1   0.10969 276646.080000
   3107   3108     1   0.10969 276646.080000
   3107   3109     1   0.10969 276646.080000
   3110   3111     1   0.10969 276646.080000
   3110   3112     1   0.10969 276646.080000
   3113   3114     1   0.10969 276646.080000
   3113   3115     1   0.10969 276646.080000
   3116   3117     1   0.10969 276646.080000
   3116   3118     1   0.10969 276646.080000
   3119   3120     1   0.10969 276646.080000
   3119   3121     1   0.10969 276646.080000
   3122   3123     1   0.10969 276646.080000
   3122   3124     1   0.10969 276646.080000
   3125   3126     1   0.10969 276646.080000
   3125   3127     1   0.10969 276646.080000
   3128   3129     1   0.10969 276646.080000
   3128   3130     1   0.10969 276646.080000
   3133   3134     1   0.10969 276646.080000
   3133   3135     1   0.10969 276646.080000
   3136   3137     1   0.10969 276646.080000
   3136   3138     1   0.10969 276646.080000
   3139   3140     1   0.10969 276646.080000
   3139   3141     1   0.10969 276646.080000
   3142   3143     1   0.10969 276646.080000
   3142   3144     1   0.10969 276646.080000
   3145   3146     1   0.10969 276646.080000
   3145   3147     1   0.10969 276646.080000
   3148   3149     1   0.10969 276646.080000
   3148   3150     1   0.10969 276646.080000
   3151   3152     1   0.10969 276646.080000
   3151   3153     1   0.10969 276646.080000
   3154   3155     1   0.10969 276646.080000
   3154   3156     1   0.10969 276646.080000
   3157   3158     1   0.10969 276646.080000
   3157   3159     1   0.10969 276646.080000
   3162   3163     1   0.10969 276646.080000
   3162   3164     1   0.10969 276646.080000
   3165   3166     1   0.10969 276646.080000
   3165   3167     1   0.10969 276646.080000
   3168   3169     1   0.10969 276646.080000
   3168   3170     1   0.10969 276646.080000
   3171   3172     1   0.10969 276646.080000
   3171   3173     1   0.10969 276646.080000
   3174   3175     1   0.10969 276646.080000
   3174   3176     1   0.10969 276646.080000
   3177   3178     1   0.10969 276646.080000
   3177   3179     1   0.10969 276646.080000
   3180   3181     1   0.10969 276646.080000
   3180   3182     1   0.10969 276646.080000
   3183   3184     1   0.10969 276646.080000
   3183   3185     1   0.10969 276646.080000
   3186   3187     1   0.10969 276646.080000
   3186   3188     1   0.10969 276646.080000
   3191   3192     1   0.10969 276646.080000
   3191   3193     1   0.10969 276646.080000
   3194   3195     1   0.10969 276646.080000
   3194   3196     1   0.10969 276646.080000
   3197   3198     1   0.10969 276646.080000
   3197   3199     1   0.10969 276646.080000
   3200   3201     1   0.10969 276646.080000
   3200   3202     1   0.10969 276646.080000
   3203   3204     1   0.10969 276646.080000
   3203   3205     1   0.10969 276646.080000
   3206   3207     1   0.10969 276646.080000
   3206   3208     1   0.10969 276646.080000
   3209   3210     1   0.10969 276646.080000
   3209   3211     1   0.10969 276646.080000
   3212   3213     1   0.10969 276646.080000
   3212   3214     1   0.10969 276646.080000
   3215   3216     1   0.10969 276646.080000
   3215   3217     1   0.10969 276646.080000
   3220   3221     1   0.10969 276646.080000
   3220   3222     1   0.10969 276646.080000
   3223   3224     1   0.10969 276646.080000
   3223   3225     1   0.10969 276646.080000
   3226   3227     1   0.10969 276646.080000
   3226   3228     1   0.10969 276646.080000
   3229   3230     1   0.10969 276646.080000
   3229   3231     1   0.10969 276646.080000
   3232   3233     1   0.10969 276646.080000
   3232   3234     1   0.10969 276646.080000
   3235   3236     1   0.10969 276646.080000
   3235   3237     1   0.10969 276646.080000
   3238   3239     1   0.10969 276646.080000
   3238   3240     1   0.10969 276646.080000
   3241   3242     1   0.10969 276646.080000
   3241   3243     1   0.10969 276646.080000
   3244   3245     1   0.10969 276646.080000
   3244   3246     1   0.10969 276646.080000
   3249   3250     1   0.10969 276646.080000
   3249   3251     1   0.10969 276646.080000
   3252   3253     1   0.10969 276646.080000
   3252   3254     1   0.10969 276646.080000
   3255   3256     1   0.10969 276646.080000
   3255   3257     1   0.10969 276646.080000
   3258   3259     1   0.10969 276646.080000
   3258   3260     1   0.10969 276646.080000
   3261   3262     1   0.10969 276646.080000
   3261   3263     1   0.10969 276646.080000
   3264   3265     1   0.10969 276646.080000
   3264   3266     1   0.10969 276646.080000
   3267   3268     1   0.10969 276646.080000
   3267   3269     1   0.10969 276646.080000
   3270   3271     1   0.10969 276646.080000
   3270   3272     1   0.10969 276646.080000
   3273   3274     1   0.10969 276646.080000
   3273   3275     1   0.10969 276646.080000
   3278   3279     1   0.10969 276646.080000
   3278   3280     1   0.10969 276646.080000
   3281   3282     1   0.10969 276646.080000
   3281   3283     1   0.10969 276646.080000
   3284   3285     1   0.10969 276646.080000
   3284   3286     1   0.10969 276646.080000
   3287   3288     1   0.10969 276646.080000
   3287   3289     1   0.10969 276646.080000
   3290   3291     1   0.10969 276646.080000
   3290   3292     1   0.10969 276646.080000
   3293   3294     1   0.10969 276646.080000
   3293   3295     1   0.10969 276646.080000
   3296   3297     1   0.10969 276646.080000
   3296   3298     1   0.10969 276646.080000
   3299   3300     1   0.10969 276646.080000
   3299   3301     1   0.10969 276646.080000
   3302   3303     1   0.10969 276646.080000
   3302   3304     1   0.10969 276646.080000
   3307   3308     1   0.10969 276646.080000
   3307   3309     1   0.10969 276646.080000
   3310   3311     1   0.10969 276646.080000
   3310   3312     1   0.10969 276646.080000
   3313   3314     1   0.10969 276646.080000
   3313   3315     1   0.10969 276646.080000
   3316   3317     1   0.10969 276646.080000
   3316   3318     1   0.10969 276646.080000
   3319   3320     1   0.10969 276646.080000
   3319   3321     1   0.10969 276646.080000
   3322   3323     1   0.10969 276646.080000
   3322   3324     1   0.10969 276646.080000
   3325   3326     1   0.10969 276646.080000
   3325   3327     1   0.10969 276646.080000
   3328   3329     1   0.10969 276646.080000
   3328   3330     1   0.10969 276646.080000
   3331   3332     1   0.10969 276646.080000
   3331   3333     1   0.10969 276646.080000
   3336   3337     1   0.10969 276646.080000
   3336   3338     1   0.10969 276646.080000
   3339   3340     1   0.10969 276646.080000
   3339   3341     1   0.10969 276646.080000
   3342   3343     1   0.10969 276646.080000
   3342   3344     1   0.10969 276646.080000
   3345   3346     1   0.10969 276646.080000
   3345   3347     1   0.10969 276646.080000
   3348   3349     1   0.10969 276646.080000
   3348   3350     1   0.10969 276646.080000
   3351   3352     1   0.10969 276646.080000
   3351   3353     1   0.10969 276646.080000
   3354   3355     1   0.10969 276646.080000
   3354   3356     1   0.10969 276646.080000
   3357   3358     1   0.10969 276646.080000
   3357   3359     1   0.10969 276646.080000
   3360   3361     1   0.10969 276646.080000
   3360   3362     1   0.10969 276646.080000
   3365   3366     1   0.10969 276646.080000
   3365   3367     1   0.10969 276646.080000
   3368   3369     1   0.10969 276646.080000
   3368   3370     1   0.10969 276646.080000
   3371   3372     1   0.10969 276646.080000
   3371   3373     1   0.10969 276646.080000
   3374   3375     1   0.10969 276646.080000
   3374   3376     1   0.10969 276646.080000
   3377   3378     1   0.10969 276646.080000
   3377   3379     1   0.10969 276646.080000
   3380   3381     1   0.10969 276646.080000
   3380   3382     1   0.10969 276646.080000
   3383   3384     1   0.10969 276646.080000
   3383   3385     1   0.10969 276646.080000
   3386   3387     1   0.10969 276646.080000
   3386   3388     1   0.10969 276646.080000
   3389   3390     1   0.10969 276646.080000
   3389   3391     1   0.10969 276646.080000
   3394   3395     1   0.10969 276646.080000
   3394   3396     1   0.10969 276646.080000
   3397   3398     1   0.10969 276646.080000
   3397   3399     1   0.10969 276646.080000
   3400   3401     1   0.10969 276646.080000
   3400   3402     1   0.10969 276646.080000
   3403   3404     1   0.10969 276646.080000
   3403   3405     1   0.10969 276646.080000
   3406   3407     1   0.10969 276646.080000
   3406   3408     1   0.10969 276646.080000
   3409   3410     1   0.10969 276646.080000
   3409   3411     1   0.10969 276646.080000
   3412   3413     1   0.10969 276646.080000
   3412   3414     1   0.10969 276646.080000
   3415   3416     1   0.10969 276646.080000
   3415   3417     1   0.10969 276646.080000
   3418   3419     1   0.10969 276646.080000
   3418   3420     1   0.10969 276646.080000
   3423   3424     1   0.10969 276646.080000
   3423   3425     1   0.10969 276646.080000
   3426   3427     1   0.10969 276646.080000
   3426   3428     1   0.10969 276646.080000
   3429   3430     1   0.10969 276646.080000
   3429   3431     1   0.10969 276646.080000
   3432   3433     1   0.10969 276646.080000
   3432   3434     1   0.10969 276646.080000
   3435   3436     1   0.10969 276646.080000
   3435   3437     1   0.10969 276646.080000
   3438   3439     1   0.10969 276646.080000
   3438   3440     1   0.10969 276646.080000
   3441   3442     1   0.10969 276646.080000
   3441   3443     1   0.10969 276646.080000
   3444   3445     1   0.10969 276646.080000
   3444   3446     1   0.10969 276646.080000
   3447   3448     1   0.10969 276646.080000
   3447   3449     1   0.10969 276646.080000
   3452   3453     1   0.10969 276646.080000
   3452   3454     1   0.10969 276646.080000
   3455   3456     1   0.10969 276646.080000
   3455   3457     1   0.10969 276646.080000
   3458   3459     1   0.10969 276646.080000
   3458   3460     1   0.10969 276646.080000
   3461   3462     1   0.10969 276646.080000
   3461   3463     1   0.10969 276646.080000
   3464   3465     1   0.10969 276646.080000
   3464   3466     1   0.10969 276646.080000
   3467   3468     1   0.10969 276646.080000
   3467   3469     1   0.10969 276646.080000
   3470   3471     1   0.10969 276646.080000
   3470   3472     1   0.10969 276646.080000
   3473   3474     1   0.10969 276646.080000
   3473   3475     1   0.10969 276646.080000
   3476   3477     1   0.10969 276646.080000
   3476   3478     1   0.10969 276646.080000
   3481   3482     1   0.10969 276646.080000
   3481   3483     1   0.10969 276646.080000
   3484   3485     1   0.10969 276646.080000
   3484   3486     1   0.10969 276646.080000
   3487   3488     1   0.10969 276646.080000
   3487   3489     1   0.10969 276646.080000
   3490   3491     1   0.10969 276646.080000
   3490   3492     1   0.10969 276646.080000
   3493   3494     1   0.10969 276646.080000
   3493   3495     1   0.10969 276646.080000
   3496   3497     1   0.10969 276646.080000
   3496   3498     1   0.10969 276646.080000
   3499   3500     1   0.10969 276646.080000
   3499   3501     1   0.10969 276646.080000
   3502   3503     1   0.10969 276646.080000
   3502   3504     1   0.10969 276646.080000
   3505   3506     1   0.10969 276646.080000
   3505   3507     1   0.10969 276646.080000
   3510   3511     1   0.10969 276646.080000
   3510   3512     1   0.10969 276646.080000
   3513   3514     1   0.10969 276646.080000
   3513   3515     1   0.10969 276646.080000
   3516   3517     1   0.10969 276646.080000
   3516   3518     1   0.10969 276646.080000
   3519   3520     1   0.10969 276646.080000
   3519   3521     1   0.10969 276646.080000
   3522   3523     1   0.10969 276646.080000
   3522   3524     1   0.10969 276646.080000
   3525   3526     1   0.10969 276646.080000
   3525   3527     1   0.10969 276646.080000
   3528   3529     1   0.10969 276646.080000
   3528   3530     1   0.10969 276646.080000
   3531   3532     1   0.10969 276646.080000
   3531   3533     1   0.10969 276646.080000
   3534   3535     1   0.10969 276646.080000
   3534   3536     1   0.10969 276646.080000
   3539   3540     1   0.10969 276646.080000
   3539   3541     1   0.10969 276646.080000
   3542   3543     1   0.10969 276646.080000
   3542   3544     1   0.10969 276646.080000
   3545   3546     1   0.10969 276646.080000
   3545   3547     1   0.10969 276646.080000
   3548   3549     1   0.10969 276646.080000
   3548   3550     1   0.10969 276646.080000
   3551   3552     1   0.10969 276646.080000
   3551   3553     1   0.10969 276646.080000
   3554   3555     1   0.10969 276646.080000
   3554   3556     1   0.10969 276646.080000
   3557   3558     1   0.10969 276646.080000
   3557   3559     1   0.10969 276646.080000
   3560   3561     1   0.10969 276646.080000
   3560   3562     1   0.10969 276646.080000
   3563   3564     1   0.10969 276646.080000
   3563   3565     1   0.10969 276646.080000
   3568   3569     1   0.10969 276646.080000
   3568   3570     1   0.10969 276646.080000
   3571   3572     1   0.10969 276646.080000
   3571   3573     1   0.10969 276646.080000
   3574   3575     1   0.10969 276646.080000
   3574   3576     1   0.10969 276646.080000
   3577   3578     1   0.10969 276646.080000
   3577   3579     1   0.10969 276646.080000
   3580   3581     1   0.10969 276646.080000
   3580   3582     1   0.10969 276646.080000
   3583   3584     1   0.10969 276646.080000
   3583   3585     1   0.10969 276646.080000
   3586   3587     1   0.10969 276646.080000
   3586   3588     1   0.10969 276646.080000
   3589   3590     1   0.10969 276646.080000
   3589   3591     1   0.10969 276646.080000
   3592   3593     1   0.10969 276646.080000
   3592   3594     1   0.10969 276646.080000
   3597   3598     1   0.10969 276646.080000
   3597   3599     1   0.10969 276646.080000
   3600   3601     1   0.10969 276646.080000
   3600   3602     1   0.10969 276646.080000
   3603   3604     1   0.10969 276646.080000
   3603   3605     1   0.10969 276646.080000
   3606   3607     1   0.10969 276646.080000
   3606   3608     1   0.10969 276646.080000
   3609   3610     1   0.10969 276646.080000
   3609   3611     1   0.10969 276646.080000
   3612   3613     1   0.10969 276646.080000
   3612   3614     1   0.10969 276646.080000
   3615   3616     1   0.10969 276646.080000
   3615   3617     1   0.10969 276646.080000
   3618   3619     1   0.10969 276646.080000
   3618   3620     1   0.10969 276646.080000
   3621   3622     1   0.10969 276646.080000
   3621   3623     1   0.10969 276646.080000
   3626   3627     1   0.10969 276646.080000
   3626   3628     1   0.10969 276646.080000
   3629   3630     1   0.10969 276646.080000
   3629   3631     1   0.10969 276646.080000
   3632   3633     1   0.10969 276646.080000
   3632   3634     1   0.10969 276646.080000
   3635   3636     1   0.10969 276646.080000
   3635   3637     1   0.10969 276646.080000
   3638   3639     1   0.10969 276646.080000
   3638   3640     1   0.10969 276646.080000
   3641   3642     1   0.10969 276646.080000
   3641   3643     1   0.10969 276646.080000
   3644   3645     1   0.10969 276646.080000
   3644   3646     1   0.10969 276646.080000
   3647   3648     1   0.10969 276646.080000
   3647   3649     1   0.10969 276646.080000
   3650   3651     1   0.10969 276646.080000
   3650   3652     1   0.10969 276646.080000
   3655   3656     1   0.10969 276646.080000
   3655   3657     1   0.10969 276646.080000
   3658   3659     1   0.10969 276646.080000
   3658   3660     1   0.10969 276646.080000
   3661   3662     1   0.10969 276646.080000
   3661   3663     1   0.10969 276646.080000
   3664   3665     1   0.10969 276646.080000
   3664   3666     1   0.10969 276646.080000
   3667   3668     1   0.10969 276646.080000
   3667   3669     1   0.10969 276646.080000
   3670   3671     1   0.10969 276646.080000
   3670   3672     1   0.10969 276646.080000
   3673   3674     1   0.10969 276646.080000
   3673   3675     1   0.10969 276646.080000
   3676   3677     1   0.10969 276646.080000
   3676   3678     1   0.10969 276646.080000
   3679   3680     1   0.10969 276646.080000
   3679   3681     1   0.10969 276646.080000
   3684   3685     1   0.10969 276646.080000
   3684   3686     1   0.10969 276646.080000
   3687   3688     1   0.10969 276646.080000
   3687   3689     1   0.10969 276646.080000
   3690   3691     1   0.10969 276646.080000
   3690   3692     1   0.10969 276646.080000
   3693   3694     1   0.10969 276646.080000
   3693   3695     1   0.10969 276646.080000
   3696   3697     1   0.10969 276646.080000
   3696   3698     1   0.10969 276646.080000
   3699   3700     1   0.10969 276646.080000
   3699   3701     1   0.10969 276646.080000
   3702   3703     1   0.10969 276646.080000
   3702   3704     1   0.10969 276646.080000
   3705   3706     1   0.10969 276646.080000
   3705   3707     1   0.10969 276646.080000
   3708   3709     1   0.10969 276646.080000
   3708   3710     1   0.10969 276646.080000
   3713   3714     1   0.10969 276646.080000
   3713   3715     1   0.10969 276646.080000
   3716   3717     1   0.10969 276646.080000
   3716   3718     1   0.10969 276646.080000
   3719   3720     1   0.10969 276646.080000
   3719   3721     1   0.10969 276646.080000
   3722   3723     1   0.10969 276646.080000
   3722   3724     1   0.10969 276646.080000
   3725   3726     1   0.10969 276646.080000
   3725   3727     1   0.10969 276646.080000
   3728   3729     1   0.10969 276646.080000
   3728   3730     1   0.10969 276646.080000
   3731   3732     1   0.10969 276646.080000
   3731   3733     1   0.10969 276646.080000
   3734   3735     1   0.10969 276646.080000
   3734   3736     1   0.10969 276646.080000
   3737   3738     1   0.10969 276646.080000
   3737   3739     1   0.10969 276646.080000
   3742   3743     1   0.10969 276646.080000
   3742   3744     1   0.10969 276646.080000
   3745   3746     1   0.10969 276646.080000
   3745   3747     1   0.10969 276646.080000
   3748   3749     1   0.10969 276646.080000
   3748   3750     1   0.10969 276646.080000
   3751   3752     1   0.10969 276646.080000
   3751   3753     1   0.10969 276646.080000
   3754   3755     1   0.10969 276646.080000
   3754   3756     1   0.10969 276646.080000
   3757   3758     1   0.10969 276646.080000
   3757   3759     1   0.10969 276646.080000
   3760   3761     1   0.10969 276646.080000
   3760   3762     1   0.10969 276646.080000
   3763   3764     1   0.10969 276646.080000
   3763   3765     1   0.10969 276646.080000
   3766   3767     1   0.10969 276646.080000
   3766   3768     1   0.10969 276646.080000
   3771   3772     1   0.10969 276646.080000
   3771   3773     1   0.10969 276646.080000
   3774   3775     1   0.10969 276646.080000
   3774   3776     1   0.10969 276646.080000
   3777   3778     1   0.10969 276646.080000
   3777   3779     1   0.10969 276646.080000
   3780   3781     1   0.10969 276646.080000
   3780   3782     1   0.10969 276646.080000
   3783   3784     1   0.10969 276646.080000
   3783   3785     1   0.10969 276646.080000
   3786   3787     1   0.10969 276646.080000
   3786   3788     1   0.10969 276646.080000
   3789   3790     1   0.10969 276646.080000
   3789   3791     1   0.10969 276646.080000
   3792   3793     1   0.10969 276646.080000
   3792   3794     1   0.10969 276646.080000
   3795   3796     1   0.10969 276646.080000
   3795   3797     1   0.10969 276646.080000
   3800   3801     1   0.10969 276646.080000
   3800   3802     1   0.10969 276646.080000
   3803   3804     1   0.10969 276646.080000
   3803   3805     1   0.10969 276646.080000
   3806   3807     1   0.10969 276646.080000
   3806   3808     1   0.10969 276646.080000
   3809   3810     1   0.10969 276646.080000
   3809   3811     1   0.10969 276646.080000
   3812   3813     1   0.10969 276646.080000
   3812   3814     1   0.10969 276646.080000
   3815   3816     1   0.10969 276646.080000
   3815   3817     1   0.10969 276646.080000
   3818   3819     1   0.10969 276646.080000
   3818   3820     1   0.10969 276646.080000
   3821   3822     1   0.10969 276646.080000
   3821   3823     1   0.10969 276646.080000
   3824   3825     1   0.10969 276646.080000
   3824   3826     1   0.10969 276646.080000
   3829   3830     1   0.10969 276646.080000
   3829   3831     1   0.10969 276646.080000
   3832   3833     1   0.10969 276646.080000
   3832   3834     1   0.10969 276646.080000
   3835   3836     1   0.10969 276646.080000
   3835   3837     1   0.10969 276646.080000
   3838   3839     1   0.10969 276646.080000
   3838   3840     1   0.10969 276646.080000
   3841   3842     1   0.10969 276646.080000
   3841   3843     1   0.10969 276646.080000
   3844   3845     1   0.10969 276646.080000
   3844   3846     1   0.10969 276646.080000
   3847   3848     1   0.10969 276646.080000
   3847   3849     1   0.10969 276646.080000
   3850   3851     1   0.10969 276646.080000
   3850   3852     1   0.10969 276646.080000
   3853   3854     1   0.10969 276646.080000
   3853   3855     1   0.10969 276646.080000
   3858   3859     1   0.10969 276646.080000
   3858   3860     1   0.10969 276646.080000
   3861   3862     1   0.10969 276646.080000
   3861   3863     1   0.10969 276646.080000
   3864   3865     1   0.10969 276646.080000
   3864   3866     1   0.10969 276646.080000
   3867   3868     1   0.10969 276646.080000
   3867   3869     1   0.10969 276646.080000
   3870   3871     1   0.10969 276646.080000
   3870   3872     1   0.10969 276646.080000
   3873   3874     1   0.10969 276646.080000
   3873   3875     1   0.10969 276646.080000
   3876   3877     1   0.10969 276646.080000
   3876   3878     1   0.10969 276646.080000
   3879   3880     1   0.10969 276646.080000
   3879   3881     1   0.10969 276646.080000
   3882   3883     1   0.10969 276646.080000
   3882   3884     1   0.10969 276646.080000
   3887   3888     1   0.10969 276646.080000
   3887   3889     1   0.10969 276646.080000
   3890   3891     1   0.10969 276646.080000
   3890   3892     1   0.10969 276646.080000
   3893   3894     1   0.10969 276646.080000
   3893   3895     1   0.10969 276646.080000
   3896   3897     1   0.10969 276646.080000
   3896   3898     1   0.10969 276646.080000
   3899   3900     1   0.10969 276646.080000
   3899   3901     1   0.10969 276646.080000
   3902   3903     1   0.10969 276646.080000
   3902   3904     1   0.10969 276646.080000
   3905   3906     1   0.10969 276646.080000
   3905   3907     1   0.10969 276646.080000
   3908   3909     1   0.10969 276646.080000
   3908   3910     1   0.10969 276646.080000
   3911   3912     1   0.10969 276646.080000
   3911   3913     1   0.10969 276646.080000
   3916   3917     1   0.10969 276646.080000
   3916   3918     1   0.10969 276646.080000
   3919   3920     1   0.10969 276646.080000
   3919   3921     1   0.10969 276646.080000
   3922   3923     1   0.10969 276646.080000
   3922   3924     1   0.10969 276646.080000
   3925   3926     1   0.10969 276646.080000
   3925   3927     1   0.10969 276646.080000
   3928   3929     1   0.10969 276646.080000
   3928   3930     1   0.10969 276646.080000
   3931   3932     1   0.10969 276646.080000
   3931   3933     1   0.10969 276646.080000
   3934   3935     1   0.10969 276646.080000
   3934   3936     1   0.10969 276646.080000
   3937   3938     1   0.10969 276646.080000
   3937   3939     1   0.10969 276646.080000
   3940   3941     1   0.10969 276646.080000
   3940   3942     1   0.10969 276646.080000
   3945   3946     1   0.10969 276646.080000
   3945   3947     1   0.10969 276646.080000
   3948   3949     1   0.10969 276646.080000
   3948   3950     1   0.10969 276646.080000
   3951   3952     1   0.10969 276646.080000
   3951   3953     1   0.10969 276646.080000
   3954   3955     1   0.10969 276646.080000
   3954   3956     1   0.10969 276646.080000
   3957   3958     1   0.10969 276646.080000
   3957   3959     1   0.10969 276646.080000
   3960   3961     1   0.10969 276646.080000
   3960   3962     1   0.10969 276646.080000
   3963   3964     1   0.10969 276646.080000
   3963   3965     1   0.10969 276646.080000
   3966   3967     1   0.10969 276646.080000
   3966   3968     1   0.10969 276646.080000
   3969   3970     1   0.10969 276646.080000
   3969   3971     1   0.10969 276646.080000
   3974   3975     1   0.10969 276646.080000
   3974   3976     1   0.10969 276646.080000
   3977   3978     1   0.10969 276646.080000
   3977   3979     1   0.10969 276646.080000
   3980   3981     1   0.10969 276646.080000
   3980   3982     1   0.10969 276646.080000
   3983   3984     1   0.10969 276646.080000
   3983   3985     1   0.10969 276646.080000
   3986   3987     1   0.10969 276646.080000
   3986   3988     1   0.10969 276646.080000
   3989   3990     1   0.10969 276646.080000
   3989   3991     1   0.10969 276646.080000
   3992   3993     1   0.10969 276646.080000
   3992   3994     1   0.10969 276646.080000
   3995   3996     1   0.10969 276646.080000
   3995   3997     1   0.10969 276646.080000
   3998   3999     1   0.10969 276646.080000
   3998   4000     1   0.10969 276646.080000
   4003   4004     1   0.10969 276646.080000
   4003   4005     1   0.10969 276646.080000
   4006   4007     1   0.10969 276646.080000
   4006   4008     1   0.10969 276646.080000
   4009   4010     1   0.10969 276646.080000
   4009   4011     1   0.10969 276646.080000
   4012   4013     1   0.10969 276646.080000
   4012   4014     1   0.10969 276646.080000
   4015   4016     1   0.10969 276646.080000
   4015   4017     1   0.10969 276646.080000
   4018   4019     1   0.10969 276646.080000
   4018   4020     1   0.10969 276646.080000
   4021   4022     1   0.10969 276646.080000
   4021   4023     1   0.10969 276646.080000
   4024   4025     1   0.10969 276646.080000
   4024   4026     1   0.10969 276646.080000
   4027   4028     1   0.10969 276646.080000
   4027   4029     1   0.10969 276646.080000
   4032   4033     1   0.10969 276646.080000
   4032   4034     1   0.10969 276646.080000
   4035   4036     1   0.10969 276646.080000
   4035   4037     1   0.10969 276646.080000
   4038   4039     1   0.10969 276646.080000
   4038   4040     1   0.10969 276646.080000
   4041   4042     1   0.10969 276646.080000
   4041   4043     1   0.10969 276646.080000
   4044   4045     1   0.10969 276646.080000
   4044   4046     1   0.10969 276646.080000
   4047   4048     1   0.10969 276646.080000
   4047   4049     1   0.10969 276646.080000
   4050   4051     1   0.10969 276646.080000
   4050   4052     1   0.10969 276646.080000
   4053   4054     1   0.10969 276646.080000
   4053   4055     1   0.10969 276646.080000
   4056   4057     1   0.10969 276646.080000
   4056   4058     1   0.10969 276646.080000
   4061   4062     1   0.10969 276646.080000
   4061   4063     1   0.10969 276646.080000
   4064   4065     1   0.10969 276646.080000
   4064   4066     1   0.10969 276646.080000
   4067   4068     1   0.10969 276646.080000
   4067   4069     1   0.10969 276646.080000
   4070   4071     1   0.10969 276646.080000
   4070   4072     1   0.10969 276646.080000
   4073   4074     1   0.10969 276646.080000
   4073   4075     1   0.10969 276646.080000
   4076   4077     1   0.10969 276646.080000
   4076   4078     1   0.10969 276646.080000
   4079   4080     1   0.10969 276646.080000
   4079   4081     1   0.10969 276646.080000
   4082   4083     1   0.10969 276646.080000
   4082   4084     1   0.10969 276646.080000
   4085   4086     1   0.10969 276646.080000
   4085   4087     1   0.10969 276646.080000
   4090   4091     1   0.10969 276646.080000
   4090   4092     1   0.10969 276646.080000
   4093   4094     1   0.10969 276646.080000
   4093   4095     1   0.10969 276646.080000
   4096   4097     1   0.10969 276646.080000
   4096   4098     1   0.10969 276646.080000
   4099   4100     1   0.10969 276646.080000
   4099   4101     1   0.10969 276646.080000
   4102   4103     1   0.10969 276646.080000
   4102   4104     1   0.10969 276646.080000
   4105   4106     1   0.10969 276646.080000
   4105   4107     1   0.10969 276646.080000
   4108   4109     1   0.10969 276646.080000
   4108   4110     1   0.10969 276646.080000
   4111   4112     1   0.10969 276646.080000
   4111   4113     1   0.10969 276646.080000
   4114   4115     1   0.10969 276646.080000
   4114   4116     1   0.10969 276646.080000
   4119   4120     1   0.10969 276646.080000
   4119   4121     1   0.10969 276646.080000
   4122   4123     1   0.10969 276646.080000
   4122   4124     1   0.10969 276646.080000
   4125   4126     1   0.10969 276646.080000
   4125   4127     1   0.10969 276646.080000
   4128   4129     1   0.10969 276646.080000
   4128   4130     1   0.10969 276646.080000
   4131   4132     1   0.10969 276646.080000
   4131   4133     1   0.10969 276646.080000
   4134   4135     1   0.10969 276646.080000
   4134   4136     1   0.10969 276646.080000
   4137   4138     1   0.10969 276646.080000
   4137   4139     1   0.10969 276646.080000
   4140   4141     1   0.10969 276646.080000
   4140   4142     1   0.10969 276646.080000
   4143   4144     1   0.10969 276646.080000
   4143   4145     1   0.10969 276646.080000
   4148   4149     1   0.10969 276646.080000
   4148   4150     1   0.10969 276646.080000
   4151   4152     1   0.10969 276646.080000
   4151   4153     1   0.10969 276646.080000
   4154   4155     1   0.10969 276646.080000
   4154   4156     1   0.10969 276646.080000
   4157   4158     1   0.10969 276646.080000
   4157   4159     1   0.10969 276646.080000
   4160   4161     1   0.10969 276646.080000
   4160   4162     1   0.10969 276646.080000
   4163   4164     1   0.10969 276646.080000
   4163   4165     1   0.10969 276646.080000
   4166   4167     1   0.10969 276646.080000
   4166   4168     1   0.10969 276646.080000
   4169   4170     1   0.10969 276646.080000
   4169   4171     1   0.10969 276646.080000
   4172   4173     1   0.10969 276646.080000
   4172   4174     1   0.10969 276646.080000
   4177   4178     1   0.10969 276646.080000
   4177   4179     1   0.10969 276646.080000
   4180   4181     1   0.10969 276646.080000
   4180   4182     1   0.10969 276646.080000
   4183   4184     1   0.10969 276646.080000
   4183   4185     1   0.10969 276646.080000
   4186   4187     1   0.10969 276646.080000
   4186   4188     1   0.10969 276646.080000
   4189   4190     1   0.10969 276646.080000
   4189   4191     1   0.10969 276646.080000
   4192   4193     1   0.10969 276646.080000
   4192   4194     1   0.10969 276646.080000
   4195   4196     1   0.10969 276646.080000
   4195   4197     1   0.10969 276646.080000
   4198   4199     1   0.10969 276646.080000
   4198   4200     1   0.10969 276646.080000
   4201   4202     1   0.10969 276646.080000
   4201   4203     1   0.10969 276646.080000
   4206   4207     1   0.10969 276646.080000
   4206   4208     1   0.10969 276646.080000
   4209   4210     1   0.10969 276646.080000
   4209   4211     1   0.10969 276646.080000
   4212   4213     1   0.10969 276646.080000
   4212   4214     1   0.10969 276646.080000
   4215   4216     1   0.10969 276646.080000
   4215   4217     1   0.10969 276646.080000
   4218   4219     1   0.10969 276646.080000
   4218   4220     1   0.10969 276646.080000
   4221   4222     1   0.10969 276646.080000
   4221   4223     1   0.10969 276646.080000
   4224   4225     1   0.10969 276646.080000
   4224   4226     1   0.10969 276646.080000
   4227   4228     1   0.10969 276646.080000
   4227   4229     1   0.10969 276646.080000
   4230   4231     1   0.10969 276646.080000
   4230   4232     1   0.10969 276646.080000
   4235   4236     1   0.10969 276646.080000
   4235   4237     1   0.10969 276646.080000
   4238   4239     1   0.10969 276646.080000
   4238   4240     1   0.10969 276646.080000
   4241   4242     1   0.10969 276646.080000
   4241   4243     1   0.10969 276646.080000
   4244   4245     1   0.10969 276646.080000
   4244   4246     1   0.10969 276646.080000
   4247   4248     1   0.10969 276646.080000
   4247   4249     1   0.10969 276646.080000
   4250   4251     1   0.10969 276646.080000
   4250   4252     1   0.10969 276646.080000
   4253   4254     1   0.10969 276646.080000
   4253   4255     1   0.10969 276646.080000
   4256   4257     1   0.10969 276646.080000
   4256   4258     1   0.10969 276646.080000
   4259   4260     1   0.10969 276646.080000
   4259   4261     1   0.10969 276646.080000
   4264   4265     1   0.10969 276646.080000
   4264   4266     1   0.10969 276646.080000
   4267   4268     1   0.10969 276646.080000
   4267   4269     1   0.10969 276646.080000
   4270   4271     1   0.10969 276646.080000
   4270   4272     1   0.10969 276646.080000
   4273   4274     1   0.10969 276646.080000
   4273   4275     1   0.10969 276646.080000
   4276   4277     1   0.10969 276646.080000
   4276   4278     1   0.10969 276646.080000
   4279   4280     1   0.10969 276646.080000
   4279   4281     1   0.10969 276646.080000
   4282   4283     1   0.10969 276646.080000
   4282   4284     1   0.10969 276646.080000
   4285   4286     1   0.10969 276646.080000
   4285   4287     1   0.10969 276646.080000
   4288   4289     1   0.10969 276646.080000
   4288   4290     1   0.10969 276646.080000
   4293   4294     1   0.10969 276646.080000
   4293   4295     1   0.10969 276646.080000
   4296   4297     1   0.10969 276646.080000
   4296   4298     1   0.10969 276646.080000
   4299   4300     1   0.10969 276646.080000
   4299   4301     1   0.10969 276646.080000
   4302   4303     1   0.10969 276646.080000
   4302   4304     1   0.10969 276646.080000
   4305   4306     1   0.10969 276646.080000
   4305   4307     1   0.10969 276646.080000
   4308   4309     1   0.10969 276646.080000
   4308   4310     1   0.10969 276646.080000
   4311   4312     1   0.10969 276646.080000
   4311   4313     1   0.10969 276646.080000
   4314   4315     1   0.10969 276646.080000
   4314   4316     1   0.10969 276646.080000
   4317   4318     1   0.10969 276646.080000
   4317   4319     1   0.10969 276646.080000
   4322   4323     1   0.10969 276646.080000
   4322   4324     1   0.10969 276646.080000
   4325   4326     1   0.10969 276646.080000
   4325   4327     1   0.10969 276646.080000
   4328   4329     1   0.10969 276646.080000
   4328   4330     1   0.10969 276646.080000
   4331   4332     1   0.10969 276646.080000
   4331   4333     1   0.10969 276646.080000
   4334   4335     1   0.10969 276646.080000
   4334   4336     1   0.10969 276646.080000
   4337   4338     1   0.10969 276646.080000
   4337   4339     1   0.10969 276646.080000
   4340   4341     1   0.10969 276646.080000
   4340   4342     1   0.10969 276646.080000
   4343   4344     1   0.10969 276646.080000
   4343   4345     1   0.10969 276646.080000
   4346   4347     1   0.10969 276646.080000
   4346   4348     1   0.10969 276646.080000
   4351   4352     1   0.10969 276646.080000
   4351   4353     1   0.10969 276646.080000
   4354   4355     1   0.10969 276646.080000
   4354   4356     1   0.10969 276646.080000
   4357   4358     1   0.10969 276646.080000
   4357   4359     1   0.10969 276646.080000
   4360   4361     1   0.10969 276646.080000
   4360   4362     1   0.10969 276646.080000
   4363   4364     1   0.10969 276646.080000
   4363   4365     1   0.10969 276646.080000
   4366   4367     1   0.10969 276646.080000
   4366   4368     1   0.10969 276646.080000
   4369   4370     1   0.10969 276646.080000
   4369   4371     1   0.10969 276646.080000
   4372   4373     1   0.10969 276646.080000
   4372   4374     1   0.10969 276646.080000
   4375   4376     1   0.10969 276646.080000
   4375   4377     1   0.10969 276646.080000
   4380   4381     1   0.10969 276646.080000
   4380   4382     1   0.10969 276646.080000
   4383   4384     1   0.10969 276646.080000
   4383   4385     1   0.10969 276646.080000
   4386   4387     1   0.10969 276646.080000
   4386   4388     1   0.10969 276646.080000
   4389   4390     1   0.10969 276646.080000
   4389   4391     1   0.10969 276646.080000
   4392   4393     1   0.10969 276646.080000
   4392   4394     1   0.10969 276646.080000
   4395   4396     1   0.10969 276646.080000
   4395   4397     1   0.10969 276646.080000
   4398   4399     1   0.10969 276646.080000
   4398   4400     1   0.10969 276646.080000
   4401   4402     1   0.10969 276646.080000
   4401   4403     1   0.10969 276646.080000
   4404   4405     1   0.10969 276646.080000
   4404   4406     1   0.10969 276646.080000
   4409   4410     1   0.10969 276646.080000
   4409   4411     1   0.10969 276646.080000
   4412   4413     1   0.10969 276646.080000
   4412   4414     1   0.10969 276646.080000
   4415   4416     1   0.10969 276646.080000
   4415   4417     1   0.10969 276646.080000
   4418   4419     1   0.10969 276646.080000
   4418   4420     1   0.10969 276646.080000
   4421   4422     1   0.10969 276646.080000
   4421   4423     1   0.10969 276646.080000
   4424   4425     1   0.10969 276646.080000
   4424   4426     1   0.10969 276646.080000
   4427   4428     1   0.10969 276646.080000
   4427   4429     1   0.10969 276646.080000
   4430   4431     1   0.10969 276646.080000
   4430   4432     1   0.10969 276646.080000
   4433   4434     1   0.10969 276646.080000
   4433   4435     1   0.10969 276646.080000
   4438   4439     1   0.10969 276646.080000
   4438   4440     1   0.10969 276646.080000
   4441   4442     1   0.10969 276646.080000
   4441   4443     1   0.10969 276646.080000
   4444   4445     1   0.10969 276646.080000
   4444   4446     1   0.10969 276646.080000
   4447   4448     1   0.10969 276646.080000
   4447   4449     1   0.10969 276646.080000
   4450   4451     1   0.10969 276646.080000
   4450   4452     1   0.10969 276646.080000
   4453   4454     1   0.10969 276646.080000
   4453   4455     1   0.10969 276646.080000
   4456   4457     1   0.10969 276646.080000
   4456   4458     1   0.10969 276646.080000
   4459   4460     1   0.10969 276646.080000
   4459   4461     1   0.10969 276646.080000
   4462   4463     1   0.10969 276646.080000
   4462   4464     1   0.10969 276646.080000
   4467   4468     1   0.10969 276646.080000
   4467   4469     1   0.10969 276646.080000
   4470   4471     1   0.10969 276646.080000
   4470   4472     1   0.10969 276646.080000
   4473   4474     1   0.10969 276646.080000
   4473   4475     1   0.10969 276646.080000
   4476   4477     1   0.10969 276646.080000
   4476   4478     1   0.10969 276646.080000
   4479   4480     1   0.10969 276646.080000
   4479   4481     1   0.10969 276646.080000
   4482   4483     1   0.10969 276646.080000
   4482   4484     1   0.10969 276646.080000
   4485   4486     1   0.10969 276646.080000
   4485   4487     1   0.10969 276646.080000
   4488   4489     1   0.10969 276646.080000
   4488   4490     1   0.10969 276646.080000
   4491   4492     1   0.10969 276646.080000
   4491   4493     1   0.10969 276646.080000
   4496   4497     1   0.10969 276646.080000
   4496   4498     1   0.10969 276646.080000
   4499   4500     1   0.10969 276646.080000
   4499   4501     1   0.10969 276646.080000
   4502   4503     1   0.10969 276646.080000
   4502   4504     1   0.10969 276646.080000
   4505   4506     1   0.10969 276646.080000
   4505   4507     1   0.10969 276646.080000
   4508   4509     1   0.10969 276646.080000
   4508   4510     1   0.10969 276646.080000
   4511   4512     1   0.10969 276646.080000
   4511   4513     1   0.10969 276646.080000
   4514   4515     1   0.10969 276646.080000
   4514   4516     1   0.10969 276646.080000
   4517   4518     1   0.10969 276646.080000
   4517   4519     1   0.10969 276646.080000
   4520   4521     1   0.10969 276646.080000
   4520   4522     1   0.10969 276646.080000
   4525   4526     1   0.10969 276646.080000
   4525   4527     1   0.10969 276646.080000
   4528   4529     1   0.10969 276646.080000
   4528   4530     1   0.10969 276646.080000
   4531   4532     1   0.10969 276646.080000
   4531   4533     1   0.10969 276646.080000
   4534   4535     1   0.10969 276646.080000
   4534   4536     1   0.10969 276646.080000
   4537   4538     1   0.10969 276646.080000
   4537   4539     1   0.10969 276646.080000
   4540   4541     1   0.10969 276646.080000
   4540   4542     1   0.10969 276646.080000
   4543   4544     1   0.10969 276646.080000
   4543   4545     1   0.10969 276646.080000
   4546   4547     1   0.10969 276646.080000
   4546   4548     1   0.10969 276646.080000
   4549   4550     1   0.10969 276646.080000
   4549   4551     1   0.10969 276646.080000
   4554   4555     1   0.10969 276646.080000
   4554   4556     1   0.10969 276646.080000
   4557   4558     1   0.10969 276646.080000
   4557   4559     1   0.10969 276646.080000
   4560   4561     1   0.10969 276646.080000
   4560   4562     1   0.10969 276646.080000
   4563   4564     1   0.10969 276646.080000
   4563   4565     1   0.10969 276646.080000
   4566   4567     1   0.10969 276646.080000
   4566   4568     1   0.10969 276646.080000
   4569   4570     1   0.10969 276646.080000
   4569   4571     1   0.10969 276646.080000
   4572   4573     1   0.10969 276646.080000
   4572   4574     1   0.10969 276646.080000
   4575   4576     1   0.10969 276646.080000
   4575   4577     1   0.10969 276646.080000
   4578   4579     1   0.10969 276646.080000
   4578   4580     1   0.10969 276646.080000
   4583   4584     1   0.10969 276646.080000
   4583   4585     1   0.10969 276646.080000
   4586   4587     1   0.10969 276646.080000
   4586   4588     1   0.10969 276646.080000
   4589   4590     1   0.10969 276646.080000
   4589   4591     1   0.10969 276646.080000
   4592   4593     1   0.10969 276646.080000
   4592   4594     1   0.10969 276646.080000
   4595   4596     1   0.10969 276646.080000
   4595   4597     1   0.10969 276646.080000
   4598   4599     1   0.10969 276646.080000
   4598   4600     1   0.10969 276646.080000
   4601   4602     1   0.10969 276646.080000
   4601   4603     1   0.10969 276646.080000
   4604   4605     1   0.10969 276646.080000
   4604   4606     1   0.10969 276646.080000
   4607   4608     1   0.10969 276646.080000
   4607   4609     1   0.10969 276646.080000
   4612   4613     1   0.10969 276646.080000
   4612   4614     1   0.10969 276646.080000
   4615   4616     1   0.10969 276646.080000
   4615   4617     1   0.10969 276646.080000
   4618   4619     1   0.10969 276646.080000
   4618   4620     1   0.10969 276646.080000
   4621   4622     1   0.10969 276646.080000
   4621   4623     1   0.10969 276646.080000
   4624   4625     1   0.10969 276646.080000
   4624   4626     1   0.10969 276646.080000
   4627   4628     1   0.10969 276646.080000
   4627   4629     1   0.10969 276646.080000
   4630   4631     1   0.10969 276646.080000
   4630   4632     1   0.10969 276646.080000
   4633   4634     1   0.10969 276646.080000
   4633   4635     1   0.10969 276646.080000
   4636   4637     1   0.10969 276646.080000
   4636   4638     1   0.10969 276646.080000
   4641   4642     1   0.10969 276646.080000
   4641   4643     1   0.10969 276646.080000
   4644   4645     1   0.10969 276646.080000
   4644   4646     1   0.10969 276646.080000
   4647   4648     1   0.10969 276646.080000
   4647   4649     1   0.10969 276646.080000
   4650   4651     1   0.10969 276646.080000
   4650   4652     1   0.10969 276646.080000
   4653   4654     1   0.10969 276646.080000
   4653   4655     1   0.10969 276646.080000
   4656   4657     1   0.10969 276646.080000
   4656   4658     1   0.10969 276646.080000
   4659   4660     1   0.10969 276646.080000
   4659   4661     1   0.10969 276646.080000
   4662   4663     1   0.10969 276646.080000
   4662   4664     1   0.10969 276646.080000
   4665   4666     1   0.10969 276646.080000
   4665   4667     1   0.10969 276646.080000
   4670   4671     1   0.10969 276646.080000
   4670   4672     1   0.10969 276646.080000
   4673   4674     1   0.10969 276646.080000
   4673   4675     1   0.10969 276646.080000
   4676   4677     1   0.10969 276646.080000
   4676   4678     1   0.10969 276646.080000
   4679   4680     1   0.10969 276646.080000
   4679   4681     1   0.10969 276646.080000
   4682   4683     1   0.10969 276646.080000
   4682   4684     1   0.10969 276646.080000
   4685   4686     1   0.10969 276646.080000
   4685   4687     1   0.10969 276646.080000
   4688   4689     1   0.10969 276646.080000
   4688   4690     1   0.10969 276646.080000
   4691   4692     1   0.10969 276646.080000
   4691   4693     1   0.10969 276646.080000
   4694   4695     1   0.10969 276646.080000
   4694   4696     1   0.10969 276646.080000
   4699   4700     1   0.10969 276646.080000
   4699   4701     1   0.10969 276646.080000
   4702   4703     1   0.10969 276646.080000
   4702   4704     1   0.10969 276646.080000
   4705   4706     1   0.10969 276646.080000
   4705   4707     1   0.10969 276646.080000
   4708   4709     1   0.10969 276646.080000
   4708   4710     1   0.10969 276646.080000
   4711   4712     1   0.10969 276646.080000
   4711   4713     1   0.10969 276646.080000
   4714   4715     1   0.10969 276646.080000
   4714   4716     1   0.10969 276646.080000
   4717   4718     1   0.10969 276646.080000
   4717   4719     1   0.10969 276646.080000
   4720   4721     1   0.10969 276646.080000
   4720   4722     1   0.10969 276646.080000
   4723   4724     1   0.10969 276646.080000
   4723   4725     1   0.10969 276646.080000
   4728   4729     1   0.10969 276646.080000
   4728   4730     1   0.10969 276646.080000
   4731   4732     1   0.10969 276646.080000
   4731   4733     1   0.10969 276646.080000
   4734   4735     1   0.10969 276646.080000
   4734   4736     1   0.10969 276646.080000
   4737   4738     1   0.10969 276646.080000
   4737   4739     1   0.10969 276646.080000
   4740   4741     1   0.10969 276646.080000
   4740   4742     1   0.10969 276646.080000
   4743   4744     1   0.10969 276646.080000
   4743   4745     1   0.10969 276646.080000
   4746   4747     1   0.10969 276646.080000
   4746   4748     1   0.10969 276646.080000
   4749   4750     1   0.10969 276646.080000
   4749   4751     1   0.10969 276646.080000
   4752   4753     1   0.10969 276646.080000
   4752   4754     1   0.10969 276646.080000
   4757   4758     1   0.10969 276646.080000
   4757   4759     1   0.10969 276646.080000
   4760   4761     1   0.10969 276646.080000
   4760   4762     1   0.10969 276646.080000
   4763   4764     1   0.10969 276646.080000
   4763   4765     1   0.10969 276646.080000
   4766   4767     1   0.10969 276646.080000
   4766   4768     1   0.10969 276646.080000
   4769   4770     1   0.10969 276646.080000
   4769   4771     1   0.10969 276646.080000
   4772   4773     1   0.10969 276646.080000
   4772   4774     1   0.10969 276646.080000
   4775   4776     1   0.10969 276646.080000
   4775   4777     1   0.10969 276646.080000
   4778   4779     1   0.10969 276646.080000
   4778   4780     1   0.10969 276646.080000
   4781   4782     1   0.10969 276646.080000
   4781   4783     1   0.10969 276646.080000
   4786   4787     1   0.10969 276646.080000
   4786   4788     1   0.10969 276646.080000
   4789   4790     1   0.10969 276646.080000
   4789   4791     1   0.10969 276646.080000
   4792   4793     1   0.10969 276646.080000
   4792   4794     1   0.10969 276646.080000
   4795   4796     1   0.10969 276646.080000
   4795   4797     1   0.10969 276646.080000
   4798   4799     1   0.10969 276646.080000
   4798   4800     1   0.10969 276646.080000
   4801   4802     1   0.10969 276646.080000
   4801   4803     1   0.10969 276646.080000
   4804   4805     1   0.10969 276646.080000
   4804   4806     1   0.10969 276646.080000
   4807   4808     1   0.10969 276646.080000
   4807   4809     1   0.10969 276646.080000
   4810   4811     1   0.10969 276646.080000
   4810   4812     1   0.10969 276646.080000
   4815   4816     1   0.10969 276646.080000
   4815   4817     1   0.10969 276646.080000
   4818   4819     1   0.10969 276646.080000
   4818   4820     1   0.10969 276646.080000
   4821   4822     1   0.10969 276646.080000
   4821   4823     1   0.10969 276646.080000
   4824   4825     1   0.10969 276646.080000
   4824   4826     1   0.10969 276646.080000
   4827   4828     1   0.10969 276646.080000
   4827   4829     1   0.10969 276646.080000
   4830   4831     1   0.10969 276646.080000
   4830   4832     1   0.10969 276646.080000
   4833   4834     1   0.10969 276646.080000
   4833   4835     1   0.10969 276646.080000
   4836   4837     1   0.10969 276646.080000
   4836   4838     1   0.10969 276646.080000
   4839   4840     1   0.10969 276646.080000
   4839   4841     1   0.10969 276646.080000
   4844   4845     1   0.10969 276646.080000
   4844   4846     1   0.10969 276646.080000
   4847   4848     1   0.10969 276646.080000
   4847   4849     1   0.10969 276646.080000
   4850   4851     1   0.10969 276646.080000
   4850   4852     1   0.10969 276646.080000
   4853   4854     1   0.10969 276646.080000
   4853   4855     1   0.10969 276646.080000
   4856   4857     1   0.10969 276646.080000
   4856   4858     1   0.10969 276646.080000
   4859   4860     1   0.10969 276646.080000
   4859   4861     1   0.10969 276646.080000
   4862   4863     1   0.10969 276646.080000
   4862   4864     1   0.10969 276646.080000
   4865   4866     1   0.10969 276646.080000
   4865   4867     1   0.10969 276646.080000
   4868   4869     1   0.10969 276646.080000
   4868   4870     1   0.10969 276646.080000
   4873   4874     1   0.10969 276646.080000
   4873   4875     1   0.10969 276646.080000
   4876   4877     1   0.10969 276646.080000
   4876   4878     1   0.10969 276646.080000
   4879   4880     1   0.10969 276646.080000
   4879   4881     1   0.10969 276646.080000
   4882   4883     1   0.10969 276646.080000
   4882   4884     1   0.10969 276646.080000
   4885   4886     1   0.10969 276646.080000
   4885   4887     1   0.10969 276646.080000
   4888   4889     1   0.10969 276646.080000
   4888   4890     1   0.10969 276646.080000
   4891   4892     1   0.10969 276646.080000
   4891   4893     1   0.10969 276646.080000
   4894   4895     1   0.10969 276646.080000
   4894   4896     1   0.10969 276646.080000
   4897   4898     1   0.10969 276646.080000
   4897   4899     1   0.10969 276646.080000
   4902   4903     1   0.10969 276646.080000
   4902   4904     1   0.10969 276646.080000
   4905   4906     1   0.10969 276646.080000
   4905   4907     1   0.10969 276646.080000
   4908   4909     1   0.10969 276646.080000
   4908   4910     1   0.10969 276646.080000
   4911   4912     1   0.10969 276646.080000
   4911   4913     1   0.10969 276646.080000
   4914   4915     1   0.10969 276646.080000
   4914   4916     1   0.10969 276646.080000
   4917   4918     1   0.10969 276646.080000
   4917   4919     1   0.10969 276646.080000
   4920   4921     1   0.10969 276646.080000
   4920   4922     1   0.10969 276646.080000
   4923   4924     1   0.10969 276646.080000
   4923   4925     1   0.10969 276646.080000
   4926   4927     1   0.10969 276646.080000
   4926   4928     1   0.10969 276646.080000
   4931   4932     1   0.10969 276646.080000
   4931   4933     1   0.10969 276646.080000
   4934   4935     1   0.10969 276646.080000
   4934   4936     1   0.10969 276646.080000
   4937   4938     1   0.10969 276646.080000
   4937   4939     1   0.10969 276646.080000
   4940   4941     1   0.10969 276646.080000
   4940   4942     1   0.10969 276646.080000
   4943   4944     1   0.10969 276646.080000
   4943   4945     1   0.10969 276646.080000
   4946   4947     1   0.10969 276646.080000
   4946   4948     1   0.10969 276646.080000
   4949   4950     1   0.10969 276646.080000
   4949   4951     1   0.10969 276646.080000
   4952   4953     1   0.10969 276646.080000
   4952   4954     1   0.10969 276646.080000
   4955   4956     1   0.10969 276646.080000
   4955   4957     1   0.10969 276646.080000
   4960   4961     1   0.10969 276646.080000
   4960   4962     1   0.10969 276646.080000
   4963   4964     1   0.10969 276646.080000
   4963   4965     1   0.10969 276646.080000
   4966   4967     1   0.10969 276646.080000
   4966   4968     1   0.10969 276646.080000
   4969   4970     1   0.10969 276646.080000
   4969   4971     1   0.10969 276646.080000
   4972   4973     1   0.10969 276646.080000
   4972   4974     1   0.10969 276646.080000
   4975   4976     1   0.10969 276646.080000
   4975   4977     1   0.10969 276646.080000
   4978   4979     1   0.10969 276646.080000
   4978   4980     1   0.10969 276646.080000
   4981   4982     1   0.10969 276646.080000
   4981   4983     1   0.10969 276646.080000
   4984   4985     1   0.10969 276646.080000
   4984   4986     1   0.10969 276646.080000
   4989   4990     1   0.10969 276646.080000
   4989   4991     1   0.10969 276646.080000
   4992   4993     1   0.10969 276646.080000
   4992   4994     1   0.10969 276646.080000
   4995   4996     1   0.10969 276646.080000
   4995   4997     1   0.10969 276646.080000
   4998   4999     1   0.10969 276646.080000
   4998   5000     1   0.10969 276646.080000
   5001   5002     1   0.10969 276646.080000
   5001   5003     1   0.10969 276646.080000
   5004   5005     1   0.10969 276646.080000
   5004   5006     1   0.10969 276646.080000
   5007   5008     1   0.10969 276646.080000
   5007   5009     1   0.10969 276646.080000
   5010   5011     1   0.10969 276646.080000
   5010   5012     1   0.10969 276646.080000
   5013   5014     1   0.10969 276646.080000
   5013   5015     1   0.10969 276646.080000
   5018   5019     1   0.10969 276646.080000
   5018   5020     1   0.10969 276646.080000
   5021   5022     1   0.10969 276646.080000
   5021   5023     1   0.10969 276646.080000
   5024   5025     1   0.10969 276646.080000
   5024   5026     1   0.10969 276646.080000
   5027   5028     1   0.10969 276646.080000
   5027   5029     1   0.10969 276646.080000
   5030   5031     1   0.10969 276646.080000
   5030   5032     1   0.10969 276646.080000
   5033   5034     1   0.10969 276646.080000
   5033   5035     1   0.10969 276646.080000
   5036   5037     1   0.10969 276646.080000
   5036   5038     1   0.10969 276646.080000
   5039   5040     1   0.10969 276646.080000
   5039   5041     1   0.10969 276646.080000
   5042   5043     1   0.10969 276646.080000
   5042   5044     1   0.10969 276646.080000
   5047   5048     1   0.10969 276646.080000
   5047   5049     1   0.10969 276646.080000
   5050   5051     1   0.10969 276646.080000
   5050   5052     1   0.10969 276646.080000
   5053   5054     1   0.10969 276646.080000
   5053   5055     1   0.10969 276646.080000
   5056   5057     1   0.10969 276646.080000
   5056   5058     1   0.10969 276646.080000
   5059   5060     1   0.10969 276646.080000
   5059   5061     1   0.10969 276646.080000
   5062   5063     1   0.10969 276646.080000
   5062   5064     1   0.10969 276646.080000
   5065   5066     1   0.10969 276646.080000
   5065   5067     1   0.10969 276646.080000
   5068   5069     1   0.10969 276646.080000
   5068   5070     1   0.10969 276646.080000
   5071   5072     1   0.10969 276646.080000
   5071   5073     1   0.10969 276646.080000
   5076   5077     1   0.10969 276646.080000
   5076   5078     1   0.10969 276646.080000
   5079   5080     1   0.10969 276646.080000
   5079   5081     1   0.10969 276646.080000
   5082   5083     1   0.10969 276646.080000
   5082   5084     1   0.10969 276646.080000
   5085   5086     1   0.10969 276646.080000
   5085   5087     1   0.10969 276646.080000
   5088   5089     1   0.10969 276646.080000
   5088   5090     1   0.10969 276646.080000
   5091   5092     1   0.10969 276646.080000
   5091   5093     1   0.10969 276646.080000
   5094   5095     1   0.10969 276646.080000
   5094   5096     1   0.10969 276646.080000
   5097   5098     1   0.10969 276646.080000
   5097   5099     1   0.10969 276646.080000
   5100   5101     1   0.10969 276646.080000
   5100   5102     1   0.10969 276646.080000
   5105   5106     1   0.10969 276646.080000
   5105   5107     1   0.10969 276646.080000
   5108   5109     1   0.10969 276646.080000
   5108   5110     1   0.10969 276646.080000
   5111   5112     1   0.10969 276646.080000
   5111   5113     1   0.10969 276646.080000
   5114   5115     1   0.10969 276646.080000
   5114   5116     1   0.10969 276646.080000
   5117   5118     1   0.10969 276646.080000
   5117   5119     1   0.10969 276646.080000
   5120   5121     1   0.10969 276646.080000
   5120   5122     1   0.10969 276646.080000
   5123   5124     1   0.10969 276646.080000
   5123   5125     1   0.10969 276646.080000
   5126   5127     1   0.10969 276646.080000
   5126   5128     1   0.10969 276646.080000
   5129   5130     1   0.10969 276646.080000
   5129   5131     1   0.10969 276646.080000
   5134   5135     1   0.10969 276646.080000
   5134   5136     1   0.10969 276646.080000
   5137   5138     1   0.10969 276646.080000
   5137   5139     1   0.10969 276646.080000
   5140   5141     1   0.10969 276646.080000
   5140   5142     1   0.10969 276646.080000
   5143   5144     1   0.10969 276646.080000
   5143   5145     1   0.10969 276646.080000
   5146   5147     1   0.10969 276646.080000
   5146   5148     1   0.10969 276646.080000
   5149   5150     1   0.10969 276646.080000
   5149   5151     1   0.10969 276646.080000
   5152   5153     1   0.10969 276646.080000
   5152   5154     1   0.10969 276646.080000
   5155   5156     1   0.10969 276646.080000
   5155   5157     1   0.10969 276646.080000
   5158   5159     1   0.10969 276646.080000
   5158   5160     1   0.10969 276646.080000
   5163   5164     1   0.10969 276646.080000
   5163   5165     1   0.10969 276646.080000
   5166   5167     1   0.10969 276646.080000
   5166   5168     1   0.10969 276646.080000
   5169   5170     1   0.10969 276646.080000
   5169   5171     1   0.10969 276646.080000
   5172   5173     1   0.10969 276646.080000
   5172   5174     1   0.10969 276646.080000
   5175   5176     1   0.10969 276646.080000
   5175   5177     1   0.10969 276646.080000
   5178   5179     1   0.10969 276646.080000
   5178   5180     1   0.10969 276646.080000
   5181   5182     1   0.10969 276646.080000
   5181   5183     1   0.10969 276646.080000
   5184   5185     1   0.10969 276646.080000
   5184   5186     1   0.10969 276646.080000
   5187   5188     1   0.10969 276646.080000
   5187   5189     1   0.10969 276646.080000
   5192   5193     1   0.10969 276646.080000
   5192   5194     1   0.10969 276646.080000
   5195   5196     1   0.10969 276646.080000
   5195   5197     1   0.10969 276646.080000
   5198   5199     1   0.10969 276646.080000
   5198   5200     1   0.10969 276646.080000
   5201   5202     1   0.10969 276646.080000
   5201   5203     1   0.10969 276646.080000
   5204   5205     1   0.10969 276646.080000
   5204   5206     1   0.10969 276646.080000
   5207   5208     1   0.10969 276646.080000
   5207   5209     1   0.10969 276646.080000
   5210   5211     1   0.10969 276646.080000
   5210   5212     1   0.10969 276646.080000
   5213   5214     1   0.10969 276646.080000
   5213   5215     1   0.10969 276646.080000
   5216   5217     1   0.10969 276646.080000
   5216   5218     1   0.10969 276646.080000
   5221   5222     1   0.10969 276646.080000
   5221   5223     1   0.10969 276646.080000
   5224   5225     1   0.10969 276646.080000
   5224   5226     1   0.10969 276646.080000
   5227   5228     1   0.10969 276646.080000
   5227   5229     1   0.10969 276646.080000
   5230   5231     1   0.10969 276646.080000
   5230   5232     1   0.10969 276646.080000
   5233   5234     1   0.10969 276646.080000
   5233   5235     1   0.10969 276646.080000
   5236   5237     1   0.10969 276646.080000
   5236   5238     1   0.10969 276646.080000
   5239   5240     1   0.10969 276646.080000
   5239   5241     1   0.10969 276646.080000
   5242   5243     1   0.10969 276646.080000
   5242   5244     1   0.10969 276646.080000
   5245   5246     1   0.10969 276646.080000
   5245   5247     1   0.10969 276646.080000
   5250   5251     1   0.10969 276646.080000
   5250   5252     1   0.10969 276646.080000
   5253   5254     1   0.10969 276646.080000
   5253   5255     1   0.10969 276646.080000
   5256   5257     1   0.10969 276646.080000
   5256   5258     1   0.10969 276646.080000
   5259   5260     1   0.10969 276646.080000
   5259   5261     1   0.10969 276646.080000
   5262   5263     1   0.10969 276646.080000
   5262   5264     1   0.10969 276646.080000
   5265   5266     1   0.10969 276646.080000
   5265   5267     1   0.10969 276646.080000
   5268   5269     1   0.10969 276646.080000
   5268   5270     1   0.10969 276646.080000
   5271   5272     1   0.10969 276646.080000
   5271   5273     1   0.10969 276646.080000
   5274   5275     1   0.10969 276646.080000
   5274   5276     1   0.10969 276646.080000
   5279   5280     1   0.10969 276646.080000
   5279   5281     1   0.10969 276646.080000
   5282   5283     1   0.10969 276646.080000
   5282   5284     1   0.10969 276646.080000
   5285   5286     1   0.10969 276646.080000
   5285   5287     1   0.10969 276646.080000
   5288   5289     1   0.10969 276646.080000
   5288   5290     1   0.10969 276646.080000
   5291   5292     1   0.10969 276646.080000
   5291   5293     1   0.10969 276646.080000
   5294   5295     1   0.10969 276646.080000
   5294   5296     1   0.10969 276646.080000
   5297   5298     1   0.10969 276646.080000
   5297   5299     1   0.10969 276646.080000
   5300   5301     1   0.10969 276646.080000
   5300   5302     1   0.10969 276646.080000
   5303   5304     1   0.10969 276646.080000
   5303   5305     1   0.10969 276646.080000
   5308   5309     1   0.10969 276646.080000
   5308   5310     1   0.10969 276646.080000
   5311   5312     1   0.10969 276646.080000
   5311   5313     1   0.10969 276646.080000
   5314   5315     1   0.10969 276646.080000
   5314   5316     1   0.10969 276646.080000
   5317   5318     1   0.10969 276646.080000
   5317   5319     1   0.10969 276646.080000
   5320   5321     1   0.10969 276646.080000
   5320   5322     1   0.10969 276646.080000
   5323   5324     1   0.10969 276646.080000
   5323   5325     1   0.10969 276646.080000
   5326   5327     1   0.10969 276646.080000
   5326   5328     1   0.10969 276646.080000
   5329   5330     1   0.10969 276646.080000
   5329   5331     1   0.10969 276646.080000
   5332   5333     1   0.10969 276646.080000
   5332   5334     1   0.10969 276646.080000
   5337   5338     1   0.10969 276646.080000
   5337   5339     1   0.10969 276646.080000
   5340   5341     1   0.10969 276646.080000
   5340   5342     1   0.10969 276646.080000
   5343   5344     1   0.10969 276646.080000
   5343   5345     1   0.10969 276646.080000
   5346   5347     1   0.10969 276646.080000
   5346   5348     1   0.10969 276646.080000
   5349   5350     1   0.10969 276646.080000
   5349   5351     1   0.10969 276646.080000
   5352   5353     1   0.10969 276646.080000
   5352   5354     1   0.10969 276646.080000
   5355   5356     1   0.10969 276646.080000
   5355   5357     1   0.10969 276646.080000
   5358   5359     1   0.10969 276646.080000
   5358   5360     1   0.10969 276646.080000
   5361   5362     1   0.10969 276646.080000
   5361   5363     1   0.10969 276646.080000
   5366   5367     1   0.10969 276646.080000
   5366   5368     1   0.10969 276646.080000
   5369   5370     1   0.10969 276646.080000
   5369   5371     1   0.10969 276646.080000
   5372   5373     1   0.10969 276646.080000
   5372   5374     1   0.10969 276646.080000
   5375   5376     1   0.10969 276646.080000
   5375   5377     1   0.10969 276646.080000
   5378   5379     1   0.10969 276646.080000
   5378   5380     1   0.10969 276646.080000
   5381   5382     1   0.10969 276646.080000
   5381   5383     1   0.10969 276646.080000
   5384   5385     1   0.10969 276646.080000
   5384   5386     1   0.10969 276646.080000
   5387   5388     1   0.10969 276646.080000
   5387   5389     1   0.10969 276646.080000
   5390   5391     1   0.10969 276646.080000
   5390   5392     1   0.10969 276646.080000
   5395   5396     1   0.10969 276646.080000
   5395   5397     1   0.10969 276646.080000
   5398   5399     1   0.10969 276646.080000
   5398   5400     1   0.10969 276646.080000
   5401   5402     1   0.10969 276646.080000
   5401   5403     1   0.10969 276646.080000
   5404   5405     1   0.10969 276646.080000
   5404   5406     1   0.10969 276646.080000
   5407   5408     1   0.10969 276646.080000
   5407   5409     1   0.10969 276646.080000
   5410   5411     1   0.10969 276646.080000
   5410   5412     1   0.10969 276646.080000
   5413   5414     1   0.10969 276646.080000
   5413   5415     1   0.10969 276646.080000
   5416   5417     1   0.10969 276646.080000
   5416   5418     1   0.10969 276646.080000
   5419   5420     1   0.10969 276646.080000
   5419   5421     1   0.10969 276646.080000
   5424   5425     1   0.10969 276646.080000
   5424   5426     1   0.10969 276646.080000
   5427   5428     1   0.10969 276646.080000
   5427   5429     1   0.10969 276646.080000
   5430   5431     1   0.10969 276646.080000
   5430   5432     1   0.10969 276646.080000
   5433   5434     1   0.10969 276646.080000
   5433   5435     1   0.10969 276646.080000
   5436   5437     1   0.10969 276646.080000
   5436   5438     1   0.10969 276646.080000
   5439   5440     1   0.10969 276646.080000
   5439   5441     1   0.10969 276646.080000
   5442   5443     1   0.10969 276646.080000
   5442   5444     1   0.10969 276646.080000
   5445   5446     1   0.10969 276646.080000
   5445   5447     1   0.10969 276646.080000
   5448   5449     1   0.10969 276646.080000
   5448   5450     1   0.10969 276646.080000
   5453   5454     1   0.10969 276646.080000
   5453   5455     1   0.10969 276646.080000
   5456   5457     1   0.10969 276646.080000
   5456   5458     1   0.10969 276646.080000
   5459   5460     1   0.10969 276646.080000
   5459   5461     1   0.10969 276646.080000
   5462   5463     1   0.10969 276646.080000
   5462   5464     1   0.10969 276646.080000
   5465   5466     1   0.10969 276646.080000
   5465   5467     1   0.10969 276646.080000
   5468   5469     1   0.10969 276646.080000
   5468   5470     1   0.10969 276646.080000
   5471   5472     1   0.10969 276646.080000
   5471   5473     1   0.10969 276646.080000
   5474   5475     1   0.10969 276646.080000
   5474   5476     1   0.10969 276646.080000
   5477   5478     1   0.10969 276646.080000
   5477   5479     1   0.10969 276646.080000
   5482   5483     1   0.10969 276646.080000
   5482   5484     1   0.10969 276646.080000
   5485   5486     1   0.10969 276646.080000
   5485   5487     1   0.10969 276646.080000
   5488   5489     1   0.10969 276646.080000
   5488   5490     1   0.10969 276646.080000
   5491   5492     1   0.10969 276646.080000
   5491   5493     1   0.10969 276646.080000
   5494   5495     1   0.10969 276646.080000
   5494   5496     1   0.10969 276646.080000
   5497   5498     1   0.10969 276646.080000
   5497   5499     1   0.10969 276646.080000
   5500   5501     1   0.10969 276646.080000
   5500   5502     1   0.10969 276646.080000
   5503   5504     1   0.10969 276646.080000
   5503   5505     1   0.10969 276646.080000
   5506   5507     1   0.10969 276646.080000
   5506   5508     1   0.10969 276646.080000
   5510   5512     1   0.10969 276646.080000
   5511   5513     1   0.10969 276646.080000
   5514   5518     1   0.10969 276646.080000
   5515   5517     1   0.10969 276646.080000
   5516   5519     1   0.10961 277566.560000
   5521   5527     1   0.09730 310787.520000
   5522   5525     1   0.09730 310787.520000
   5523   5526     1   0.09730 310787.520000
   5524   5528     1   0.10969 276646.080000
   5524   5529     1   0.10969 276646.080000
   5530   5531     1   0.09730 310787.520000
   5533   5535     1   0.10969 276646.080000
   5534   5536     1   0.10969 276646.080000
   5537   5541     1   0.10969 276646.080000
   5538   5540     1   0.10969 276646.080000
   5539   5542     1   0.10961 277566.560000
   5544   5550     1   0.09730 310787.520000
   5545   5548     1   0.09730 310787.520000
   5546   5549     1   0.09730 310787.520000
   5547   5551     1   0.10969 276646.080000
   5547   5552     1   0.10969 276646.080000
   5553   5554     1   0.09730 310787.520000
   5556   5558     1   0.10969 276646.080000
   5557   5559     1   0.10969 276646.080000
   5560   5564     1   0.10969 276646.080000
   5561   5563     1   0.10969 276646.080000
   5562   5565     1   0.10961 277566.560000
   5567   5573     1   0.09730 310787.520000
   5568   5571     1   0.09730 310787.520000
   5569   5572     1   0.09730 310787.520000
   5570   5574     1   0.10969 276646.080000
   5570   5575     1   0.10969 276646.080000
   5576   5577     1   0.09730 310787.520000
   5579   5581     1   0.10969 276646.080000
   5580   5582     1   0.10969 276646.080000
   5583   5587     1   0.10969 276646.080000
   5584   5586     1   0.10969 276646.080000
   5585   5588     1   0.10961 277566.560000
   5590   5596     1   0.09730 310787.520000
   5591   5594     1   0.09730 310787.520000
   5592   5595     1   0.09730 310787.520000
   5593   5597     1   0.10969 276646.080000
   5593   5598     1   0.10969 276646.080000
   5599   5600     1   0.09730 310787.520000
   5602   5604     1   0.10969 276646.080000
   5603   5605     1   0.10969 276646.080000
   5606   5610     1   0.10969 276646.080000
   5607   5609     1   0.10969 276646.080000
   5608   5611     1   0.10961 277566.560000
   5613   5619     1   0.09730 310787.520000
   5614   5617     1   0.09730 310787.520000
   5615   5618     1   0.09730 310787.520000
   5616   5620     1   0.10969 276646.080000
   5616   5621     1   0.10969 276646.080000
   5622   5623     1   0.09730 310787.520000
   5625   5627     1   0.10969 276646.080000
   5626   5628     1   0.10969 276646.080000
   5629   5633     1   0.10969 276646.080000
   5630   5632     1   0.10969 276646.080000
   5631   5634     1   0.10961 277566.560000
   5636   5642     1   0.09730 310787.520000
   5637   5640     1   0.09730 310787.520000
   5638   5641     1   0.09730 310787.520000
   5639   5643     1   0.10969 276646.080000
   5639   5644     1   0.10969 276646.080000
   5645   5646     1   0.09730 310787.520000
   5648   5650     1   0.10969 276646.080000
   5649   5651     1   0.10969 276646.080000
   5652   5656     1   0.10969 276646.080000
   5653   5655     1   0.10969 276646.080000
   5654   5657     1   0.10961 277566.560000
   5659   5665     1   0.09730 310787.520000
   5660   5663     1   0.09730 310787.520000
   5661   5664     1   0.09730 310787.520000
   5662   5666     1   0.10969 276646.080000
   5662   5667     1   0.10969 276646.080000
   5668   5669     1   0.09730 310787.520000
   5671   5673     1   0.10969 276646.080000
   5672   5674     1   0.10969 276646.080000
   5675   5679     1   0.10969 276646.080000
   5676   5678     1   0.10969 276646.080000
   5677   5680     1   0.10961 277566.560000
   5682   5688     1   0.09730 310787.520000
   5683   5686     1   0.09730 310787.520000
   5684   5687     1   0.09730 310787.520000
   5685   5689     1   0.10969 276646.080000
   5685   5690     1   0.10969 276646.080000
   5691   5692     1   0.09730 310787.520000
   5694   5696     1   0.10969 276646.080000
   5695   5697     1   0.10969 276646.080000
   5698   5702     1   0.10969 276646.080000
   5699   5701     1   0.10969 276646.080000
   5700   5703     1   0.10961 277566.560000
   5705   5711     1   0.09730 310787.520000
   5706   5709     1   0.09730 310787.520000
   5707   5710     1   0.09730 310787.520000
   5708   5712     1   0.10969 276646.080000
   5708   5713     1   0.10969 276646.080000
   5714   5715     1   0.09730 310787.520000
   5717   5719     1   0.10969 276646.080000
   5718   5720     1   0.10969 276646.080000
   5721   5725     1   0.10969 276646.080000
   5722   5724     1   0.10969 276646.080000
   5723   5726     1   0.10961 277566.560000
   5728   5734     1   0.09730 310787.520000
   5729   5732     1   0.09730 310787.520000
   5730   5733     1   0.09730 310787.520000
   5731   5735     1   0.10969 276646.080000
   5731   5736     1   0.10969 276646.080000
   5737   5738     1   0.09730 310787.520000
   5740   5742     1   0.10969 276646.080000
   5741   5743     1   0.10969 276646.080000
   5744   5748     1   0.10969 276646.080000
   5745   5747     1   0.10969 276646.080000
   5746   5749     1   0.10961 277566.560000
   5751   5757     1   0.09730 310787.520000
   5752   5755     1   0.09730 310787.520000
   5753   5756     1   0.09730 310787.520000
   5754   5758     1   0.10969 276646.080000
   5754   5759     1   0.10969 276646.080000
   5760   5761     1   0.09730 310787.520000
   5763   5765     1   0.10969 276646.080000
   5764   5766     1   0.10969 276646.080000
   5767   5771     1   0.10969 276646.080000
   5768   5770     1   0.10969 276646.080000
   5769   5772     1   0.10961 277566.560000
   5774   5780     1   0.09730 310787.520000
   5775   5778     1   0.09730 310787.520000
   5776   5779     1   0.09730 310787.520000
   5777   5781     1   0.10969 276646.080000
   5777   5782     1   0.10969 276646.080000
   5783   5784     1   0.09730 310787.520000
   5786   5788     1   0.10969 276646.080000
   5787   5789     1   0.10969 276646.080000
   5790   5794     1   0.10969 276646.080000
   5791   5793     1   0.10969 276646.080000
   5792   5795     1   0.10961 277566.560000
   5797   5803     1   0.09730 310787.520000
   5798   5801     1   0.09730 310787.520000
   5799   5802     1   0.09730 310787.520000
   5800   5804     1   0.10969 276646.080000
   5800   5805     1   0.10969 276646.080000
   5806   5807     1   0.09730 310787.520000
   5809   5811     1   0.10969 276646.080000
   5810   5812     1   0.10969 276646.080000
   5813   5817     1   0.10969 276646.080000
   5814   5816     1   0.10969 276646.080000
   5815   5818     1   0.10961 277566.560000
   5820   5826     1   0.09730 310787.520000
   5821   5824     1   0.09730 310787.520000
   5822   5825     1   0.09730 310787.520000
   5823   5827     1   0.10969 276646.080000
   5823   5828     1   0.10969 276646.080000
   5829   5830     1   0.09730 310787.520000
   5832   5834     1   0.10969 276646.080000
   5833   5835     1   0.10969 276646.080000
   5836   5840     1   0.10969 276646.080000
   5837   5839     1   0.10969 276646.080000
   5838   5841     1   0.10961 277566.560000
   5843   5849     1   0.09730 310787.520000
   5844   5847     1   0.09730 310787.520000
   5845   5848     1   0.09730 310787.520000
   5846   5850     1   0.10969 276646.080000
   5846   5851     1   0.10969 276646.080000
   5852   5853     1   0.09730 310787.520000
   5855   5857     1   0.10969 276646.080000
   5856   5858     1   0.10969 276646.080000
   5859   5863     1   0.10969 276646.080000
   5860   5862     1   0.10969 276646.080000
   5861   5864     1   0.10961 277566.560000
   5866   5872     1   0.09730 310787.520000
   5867   5870     1   0.09730 310787.520000
   5868   5871     1   0.09730 310787.520000
   5869   5873     1   0.10969 276646.080000
   5869   5874     1   0.10969 276646.080000
   5875   5876     1   0.09730 310787.520000
   5878   5880     1   0.10969 276646.080000
   5879   5881     1   0.10969 276646.080000
   5882   5886     1   0.10969 276646.080000
   5883   5885     1   0.10969 276646.080000
   5884   5887     1   0.10961 277566.560000
   5889   5895     1   0.09730 310787.520000
   5890   5893     1   0.09730 310787.520000
   5891   5894     1   0.09730 310787.520000
   5892   5896     1   0.10969 276646.080000
   5892   5897     1   0.10969 276646.080000
   5898   5899     1   0.09730 310787.520000
   5901   5903     1   0.10969 276646.080000
   5902   5904     1   0.10969 276646.080000
   5905   5909     1   0.10969 276646.080000
   5906   5908     1   0.10969 276646.080000
   5907   5910     1   0.10961 277566.560000
   5912   5918     1   0.09730 310787.520000
   5913   5916     1   0.09730 310787.520000
   5914   5917     1   0.09730 310787.520000
   5915   5919     1   0.10969 276646.080000
   5915   5920     1   0.10969 276646.080000
   5921   5922     1   0.09730 310787.520000
   5924   5926     1   0.10969 276646.080000
   5925   5927     1   0.10969 276646.080000
   5928   5932     1   0.10969 276646.080000
   5929   5931     1   0.10969 276646.080000
   5930   5933     1   0.10961 277566.560000
   5935   5941     1   0.09730 310787.520000
   5936   5939     1   0.09730 310787.520000
   5937   5940     1   0.09730 310787.520000
   5938   5942     1   0.10969 276646.080000
   5938   5943     1   0.10969 276646.080000
   5944   5945     1   0.09730 310787.520000
   5947   5949     1   0.10969 276646.080000
   5948   5950     1   0.10969 276646.080000
   5951   5955     1   0.10969 276646.080000
   5952   5954     1   0.10969 276646.080000
   5953   5956     1   0.10961 277566.560000
   5958   5964     1   0.09730 310787.520000
   5959   5962     1   0.09730 310787.520000
   5960   5963     1   0.09730 310787.520000
   5961   5965     1   0.10969 276646.080000
   5961   5966     1   0.10969 276646.080000
   5967   5968     1   0.09730 310787.520000
   5970   5972     1   0.10969 276646.080000
   5971   5973     1   0.10969 276646.080000
   5974   5978     1   0.10969 276646.080000
   5975   5977     1   0.10969 276646.080000
   5976   5979     1   0.10961 277566.560000
   5981   5987     1   0.09730 310787.520000
   5982   5985     1   0.09730 310787.520000
   5983   5986     1   0.09730 310787.520000
   5984   5988     1   0.10969 276646.080000
   5984   5989     1   0.10969 276646.080000
   5990   5991     1   0.09730 310787.520000
   5993   5995     1   0.10969 276646.080000
   5994   5996     1   0.10969 276646.080000
   5997   6001     1   0.10969 276646.080000
   5998   6000     1   0.10969 276646.080000
   5999   6002     1   0.10961 277566.560000
   6004   6010     1   0.09730 310787.520000
   6005   6008     1   0.09730 310787.520000
   6006   6009     1   0.09730 310787.520000
   6007   6011     1   0.10969 276646.080000
   6007   6012     1   0.10969 276646.080000
   6013   6014     1   0.09730 310787.520000
   6016   6018     1   0.10969 276646.080000
   6017   6019     1   0.10969 276646.080000
   6020   6024     1   0.10969 276646.080000
   6021   6023     1   0.10969 276646.080000
   6022   6025     1   0.10961 277566.560000
   6027   6033     1   0.09730 310787.520000
   6028   6031     1   0.09730 310787.520000
   6029   6032     1   0.09730 310787.520000
   6030   6034     1   0.10969 276646.080000
   6030   6035     1   0.10969 276646.080000
   6036   6037     1   0.09730 310787.520000
   6039   6041     1   0.10969 276646.080000
   6040   6042     1   0.10969 276646.080000
   6043   6047     1   0.10969 276646.080000
   6044   6046     1   0.10969 276646.080000
   6045   6048     1   0.10961 277566.560000
   6050   6056     1   0.09730 310787.520000
   6051   6054     1   0.09730 310787.520000
   6052   6055     1   0.09730 310787.520000
   6053   6057     1   0.10969 276646.080000
   6053   6058     1   0.10969 276646.080000
   6059   6060     1   0.09730 310787.520000
   6062   6064     1   0.10969 276646.080000
   6063   6065     1   0.10969 276646.080000
   6066   6070     1   0.10969 276646.080000
   6067   6069     1   0.10969 276646.080000
   6068   6071     1   0.10961 277566.560000
   6073   6079     1   0.09730 310787.520000
   6074   6077     1   0.09730 310787.520000
   6075   6078     1   0.09730 310787.520000
   6076   6080     1   0.10969 276646.080000
   6076   6081     1   0.10969 276646.080000
   6082   6083     1   0.09730 310787.520000
   6085   6087     1   0.10969 276646.080000
   6086   6088     1   0.10969 276646.080000
   6089   6093     1   0.10969 276646.080000
   6090   6092     1   0.10969 276646.080000
   6091   6094     1   0.10961 277566.560000
   6096   6102     1   0.09730 310787.520000
   6097   6100     1   0.09730 310787.520000
   6098   6101     1   0.09730 310787.520000
   6099   6103     1   0.10969 276646.080000
   6099   6104     1   0.10969 276646.080000
   6105   6106     1   0.09730 310787.520000
   6108   6110     1   0.10969 276646.080000
   6109   6111     1   0.10969 276646.080000
   6112   6116     1   0.10969 276646.080000
   6113   6115     1   0.10969 276646.080000
   6114   6117     1   0.10961 277566.560000
   6119   6125     1   0.09730 310787.520000
   6120   6123     1   0.09730 310787.520000
   6121   6124     1   0.09730 310787.520000
   6122   6126     1   0.10969 276646.080000
   6122   6127     1   0.10969 276646.080000
   6128   6129     1   0.09730 310787.520000
   6131   6133     1   0.10969 276646.080000
   6132   6134     1   0.10969 276646.080000
   6135   6139     1   0.10969 276646.080000
   6136   6138     1   0.10969 276646.080000
   6137   6140     1   0.10961 277566.560000
   6142   6148     1   0.09730 310787.520000
   6143   6146     1   0.09730 310787.520000
   6144   6147     1   0.09730 310787.520000
   6145   6149     1   0.10969 276646.080000
   6145   6150     1   0.10969 276646.080000
   6151   6152     1   0.09730 310787.520000
   6154   6156     1   0.10969 276646.080000
   6155   6157     1   0.10969 276646.080000
   6158   6162     1   0.10969 276646.080000
   6159   6161     1   0.10969 276646.080000
   6160   6163     1   0.10961 277566.560000
   6165   6171     1   0.09730 310787.520000
   6166   6169     1   0.09730 310787.520000
   6167   6170     1   0.09730 310787.520000
   6168   6172     1   0.10969 276646.080000
   6168   6173     1   0.10969 276646.080000
   6174   6175     1   0.09730 310787.520000
   6177   6179     1   0.10969 276646.080000
   6178   6180     1   0.10969 276646.080000
   6181   6185     1   0.10969 276646.080000
   6182   6184     1   0.10969 276646.080000
   6183   6186     1   0.10961 277566.560000
   6188   6194     1   0.09730 310787.520000
   6189   6192     1   0.09730 310787.520000
   6190   6193     1   0.09730 310787.520000
   6191   6195     1   0.10969 276646.080000
   6191   6196     1   0.10969 276646.080000
   6197   6198     1   0.09730 310787.520000
   6200   6202     1   0.10969 276646.080000
   6201   6203     1   0.10969 276646.080000
   6204   6208     1   0.10969 276646.080000
   6205   6207     1   0.10969 276646.080000
   6206   6209     1   0.10961 277566.560000
   6211   6217     1   0.09730 310787.520000
   6212   6215     1   0.09730 310787.520000
   6213   6216     1   0.09730 310787.520000
   6214   6218     1   0.10969 276646.080000
   6214   6219     1   0.10969 276646.080000
   6220   6221     1   0.09730 310787.520000
   6223   6225     1   0.10969 276646.080000
   6224   6226     1   0.10969 276646.080000
   6227   6231     1   0.10969 276646.080000
   6228   6230     1   0.10969 276646.080000
   6229   6232     1   0.10961 277566.560000
   6234   6240     1   0.09730 310787.520000
   6235   6238     1   0.09730 310787.520000
   6236   6239     1   0.09730 310787.520000
   6237   6241     1   0.10969 276646.080000
   6237   6242     1   0.10969 276646.080000
   6243   6244     1   0.09730 310787.520000
   6246   6248     1   0.10969 276646.080000
   6247   6249     1   0.10969 276646.080000
   6250   6254     1   0.10969 276646.080000
   6251   6253     1   0.10969 276646.080000
   6252   6255     1   0.10961 277566.560000
   6257   6263     1   0.09730 310787.520000
   6258   6261     1   0.09730 310787.520000
   6259   6262     1   0.09730 310787.520000
   6260   6264     1   0.10969 276646.080000
   6260   6265     1   0.10969 276646.080000
   6266   6267     1   0.09730 310787.520000
   6269   6271     1   0.10969 276646.080000
   6270   6272     1   0.10969 276646.080000
   6273   6277     1   0.10969 276646.080000
   6274   6276     1   0.10969 276646.080000
   6275   6278     1   0.10961 277566.560000
   6280   6286     1   0.09730 310787.520000
   6281   6284     1   0.09730 310787.520000
   6282   6285     1   0.09730 310787.520000
   6283   6287     1   0.10969 276646.080000
   6283   6288     1   0.10969 276646.080000
   6289   6290     1   0.09730 310787.520000
   6292   6294     1   0.10969 276646.080000
   6293   6295     1   0.10969 276646.080000
   6296   6300     1   0.10969 276646.080000
   6297   6299     1   0.10969 276646.080000
   6298   6301     1   0.10961 277566.560000
   6303   6309     1   0.09730 310787.520000
   6304   6307     1   0.09730 310787.520000
   6305   6308     1   0.09730 310787.520000
   6306   6310     1   0.10969 276646.080000
   6306   6311     1   0.10969 276646.080000
   6312   6313     1   0.09730 310787.520000
   6315   6317     1   0.10969 276646.080000
   6316   6318     1   0.10969 276646.080000
   6319   6323     1   0.10969 276646.080000
   6320   6322     1   0.10969 276646.080000
   6321   6324     1   0.10961 277566.560000
   6326   6332     1   0.09730 310787.520000
   6327   6330     1   0.09730 310787.520000
   6328   6331     1   0.09730 310787.520000
   6329   6333     1   0.10969 276646.080000
   6329   6334     1   0.10969 276646.080000
   6335   6336     1   0.09730 310787.520000
   6338   6340     1   0.10969 276646.080000
   6339   6341     1   0.10969 276646.080000
   6342   6346     1   0.10969 276646.080000
   6343   6345     1   0.10969 276646.080000
   6344   6347     1   0.10961 277566.560000
   6349   6355     1   0.09730 310787.520000
   6350   6353     1   0.09730 310787.520000
   6351   6354     1   0.09730 310787.520000
   6352   6356     1   0.10969 276646.080000
   6352   6357     1   0.10969 276646.080000
   6358   6359     1   0.09730 310787.520000
   6361   6363     1   0.10969 276646.080000
   6362   6364     1   0.10969 276646.080000
   6365   6369     1   0.10969 276646.080000
   6366   6368     1   0.10969 276646.080000
   6367   6370     1   0.10961 277566.560000
   6372   6378     1   0.09730 310787.520000
   6373   6376     1   0.09730 310787.520000
   6374   6377     1   0.09730 310787.520000
   6375   6379     1   0.10969 276646.080000
   6375   6380     1   0.10969 276646.080000
   6381   6382     1   0.09730 310787.520000
   6384   6386     1   0.10969 276646.080000
   6385   6387     1   0.10969 276646.080000
   6388   6392     1   0.10969 276646.080000
   6389   6391     1   0.10969 276646.080000
   6390   6393     1   0.10961 277566.560000
   6395   6401     1   0.09730 310787.520000
   6396   6399     1   0.09730 310787.520000
   6397   6400     1   0.09730 310787.520000
   6398   6402     1   0.10969 276646.080000
   6398   6403     1   0.10969 276646.080000
   6404   6405     1   0.09730 310787.520000
   6407   6409     1   0.10969 276646.080000
   6408   6410     1   0.10969 276646.080000
   6411   6415     1   0.10969 276646.080000
   6412   6414     1   0.10969 276646.080000
   6413   6416     1   0.10961 277566.560000
   6418   6424     1   0.09730 310787.520000
   6419   6422     1   0.09730 310787.520000
   6420   6423     1   0.09730 310787.520000
   6421   6425     1   0.10969 276646.080000
   6421   6426     1   0.10969 276646.080000
   6427   6428     1   0.09730 310787.520000
   6430   6432     1   0.10969 276646.080000
   6431   6433     1   0.10969 276646.080000
   6434   6438     1   0.10969 276646.080000
   6435   6437     1   0.10969 276646.080000
   6436   6439     1   0.10961 277566.560000
   6441   6447     1   0.09730 310787.520000
   6442   6445     1   0.09730 310787.520000
   6443   6446     1   0.09730 310787.520000
   6444   6448     1   0.10969 276646.080000
   6444   6449     1   0.10969 276646.080000
   6450   6451     1   0.09730 310787.520000
   6453   6455     1   0.10969 276646.080000
   6454   6456     1   0.10969 276646.080000
   6457   6461     1   0.10969 276646.080000
   6458   6460     1   0.10969 276646.080000
   6459   6462     1   0.10961 277566.560000
   6464   6470     1   0.09730 310787.520000
   6465   6468     1   0.09730 310787.520000
   6466   6469     1   0.09730 310787.520000
   6467   6471     1   0.10969 276646.080000
   6467   6472     1   0.10969 276646.080000
   6473   6474     1   0.09730 310787.520000
   6476   6478     1   0.10969 276646.080000
   6477   6479     1   0.10969 276646.080000
   6480   6484     1   0.10969 276646.080000
   6481   6483     1   0.10969 276646.080000
   6482   6485     1   0.10961 277566.560000
   6487   6493     1   0.09730 310787.520000
   6488   6491     1   0.09730 310787.520000
   6489   6492     1   0.09730 310787.520000
   6490   6494     1   0.10969 276646.080000
   6490   6495     1   0.10969 276646.080000
   6496   6497     1   0.09730 310787.520000
   6499   6501     1   0.10969 276646.080000
   6500   6502     1   0.10969 276646.080000
   6503   6507     1   0.10969 276646.080000
   6504   6506     1   0.10969 276646.080000
   6505   6508     1   0.10961 277566.560000
   6510   6516     1   0.09730 310787.520000
   6511   6514     1   0.09730 310787.520000
   6512   6515     1   0.09730 310787.520000
   6513   6517     1   0.10969 276646.080000
   6513   6518     1   0.10969 276646.080000
   6519   6520     1   0.09730 310787.520000
   6522   6524     1   0.10969 276646.080000
   6523   6525     1   0.10969 276646.080000
   6526   6530     1   0.10969 276646.080000
   6527   6529     1   0.10969 276646.080000
   6528   6531     1   0.10961 277566.560000
   6533   6539     1   0.09730 310787.520000
   6534   6537     1   0.09730 310787.520000
   6535   6538     1   0.09730 310787.520000
   6536   6540     1   0.10969 276646.080000
   6536   6541     1   0.10969 276646.080000
   6542   6543     1   0.09730 310787.520000
   6545   6547     1   0.10969 276646.080000
   6546   6548     1   0.10969 276646.080000
   6549   6553     1   0.10969 276646.080000
   6550   6552     1   0.10969 276646.080000
   6551   6554     1   0.10961 277566.560000
   6556   6562     1   0.09730 310787.520000
   6557   6560     1   0.09730 310787.520000
   6558   6561     1   0.09730 310787.520000
   6559   6563     1   0.10969 276646.080000
   6559   6564     1   0.10969 276646.080000
   6565   6566     1   0.09730 310787.520000
   6568   6570     1   0.10969 276646.080000
   6569   6571     1   0.10969 276646.080000
   6572   6576     1   0.10969 276646.080000
   6573   6575     1   0.10969 276646.080000
   6574   6577     1   0.10961 277566.560000
   6579   6585     1   0.09730 310787.520000
   6580   6583     1   0.09730 310787.520000
   6581   6584     1   0.09730 310787.520000
   6582   6586     1   0.10969 276646.080000
   6582   6587     1   0.10969 276646.080000
   6588   6589     1   0.09730 310787.520000
   6591   6593     1   0.10969 276646.080000
   6592   6594     1   0.10969 276646.080000
   6595   6599     1   0.10969 276646.080000
   6596   6598     1   0.10969 276646.080000
   6597   6600     1   0.10961 277566.560000
   6602   6608     1   0.09730 310787.520000
   6603   6606     1   0.09730 310787.520000
   6604   6607     1   0.09730 310787.520000
   6605   6609     1   0.10969 276646.080000
   6605   6610     1   0.10969 276646.080000
   6611   6612     1   0.09730 310787.520000
   6614   6616     1   0.10969 276646.080000
   6615   6617     1   0.10969 276646.080000
   6618   6622     1   0.10969 276646.080000
   6619   6621     1   0.10969 276646.080000
   6620   6623     1   0.10961 277566.560000
   6625   6631     1   0.09730 310787.520000
   6626   6629     1   0.09730 310787.520000
   6627   6630     1   0.09730 310787.520000
   6628   6632     1   0.10969 276646.080000
   6628   6633     1   0.10969 276646.080000
   6634   6635     1   0.09730 310787.520000
   6637   6639     1   0.10969 276646.080000
   6638   6640     1   0.10969 276646.080000
   6641   6645     1   0.10969 276646.080000
   6642   6644     1   0.10969 276646.080000
   6643   6646     1   0.10961 277566.560000
   6648   6654     1   0.09730 310787.520000
   6649   6652     1   0.09730 310787.520000
   6650   6653     1   0.09730 310787.520000
   6651   6655     1   0.10969 276646.080000
   6651   6656     1   0.10969 276646.080000
   6657   6658     1   0.09730 310787.520000
   6660   6662     1   0.10969 276646.080000
   6661   6663     1   0.10969 276646.080000
   6664   6668     1   0.10969 276646.080000
   6665   6667     1   0.10969 276646.080000
   6666   6669     1   0.10961 277566.560000
   6671   6677     1   0.09730 310787.520000
   6672   6675     1   0.09730 310787.520000
   6673   6676     1   0.09730 310787.520000
   6674   6678     1   0.10969 276646.080000
   6674   6679     1   0.10969 276646.080000
   6680   6681     1   0.09730 310787.520000
   6683   6685     1   0.10969 276646.080000
   6684   6686     1   0.10969 276646.080000
   6687   6691     1   0.10969 276646.080000
   6688   6690     1   0.10969 276646.080000
   6689   6692     1   0.10961 277566.560000
   6694   6700     1   0.09730 310787.520000
   6695   6698     1   0.09730 310787.520000
   6696   6699     1   0.09730 310787.520000
   6697   6701     1   0.10969 276646.080000
   6697   6702     1   0.10969 276646.080000
   6703   6704     1   0.09730 310787.520000
   6706   6708     1   0.10969 276646.080000
   6707   6709     1   0.10969 276646.080000
   6710   6714     1   0.10969 276646.080000
   6711   6713     1   0.10969 276646.080000
   6712   6715     1   0.10961 277566.560000
   6717   6723     1   0.09730 310787.520000
   6718   6721     1   0.09730 310787.520000
   6719   6722     1   0.09730 310787.520000
   6720   6724     1   0.10969 276646.080000
   6720   6725     1   0.10969 276646.080000
   6726   6727     1   0.09730 310787.520000
   6729   6731     1   0.10969 276646.080000
   6730   6732     1   0.10969 276646.080000
   6733   6737     1   0.10969 276646.080000
   6734   6736     1   0.10969 276646.080000
   6735   6738     1   0.10961 277566.560000
   6740   6746     1   0.09730 310787.520000
   6741   6744     1   0.09730 310787.520000
   6742   6745     1   0.09730 310787.520000
   6743   6747     1   0.10969 276646.080000
   6743   6748     1   0.10969 276646.080000
   6749   6750     1   0.09730 310787.520000
   6752   6754     1   0.10969 276646.080000
   6753   6755     1   0.10969 276646.080000
   6756   6760     1   0.10969 276646.080000
   6757   6759     1   0.10969 276646.080000
   6758   6761     1   0.10961 277566.560000
   6763   6769     1   0.09730 310787.520000
   6764   6767     1   0.09730 310787.520000
   6765   6768     1   0.09730 310787.520000
   6766   6770     1   0.10969 276646.080000
   6766   6771     1   0.10969 276646.080000
   6772   6773     1   0.09730 310787.520000
   6775   6777     1   0.10969 276646.080000
   6776   6778     1   0.10969 276646.080000
   6779   6783     1   0.10969 276646.080000
   6780   6782     1   0.10969 276646.080000
   6781   6784     1   0.10961 277566.560000
   6786   6792     1   0.09730 310787.520000
   6787   6790     1   0.09730 310787.520000
   6788   6791     1   0.09730 310787.520000
   6789   6793     1   0.10969 276646.080000
   6789   6794     1   0.10969 276646.080000
   6795   6796     1   0.09730 310787.520000
   6798   6800     1   0.10969 276646.080000
   6799   6801     1   0.10969 276646.080000
   6802   6806     1   0.10969 276646.080000
   6803   6805     1   0.10969 276646.080000
   6804   6807     1   0.10961 277566.560000
   6809   6815     1   0.09730 310787.520000
   6810   6813     1   0.09730 310787.520000
   6811   6814     1   0.09730 310787.520000
   6812   6816     1   0.10969 276646.080000
   6812   6817     1   0.10969 276646.080000
   6818   6819     1   0.09730 310787.520000
   6821   6823     1   0.10969 276646.080000
   6822   6824     1   0.10969 276646.080000
   6825   6829     1   0.10969 276646.080000
   6826   6828     1   0.10969 276646.080000
   6827   6830     1   0.10961 277566.560000
   6832   6838     1   0.09730 310787.520000
   6833   6836     1   0.09730 310787.520000
   6834   6837     1   0.09730 310787.520000
   6835   6839     1   0.10969 276646.080000
   6835   6840     1   0.10969 276646.080000
   6841   6842     1   0.09730 310787.520000
   6844   6846     1   0.10969 276646.080000
   6845   6847     1   0.10969 276646.080000
   6848   6852     1   0.10969 276646.080000
   6849   6851     1   0.10969 276646.080000
   6850   6853     1   0.10961 277566.560000
   6855   6861     1   0.09730 310787.520000
   6856   6859     1   0.09730 310787.520000
   6857   6860     1   0.09730 310787.520000
   6858   6862     1   0.10969 276646.080000
   6858   6863     1   0.10969 276646.080000
   6864   6865     1   0.09730 310787.520000
   6867   6869     1   0.10969 276646.080000
   6868   6870     1   0.10969 276646.080000
   6871   6875     1   0.10969 276646.080000
   6872   6874     1   0.10969 276646.080000
   6873   6876     1   0.10961 277566.560000
   6878   6884     1   0.09730 310787.520000
   6879   6882     1   0.09730 310787.520000
   6880   6883     1   0.09730 310787.520000
   6881   6885     1   0.10969 276646.080000
   6881   6886     1   0.10969 276646.080000
   6887   6888     1   0.09730 310787.520000
   6890   6892     1   0.10969 276646.080000
   6891   6893     1   0.10969 276646.080000
   6894   6898     1   0.10969 276646.080000
   6895   6897     1   0.10969 276646.080000
   6896   6899     1   0.10961 277566.560000
   6901   6907     1   0.09730 310787.520000
   6902   6905     1   0.09730 310787.520000
   6903   6906     1   0.09730 310787.520000
   6904   6908     1   0.10969 276646.080000
   6904   6909     1   0.10969 276646.080000
   6910   6911     1   0.09730 310787.520000
   6913   6915     1   0.10969 276646.080000
   6914   6916     1   0.10969 276646.080000
   6917   6921     1   0.10969 276646.080000
   6918   6920     1   0.10969 276646.080000
   6919   6922     1   0.10961 277566.560000
   6924   6930     1   0.09730 310787.520000
   6925   6928     1   0.09730 310787.520000
   6926   6929     1   0.09730 310787.520000
   6927   6931     1   0.10969 276646.080000
   6927   6932     1   0.10969 276646.080000
   6933   6934     1   0.09730 310787.520000
   6936   6938     1   0.10969 276646.080000
   6937   6939     1   0.10969 276646.080000
   6940   6944     1   0.10969 276646.080000
   6941   6943     1   0.10969 276646.080000
   6942   6945     1   0.10961 277566.560000
   6947   6953     1   0.09730 310787.520000
   6948   6951     1   0.09730 310787.520000
   6949   6952     1   0.09730 310787.520000
   6950   6954     1   0.10969 276646.080000
   6950   6955     1   0.10969 276646.080000
   6956   6957     1   0.09730 310787.520000
   6959   6961     1   0.10969 276646.080000
   6960   6962     1   0.10969 276646.080000
   6963   6967     1   0.10969 276646.080000
   6964   6966     1   0.10969 276646.080000
   6965   6968     1   0.10961 277566.560000
   6970   6976     1   0.09730 310787.520000
   6971   6974     1   0.09730 310787.520000
   6972   6975     1   0.09730 310787.520000
   6973   6977     1   0.10969 276646.080000
   6973   6978     1   0.10969 276646.080000
   6979   6980     1   0.09730 310787.520000
   6982   6984     1   0.10969 276646.080000
   6983   6985     1   0.10969 276646.080000
   6986   6990     1   0.10969 276646.080000
   6987   6989     1   0.10969 276646.080000
   6988   6991     1   0.10961 277566.560000
   6993   6999     1   0.09730 310787.520000
   6994   6997     1   0.09730 310787.520000
   6995   6998     1   0.09730 310787.520000
   6996   7000     1   0.10969 276646.080000
   6996   7001     1   0.10969 276646.080000
   7002   7003     1   0.09730 310787.520000
   7005   7007     1   0.10969 276646.080000
   7006   7008     1   0.10969 276646.080000
   7009   7013     1   0.10969 276646.080000
   7010   7012     1   0.10969 276646.080000
   7011   7014     1   0.10961 277566.560000
   7016   7022     1   0.09730 310787.520000
   7017   7020     1   0.09730 310787.520000
   7018   7021     1   0.09730 310787.520000
   7019   7023     1   0.10969 276646.080000
   7019   7024     1   0.10969 276646.080000
   7025   7026     1   0.09730 310787.520000
   7028   7030     1   0.10969 276646.080000
   7029   7031     1   0.10969 276646.080000
   7032   7036     1   0.10969 276646.080000
   7033   7035     1   0.10969 276646.080000
   7034   7037     1   0.10961 277566.560000
   7039   7045     1   0.09730 310787.520000
   7040   7043     1   0.09730 310787.520000
   7041   7044     1   0.09730 310787.520000
   7042   7046     1   0.10969 276646.080000
   7042   7047     1   0.10969 276646.080000
   7048   7049     1   0.09730 310787.520000
   7051   7053     1   0.10969 276646.080000
   7052   7054     1   0.10969 276646.080000
   7055   7059     1   0.10969 276646.080000
   7056   7058     1   0.10969 276646.080000
   7057   7060     1   0.10961 277566.560000
   7062   7068     1   0.09730 310787.520000
   7063   7066     1   0.09730 310787.520000
   7064   7067     1   0.09730 310787.520000
   7065   7069     1   0.10969 276646.080000
   7065   7070     1   0.10969 276646.080000
   7071   7072     1   0.09730 310787.520000
   7074   7076     1   0.10969 276646.080000
   7075   7077     1   0.10969 276646.080000
   7078   7082     1   0.10969 276646.080000
   7079   7081     1   0.10969 276646.080000
   7080   7083     1   0.10961 277566.560000
   7085   7091     1   0.09730 310787.520000
   7086   7089     1   0.09730 310787.520000
   7087   7090     1   0.09730 310787.520000
   7088   7092     1   0.10969 276646.080000
   7088   7093     1   0.10969 276646.080000
   7094   7095     1   0.09730 310787.520000
   7097   7099     1   0.10969 276646.080000
   7098   7100     1   0.10969 276646.080000
   7101   7105     1   0.10969 276646.080000
   7102   7104     1   0.10969 276646.080000
   7103   7106     1   0.10961 277566.560000
   7108   7114     1   0.09730 310787.520000
   7109   7112     1   0.09730 310787.520000
   7110   7113     1   0.09730 310787.520000
   7111   7115     1   0.10969 276646.080000
   7111   7116     1   0.10969 276646.080000
   7117   7118     1   0.09730 310787.520000
   7120   7122     1   0.10969 276646.080000
   7121   7123     1   0.10969 276646.080000
   7124   7128     1   0.10969 276646.080000
   7125   7127     1   0.10969 276646.080000
   7126   7129     1   0.10961 277566.560000
   7131   7137     1   0.09730 310787.520000
   7132   7135     1   0.09730 310787.520000
   7133   7136     1   0.09730 310787.520000
   7134   7138     1   0.10969 276646.080000
   7134   7139     1   0.10969 276646.080000
   7140   7141     1   0.09730 310787.520000
   7143   7145     1   0.10969 276646.080000
   7144   7146     1   0.10969 276646.080000
   7147   7151     1   0.10969 276646.080000
   7148   7150     1   0.10969 276646.080000
   7149   7152     1   0.10961 277566.560000
   7154   7160     1   0.09730 310787.520000
   7155   7158     1   0.09730 310787.520000
   7156   7159     1   0.09730 310787.520000
   7157   7161     1   0.10969 276646.080000
   7157   7162     1   0.10969 276646.080000
   7163   7164     1   0.09730 310787.520000
   7166   7168     1   0.10969 276646.080000
   7167   7169     1   0.10969 276646.080000
   7170   7174     1   0.10969 276646.080000
   7171   7173     1   0.10969 276646.080000
   7172   7175     1   0.10961 277566.560000
   7177   7183     1   0.09730 310787.520000
   7178   7181     1   0.09730 310787.520000
   7179   7182     1   0.09730 310787.520000
   7180   7184     1   0.10969 276646.080000
   7180   7185     1   0.10969 276646.080000
   7186   7187     1   0.09730 310787.520000
   7189   7191     1   0.10969 276646.080000
   7190   7192     1   0.10969 276646.080000
   7193   7197     1   0.10969 276646.080000
   7194   7196     1   0.10969 276646.080000
   7195   7198     1   0.10961 277566.560000
   7200   7206     1   0.09730 310787.520000
   7201   7204     1   0.09730 310787.520000
   7202   7205     1   0.09730 310787.520000
   7203   7207     1   0.10969 276646.080000
   7203   7208     1   0.10969 276646.080000
   7209   7210     1   0.09730 310787.520000
   7212   7214     1   0.10969 276646.080000
   7213   7215     1   0.10969 276646.080000
   7216   7220     1   0.10969 276646.080000
   7217   7219     1   0.10969 276646.080000
   7218   7221     1   0.10961 277566.560000
   7223   7229     1   0.09730 310787.520000
   7224   7227     1   0.09730 310787.520000
   7225   7228     1   0.09730 310787.520000
   7226   7230     1   0.10969 276646.080000
   7226   7231     1   0.10969 276646.080000
   7232   7233     1   0.09730 310787.520000
   7235   7237     1   0.10969 276646.080000
   7236   7238     1   0.10969 276646.080000
   7239   7243     1   0.10969 276646.080000
   7240   7242     1   0.10969 276646.080000
   7241   7244     1   0.10961 277566.560000
   7246   7252     1   0.09730 310787.520000
   7247   7250     1   0.09730 310787.520000
   7248   7251     1   0.09730 310787.520000
   7249   7253     1   0.10969 276646.080000
   7249   7254     1   0.10969 276646.080000
   7255   7256     1   0.09730 310787.520000
   7258   7260     1   0.10969 276646.080000
   7259   7261     1   0.10969 276646.080000
   7262   7266     1   0.10969 276646.080000
   7263   7265     1   0.10969 276646.080000
   7264   7267     1   0.10961 277566.560000
   7269   7275     1   0.09730 310787.520000
   7270   7273     1   0.09730 310787.520000
   7271   7274     1   0.09730 310787.520000
   7272   7276     1   0.10969 276646.080000
   7272   7277     1   0.10969 276646.080000
   7278   7279     1   0.09730 310787.520000
   7281   7283     1   0.10969 276646.080000
   7282   7284     1   0.10969 276646.080000
   7285   7289     1   0.10969 276646.080000
   7286   7288     1   0.10969 276646.080000
   7287   7290     1   0.10961 277566.560000
   7292   7298     1   0.09730 310787.520000
   7293   7296     1   0.09730 310787.520000
   7294   7297     1   0.09730 310787.520000
   7295   7299     1   0.10969 276646.080000
   7295   7300     1   0.10969 276646.080000
   7301   7302     1   0.09730 310787.520000
   7304   7306     1   0.10969 276646.080000
   7305   7307     1   0.10969 276646.080000
   7308   7312     1   0.10969 276646.080000
   7309   7311     1   0.10969 276646.080000
   7310   7313     1   0.10961 277566.560000
   7315   7321     1   0.09730 310787.520000
   7316   7319     1   0.09730 310787.520000
   7317   7320     1   0.09730 310787.520000
   7318   7322     1   0.10969 276646.080000
   7318   7323     1   0.10969 276646.080000
   7324   7325     1   0.09730 310787.520000
   7327   7329     1   0.10969 276646.080000
   7328   7330     1   0.10969 276646.080000
   7331   7335     1   0.10969 276646.080000
   7332   7334     1   0.10969 276646.080000
   7333   7336     1   0.10961 277566.560000
   7338   7344     1   0.09730 310787.520000
   7339   7342     1   0.09730 310787.520000
   7340   7343     1   0.09730 310787.520000
   7341   7345     1   0.10969 276646.080000
   7341   7346     1   0.10969 276646.080000
   7347   7348     1   0.09730 310787.520000
   7350   7352     1   0.10969 276646.080000
   7351   7353     1   0.10969 276646.080000
   7354   7358     1   0.10969 276646.080000
   7355   7357     1   0.10969 276646.080000
   7356   7359     1   0.10961 277566.560000
   7361   7367     1   0.09730 310787.520000
   7362   7365     1   0.09730 310787.520000
   7363   7366     1   0.09730 310787.520000
   7364   7368     1   0.10969 276646.080000
   7364   7369     1   0.10969 276646.080000
   7370   7371     1   0.09730 310787.520000
   7373   7375     1   0.10969 276646.080000
   7374   7376     1   0.10969 276646.080000
   7377   7381     1   0.10969 276646.080000
   7378   7380     1   0.10969 276646.080000
   7379   7382     1   0.10961 277566.560000
   7384   7390     1   0.09730 310787.520000
   7385   7388     1   0.09730 310787.520000
   7386   7389     1   0.09730 310787.520000
   7387   7391     1   0.10969 276646.080000
   7387   7392     1   0.10969 276646.080000
   7393   7394     1   0.09730 310787.520000
   7396   7398     1   0.10969 276646.080000
   7397   7399     1   0.10969 276646.080000
   7400   7404     1   0.10969 276646.080000
   7401   7403     1   0.10969 276646.080000
   7402   7405     1   0.10961 277566.560000
   7407   7413     1   0.09730 310787.520000
   7408   7411     1   0.09730 310787.520000
   7409   7412     1   0.09730 310787.520000
   7410   7414     1   0.10969 276646.080000
   7410   7415     1   0.10969 276646.080000
   7416   7417     1   0.09730 310787.520000
   7419   7421     1   0.10969 276646.080000
   7420   7422     1   0.10969 276646.080000
   7423   7427     1   0.10969 276646.080000
   7424   7426     1   0.10969 276646.080000
   7425   7428     1   0.10961 277566.560000
   7430   7436     1   0.09730 310787.520000
   7431   7434     1   0.09730 310787.520000
   7432   7435     1   0.09730 310787.520000
   7433   7437     1   0.10969 276646.080000
   7433   7438     1   0.10969 276646.080000
   7439   7440     1   0.09730 310787.520000
   7442   7444     1   0.10969 276646.080000
   7443   7445     1   0.10969 276646.080000
   7446   7450     1   0.10969 276646.080000
   7447   7449     1   0.10969 276646.080000
   7448   7451     1   0.10961 277566.560000
   7453   7459     1   0.09730 310787.520000
   7454   7457     1   0.09730 310787.520000
   7455   7458     1   0.09730 310787.520000
   7456   7460     1   0.10969 276646.080000
   7456   7461     1   0.10969 276646.080000
   7462   7463     1   0.09730 310787.520000
   7465   7467     1   0.10969 276646.080000
   7466   7468     1   0.10969 276646.080000
   7469   7473     1   0.10969 276646.080000
   7470   7472     1   0.10969 276646.080000
   7471   7474     1   0.10961 277566.560000
   7476   7482     1   0.09730 310787.520000
   7477   7480     1   0.09730 310787.520000
   7478   7481     1   0.09730 310787.520000
   7479   7483     1   0.10969 276646.080000
   7479   7484     1   0.10969 276646.080000
   7485   7486     1   0.09730 310787.520000
   7488   7490     1   0.10969 276646.080000
   7489   7491     1   0.10969 276646.080000
   7492   7496     1   0.10969 276646.080000
   7493   7495     1   0.10969 276646.080000
   7494   7497     1   0.10961 277566.560000
   7499   7505     1   0.09730 310787.520000
   7500   7503     1   0.09730 310787.520000
   7501   7504     1   0.09730 310787.520000
   7502   7506     1   0.10969 276646.080000
   7502   7507     1   0.10969 276646.080000
   7508   7509     1   0.09730 310787.520000
   7511   7513     1   0.10969 276646.080000
   7512   7514     1   0.10969 276646.080000
   7515   7519     1   0.10969 276646.080000
   7516   7518     1   0.10969 276646.080000
   7517   7520     1   0.10961 277566.560000
   7522   7528     1   0.09730 310787.520000
   7523   7526     1   0.09730 310787.520000
   7524   7527     1   0.09730 310787.520000
   7525   7529     1   0.10969 276646.080000
   7525   7530     1   0.10969 276646.080000
   7531   7532     1   0.09730 310787.520000
   7534   7536     1   0.10969 276646.080000
   7535   7537     1   0.10969 276646.080000
   7538   7542     1   0.10969 276646.080000
   7539   7541     1   0.10969 276646.080000
   7540   7543     1   0.10961 277566.560000
   7545   7551     1   0.09730 310787.520000
   7546   7549     1   0.09730 310787.520000
   7547   7550     1   0.09730 310787.520000
   7548   7552     1   0.10969 276646.080000
   7548   7553     1   0.10969 276646.080000
   7554   7555     1   0.09730 310787.520000
   7557   7559     1   0.10969 276646.080000
   7558   7560     1   0.10969 276646.080000
   7561   7565     1   0.10969 276646.080000
   7562   7564     1   0.10969 276646.080000
   7563   7566     1   0.10961 277566.560000
   7568   7574     1   0.09730 310787.520000
   7569   7572     1   0.09730 310787.520000
   7570   7573     1   0.09730 310787.520000
   7571   7575     1   0.10969 276646.080000
   7571   7576     1   0.10969 276646.080000
   7577   7578     1   0.09730 310787.520000
   7580   7582     1   0.10969 276646.080000
   7581   7583     1   0.10969 276646.080000
   7584   7588     1   0.10969 276646.080000
   7585   7587     1   0.10969 276646.080000
   7586   7589     1   0.10961 277566.560000
   7591   7597     1   0.09730 310787.520000
   7592   7595     1   0.09730 310787.520000
   7593   7596     1   0.09730 310787.520000
   7594   7598     1   0.10969 276646.080000
   7594   7599     1   0.10969 276646.080000
   7600   7601     1   0.09730 310787.520000
   7603   7605     1   0.10969 276646.080000
   7604   7606     1   0.10969 276646.080000
   7607   7611     1   0.10969 276646.080000
   7608   7610     1   0.10969 276646.080000
   7609   7612     1   0.10961 277566.560000
   7614   7620     1   0.09730 310787.520000
   7615   7618     1   0.09730 310787.520000
   7616   7619     1   0.09730 310787.520000
   7617   7621     1   0.10969 276646.080000
   7617   7622     1   0.10969 276646.080000
   7623   7624     1   0.09730 310787.520000
   7626   7628     1   0.10969 276646.080000
   7627   7629     1   0.10969 276646.080000
   7630   7634     1   0.10969 276646.080000
   7631   7633     1   0.10969 276646.080000
   7632   7635     1   0.10961 277566.560000
   7637   7643     1   0.09730 310787.520000
   7638   7641     1   0.09730 310787.520000
   7639   7642     1   0.09730 310787.520000
   7640   7644     1   0.10969 276646.080000
   7640   7645     1   0.10969 276646.080000
   7646   7647     1   0.09730 310787.520000
   7649   7651     1   0.10969 276646.080000
   7650   7652     1   0.10969 276646.080000
   7653   7657     1   0.10969 276646.080000
   7654   7656     1   0.10969 276646.080000
   7655   7658     1   0.10961 277566.560000
   7660   7666     1   0.09730 310787.520000
   7661   7664     1   0.09730 310787.520000
   7662   7665     1   0.09730 310787.520000
   7663   7667     1   0.10969 276646.080000
   7663   7668     1   0.10969 276646.080000
   7669   7670     1   0.09730 310787.520000
   7672   7674     1   0.10969 276646.080000
   7673   7675     1   0.10969 276646.080000
   7676   7680     1   0.10969 276646.080000
   7677   7679     1   0.10969 276646.080000
   7678   7681     1   0.10961 277566.560000
   7683   7689     1   0.09730 310787.520000
   7684   7687     1   0.09730 310787.520000
   7685   7688     1   0.09730 310787.520000
   7686   7690     1   0.10969 276646.080000
   7686   7691     1   0.10969 276646.080000
   7692   7693     1   0.09730 310787.520000
   7695   7697     1   0.10969 276646.080000
   7696   7698     1   0.10969 276646.080000
   7699   7703     1   0.10969 276646.080000
   7700   7702     1   0.10969 276646.080000
   7701   7704     1   0.10961 277566.560000
   7706   7712     1   0.09730 310787.520000
   7707   7710     1   0.09730 310787.520000
   7708   7711     1   0.09730 310787.520000
   7709   7713     1   0.10969 276646.080000
   7709   7714     1   0.10969 276646.080000
   7715   7716     1   0.09730 310787.520000
   7718   7720     1   0.10969 276646.080000
   7719   7721     1   0.10969 276646.080000
   7722   7726     1   0.10969 276646.080000
   7723   7725     1   0.10969 276646.080000
   7724   7727     1   0.10961 277566.560000
   7729   7735     1   0.09730 310787.520000
   7730   7733     1   0.09730 310787.520000
   7731   7734     1   0.09730 310787.520000
   7732   7736     1   0.10969 276646.080000
   7732   7737     1   0.10969 276646.080000
   7738   7739     1   0.09730 310787.520000
   7741   7743     1   0.10969 276646.080000
   7742   7744     1   0.10969 276646.080000
   7745   7749     1   0.10969 276646.080000
   7746   7748     1   0.10969 276646.080000
   7747   7750     1   0.10961 277566.560000
   7752   7758     1   0.09730 310787.520000
   7753   7756     1   0.09730 310787.520000
   7754   7757     1   0.09730 310787.520000
   7755   7759     1   0.10969 276646.080000
   7755   7760     1   0.10969 276646.080000
   7761   7762     1   0.09730 310787.520000
   7764   7766     1   0.10969 276646.080000
   7765   7767     1   0.10969 276646.080000
   7768   7772     1   0.10969 276646.080000
   7769   7771     1   0.10969 276646.080000
   7770   7773     1   0.10961 277566.560000
   7775   7781     1   0.09730 310787.520000
   7776   7779     1   0.09730 310787.520000
   7777   7780     1   0.09730 310787.520000
   7778   7782     1   0.10969 276646.080000
   7778   7783     1   0.10969 276646.080000
   7784   7785     1   0.09730 310787.520000
   7787   7789     1   0.10969 276646.080000
   7788   7790     1   0.10969 276646.080000
   7791   7795     1   0.10969 276646.080000
   7792   7794     1   0.10969 276646.080000
   7793   7796     1   0.10961 277566.560000
   7798   7804     1   0.09730 310787.520000
   7799   7802     1   0.09730 310787.520000
   7800   7803     1   0.09730 310787.520000
   7801   7805     1   0.10969 276646.080000
   7801   7806     1   0.10969 276646.080000
   7807   7808     1   0.09730 310787.520000
   7810   7812     1   0.10969 276646.080000
   7811   7813     1   0.10969 276646.080000
   7814   7818     1   0.10969 276646.080000
   7815   7817     1   0.10969 276646.080000
   7816   7819     1   0.10961 277566.560000
   7821   7827     1   0.09730 310787.520000
   7822   7825     1   0.09730 310787.520000
   7823   7826     1   0.09730 310787.520000
   7824   7828     1   0.10969 276646.080000
   7824   7829     1   0.10969 276646.080000
   7830   7831     1   0.09730 310787.520000
   7833   7835     1   0.10969 276646.080000
   7834   7836     1   0.10969 276646.080000
   7837   7841     1   0.10969 276646.080000
   7838   7840     1   0.10969 276646.080000
   7839   7842     1   0.10961 277566.560000
   7844   7850     1   0.09730 310787.520000
   7845   7848     1   0.09730 310787.520000
   7846   7849     1   0.09730 310787.520000
   7847   7851     1   0.10969 276646.080000
   7847   7852     1   0.10969 276646.080000
   7853   7854     1   0.09730 310787.520000
   7856   7858     1   0.10969 276646.080000
   7857   7859     1   0.10969 276646.080000
   7860   7864     1   0.10969 276646.080000
   7861   7863     1   0.10969 276646.080000
   7862   7865     1   0.10961 277566.560000
   7867   7873     1   0.09730 310787.520000
   7868   7871     1   0.09730 310787.520000
   7869   7872     1   0.09730 310787.520000
   7870   7874     1   0.10969 276646.080000
   7870   7875     1   0.10969 276646.080000
   7876   7877     1   0.09730 310787.520000
   7879   7881     1   0.10969 276646.080000
   7880   7882     1   0.10969 276646.080000
   7883   7887     1   0.10969 276646.080000
   7884   7886     1   0.10969 276646.080000
   7885   7888     1   0.10961 277566.560000
   7890   7896     1   0.09730 310787.520000
   7891   7894     1   0.09730 310787.520000
   7892   7895     1   0.09730 310787.520000
   7893   7897     1   0.10969 276646.080000
   7893   7898     1   0.10969 276646.080000
   7899   7900     1   0.09730 310787.520000
   7902   7904     1   0.10969 276646.080000
   7903   7905     1   0.10969 276646.080000
   7906   7910     1   0.10969 276646.080000
   7907   7909     1   0.10969 276646.080000
   7908   7911     1   0.10961 277566.560000
   7913   7919     1   0.09730 310787.520000
   7914   7917     1   0.09730 310787.520000
   7915   7918     1   0.09730 310787.520000
   7916   7920     1   0.10969 276646.080000
   7916   7921     1   0.10969 276646.080000
   7922   7923     1   0.09730 310787.520000
   7925   7927     1   0.10969 276646.080000
   7926   7928     1   0.10969 276646.080000
   7929   7933     1   0.10969 276646.080000
   7930   7932     1   0.10969 276646.080000
   7931   7934     1   0.10961 277566.560000
   7936   7942     1   0.09730 310787.520000
   7937   7940     1   0.09730 310787.520000
   7938   7941     1   0.09730 310787.520000
   7939   7943     1   0.10969 276646.080000
   7939   7944     1   0.10969 276646.080000
   7945   7946     1   0.09730 310787.520000
   7948   7950     1   0.10969 276646.080000
   7949   7951     1   0.10969 276646.080000
   7952   7956     1   0.10969 276646.080000
   7953   7955     1   0.10969 276646.080000
   7954   7957     1   0.10961 277566.560000
   7959   7965     1   0.09730 310787.520000
   7960   7963     1   0.09730 310787.520000
   7961   7964     1   0.09730 310787.520000
   7962   7966     1   0.10969 276646.080000
   7962   7967     1   0.10969 276646.080000
   7968   7969     1   0.09730 310787.520000
   7971   7973     1   0.10969 276646.080000
   7972   7974     1   0.10969 276646.080000
   7975   7979     1   0.10969 276646.080000
   7976   7978     1   0.10969 276646.080000
   7977   7980     1   0.10961 277566.560000
   7982   7988     1   0.09730 310787.520000
   7983   7986     1   0.09730 310787.520000
   7984   7987     1   0.09730 310787.520000
   7985   7989     1   0.10969 276646.080000
   7985   7990     1   0.10969 276646.080000
   7991   7992     1   0.09730 310787.520000
   7994   7996     1   0.10969 276646.080000
   7995   7997     1   0.10969 276646.080000
   7998   8002     1   0.10969 276646.080000
   7999   8001     1   0.10969 276646.080000
   8000   8003     1   0.10961 277566.560000
   8005   8011     1   0.09730 310787.520000
   8006   8009     1   0.09730 310787.520000
   8007   8010     1   0.09730 310787.520000
   8008   8012     1   0.10969 276646.080000
   8008   8013     1   0.10969 276646.080000
   8014   8015     1   0.09730 310787.520000
   8017   8019     1   0.10969 276646.080000
   8018   8020     1   0.10969 276646.080000
   8021   8025     1   0.10969 276646.080000
   8022   8024     1   0.10969 276646.080000
   8023   8026     1   0.10961 277566.560000
   8028   8034     1   0.09730 310787.520000
   8029   8032     1   0.09730 310787.520000
   8030   8033     1   0.09730 310787.520000
   8031   8035     1   0.10969 276646.080000
   8031   8036     1   0.10969 276646.080000
   8037   8038     1   0.09730 310787.520000
   8040   8042     1   0.10969 276646.080000
   8041   8043     1   0.10969 276646.080000
   8044   8048     1   0.10969 276646.080000
   8045   8047     1   0.10969 276646.080000
   8046   8049     1   0.10961 277566.560000
   8051   8057     1   0.09730 310787.520000
   8052   8055     1   0.09730 310787.520000
   8053   8056     1   0.09730 310787.520000
   8054   8058     1   0.10969 276646.080000
   8054   8059     1   0.10969 276646.080000
   8060   8061     1   0.09730 310787.520000
   8063   8065     1   0.10969 276646.080000
   8064   8066     1   0.10969 276646.080000
   8067   8071     1   0.10969 276646.080000
   8068   8070     1   0.10969 276646.080000
   8069   8072     1   0.10961 277566.560000
   8074   8080     1   0.09730 310787.520000
   8075   8078     1   0.09730 310787.520000
   8076   8079     1   0.09730 310787.520000
   8077   8081     1   0.10969 276646.080000
   8077   8082     1   0.10969 276646.080000
   8083   8084     1   0.09730 310787.520000
   8086   8088     1   0.10969 276646.080000
   8087   8089     1   0.10969 276646.080000
   8090   8094     1   0.10969 276646.080000
   8091   8093     1   0.10969 276646.080000
   8092   8095     1   0.10961 277566.560000
   8097   8103     1   0.09730 310787.520000
   8098   8101     1   0.09730 310787.520000
   8099   8102     1   0.09730 310787.520000
   8100   8104     1   0.10969 276646.080000
   8100   8105     1   0.10969 276646.080000
   8106   8107     1   0.09730 310787.520000
   8109   8111     1   0.10969 276646.080000
   8110   8112     1   0.10969 276646.080000
   8113   8117     1   0.10969 276646.080000
   8114   8116     1   0.10969 276646.080000
   8115   8118     1   0.10961 277566.560000
   8120   8126     1   0.09730 310787.520000
   8121   8124     1   0.09730 310787.520000
   8122   8125     1   0.09730 310787.520000
   8123   8127     1   0.10969 276646.080000
   8123   8128     1   0.10969 276646.080000
   8129   8130     1   0.09730 310787.520000
   8132   8134     1   0.10969 276646.080000
   8133   8135     1   0.10969 276646.080000
   8136   8140     1   0.10969 276646.080000
   8137   8139     1   0.10969 276646.080000
   8138   8141     1   0.10961 277566.560000
   8143   8149     1   0.09730 310787.520000
   8144   8147     1   0.09730 310787.520000
   8145   8148     1   0.09730 310787.520000
   8146   8150     1   0.10969 276646.080000
   8146   8151     1   0.10969 276646.080000
   8152   8153     1   0.09730 310787.520000
   8155   8157     1   0.10969 276646.080000
   8156   8158     1   0.10969 276646.080000
   8159   8163     1   0.10969 276646.080000
   8160   8162     1   0.10969 276646.080000
   8161   8164     1   0.10961 277566.560000
   8166   8172     1   0.09730 310787.520000
   8167   8170     1   0.09730 310787.520000
   8168   8171     1   0.09730 310787.520000
   8169   8173     1   0.10969 276646.080000
   8169   8174     1   0.10969 276646.080000
   8175   8176     1   0.09730 310787.520000
   8178   8180     1   0.10969 276646.080000
   8179   8181     1   0.10969 276646.080000
   8182   8186     1   0.10969 276646.080000
   8183   8185     1   0.10969 276646.080000
   8184   8187     1   0.10961 277566.560000
   8189   8195     1   0.09730 310787.520000
   8190   8193     1   0.09730 310787.520000
   8191   8194     1   0.09730 310787.520000
   8192   8196     1   0.10969 276646.080000
   8192   8197     1   0.10969 276646.080000
   8198   8199     1   0.09730 310787.520000
   8201   8203     1   0.10969 276646.080000
   8202   8204     1   0.10969 276646.080000
   8205   8209     1   0.10969 276646.080000
   8206   8208     1   0.10969 276646.080000
   8207   8210     1   0.10961 277566.560000
   8212   8218     1   0.09730 310787.520000
   8213   8216     1   0.09730 310787.520000
   8214   8217     1   0.09730 310787.520000
   8215   8219     1   0.10969 276646.080000
   8215   8220     1   0.10969 276646.080000
   8221   8222     1   0.09730 310787.520000
   8224   8226     1   0.10969 276646.080000
   8225   8227     1   0.10969 276646.080000
   8228   8232     1   0.10969 276646.080000
   8229   8231     1   0.10969 276646.080000
   8230   8233     1   0.10961 277566.560000
   8235   8241     1   0.09730 310787.520000
   8236   8239     1   0.09730 310787.520000
   8237   8240     1   0.09730 310787.520000
   8238   8242     1   0.10969 276646.080000
   8238   8243     1   0.10969 276646.080000
   8244   8245     1   0.09730 310787.520000
   8247   8249     1   0.10969 276646.080000
   8248   8250     1   0.10969 276646.080000
   8251   8255     1   0.10969 276646.080000
   8252   8254     1   0.10969 276646.080000
   8253   8256     1   0.10961 277566.560000
   8258   8264     1   0.09730 310787.520000
   8259   8262     1   0.09730 310787.520000
   8260   8263     1   0.09730 310787.520000
   8261   8265     1   0.10969 276646.080000
   8261   8266     1   0.10969 276646.080000
   8267   8268     1   0.09730 310787.520000
   8270   8272     1   0.10969 276646.080000
   8271   8273     1   0.10969 276646.080000
   8274   8278     1   0.10969 276646.080000
   8275   8277     1   0.10969 276646.080000
   8276   8279     1   0.10961 277566.560000
   8281   8287     1   0.09730 310787.520000
   8282   8285     1   0.09730 310787.520000
   8283   8286     1   0.09730 310787.520000
   8284   8288     1   0.10969 276646.080000
   8284   8289     1   0.10969 276646.080000
   8290   8291     1   0.09730 310787.520000
   8293   8295     1   0.10969 276646.080000
   8294   8296     1   0.10969 276646.080000
   8297   8301     1   0.10969 276646.080000
   8298   8300     1   0.10969 276646.080000
   8299   8302     1   0.10961 277566.560000
   8304   8310     1   0.09730 310787.520000
   8305   8308     1   0.09730 310787.520000
   8306   8309     1   0.09730 310787.520000
   8307   8311     1   0.10969 276646.080000
   8307   8312     1   0.10969 276646.080000
   8313   8314     1   0.09730 310787.520000
   8316   8318     1   0.10969 276646.080000
   8317   8319     1   0.10969 276646.080000
   8320   8324     1   0.10969 276646.080000
   8321   8323     1   0.10969 276646.080000
   8322   8325     1   0.10961 277566.560000
   8327   8333     1   0.09730 310787.520000
   8328   8331     1   0.09730 310787.520000
   8329   8332     1   0.09730 310787.520000
   8330   8334     1   0.10969 276646.080000
   8330   8335     1   0.10969 276646.080000
   8336   8337     1   0.09730 310787.520000
   8339   8341     1   0.10969 276646.080000
   8340   8342     1   0.10969 276646.080000
   8343   8347     1   0.10969 276646.080000
   8344   8346     1   0.10969 276646.080000
   8345   8348     1   0.10961 277566.560000
   8350   8356     1   0.09730 310787.520000
   8351   8354     1   0.09730 310787.520000
   8352   8355     1   0.09730 310787.520000
   8353   8357     1   0.10969 276646.080000
   8353   8358     1   0.10969 276646.080000
   8359   8360     1   0.09730 310787.520000
   8362   8364     1   0.10969 276646.080000
   8363   8365     1   0.10969 276646.080000
   8366   8370     1   0.10969 276646.080000
   8367   8369     1   0.10969 276646.080000
   8368   8371     1   0.10961 277566.560000
   8373   8379     1   0.09730 310787.520000
   8374   8377     1   0.09730 310787.520000
   8375   8378     1   0.09730 310787.520000
   8376   8380     1   0.10969 276646.080000
   8376   8381     1   0.10969 276646.080000
   8382   8383     1   0.09730 310787.520000
   8385   8387     1   0.10969 276646.080000
   8386   8388     1   0.10969 276646.080000
   8389   8393     1   0.10969 276646.080000
   8390   8392     1   0.10969 276646.080000
   8391   8394     1   0.10961 277566.560000
   8396   8402     1   0.09730 310787.520000
   8397   8400     1   0.09730 310787.520000
   8398   8401     1   0.09730 310787.520000
   8399   8403     1   0.10969 276646.080000
   8399   8404     1   0.10969 276646.080000
   8405   8406     1   0.09730 310787.520000
   8408   8410     1   0.10969 276646.080000
   8409   8411     1   0.10969 276646.080000
   8412   8416     1   0.10969 276646.080000
   8413   8415     1   0.10969 276646.080000
   8414   8417     1   0.10961 277566.560000
   8419   8425     1   0.09730 310787.520000
   8420   8423     1   0.09730 310787.520000
   8421   8424     1   0.09730 310787.520000
   8422   8426     1   0.10969 276646.080000
   8422   8427     1   0.10969 276646.080000
   8428   8429     1   0.09730 310787.520000
   8431   8433     1   0.10969 276646.080000
   8432   8434     1   0.10969 276646.080000
   8435   8439     1   0.10969 276646.080000
   8436   8438     1   0.10969 276646.080000
   8437   8440     1   0.10961 277566.560000
   8442   8448     1   0.09730 310787.520000
   8443   8446     1   0.09730 310787.520000
   8444   8447     1   0.09730 310787.520000
   8445   8449     1   0.10969 276646.080000
   8445   8450     1   0.10969 276646.080000
   8451   8452     1   0.09730 310787.520000
   8454   8456     1   0.10969 276646.080000
   8455   8457     1   0.10969 276646.080000
   8458   8462     1   0.10969 276646.080000
   8459   8461     1   0.10969 276646.080000
   8460   8463     1   0.10961 277566.560000
   8465   8471     1   0.09730 310787.520000
   8466   8469     1   0.09730 310787.520000
   8467   8470     1   0.09730 310787.520000
   8468   8472     1   0.10969 276646.080000
   8468   8473     1   0.10969 276646.080000
   8474   8475     1   0.09730 310787.520000
   8477   8479     1   0.10969 276646.080000
   8478   8480     1   0.10969 276646.080000
   8481   8485     1   0.10969 276646.080000
   8482   8484     1   0.10969 276646.080000
   8483   8486     1   0.10961 277566.560000
   8488   8494     1   0.09730 310787.520000
   8489   8492     1   0.09730 310787.520000
   8490   8493     1   0.09730 310787.520000
   8491   8495     1   0.10969 276646.080000
   8491   8496     1   0.10969 276646.080000
   8497   8498     1   0.09730 310787.520000
   8500   8502     1   0.10969 276646.080000
   8501   8503     1   0.10969 276646.080000
   8504   8508     1   0.10969 276646.080000
   8505   8507     1   0.10969 276646.080000
   8506   8509     1   0.10961 277566.560000
   8511   8517     1   0.09730 310787.520000
   8512   8515     1   0.09730 310787.520000
   8513   8516     1   0.09730 310787.520000
   8514   8518     1   0.10969 276646.080000
   8514   8519     1   0.10969 276646.080000
   8520   8521     1   0.09730 310787.520000
   8523   8525     1   0.10969 276646.080000
   8524   8526     1   0.10969 276646.080000
   8527   8531     1   0.10969 276646.080000
   8528   8530     1   0.10969 276646.080000
   8529   8532     1   0.10961 277566.560000
   8534   8540     1   0.09730 310787.520000
   8535   8538     1   0.09730 310787.520000
   8536   8539     1   0.09730 310787.520000
   8537   8541     1   0.10969 276646.080000
   8537   8542     1   0.10969 276646.080000
   8543   8544     1   0.09730 310787.520000
   8546   8548     1   0.10969 276646.080000
   8547   8549     1   0.10969 276646.080000
   8550   8554     1   0.10969 276646.080000
   8551   8553     1   0.10969 276646.080000
   8552   8555     1   0.10961 277566.560000
   8557   8563     1   0.09730 310787.520000
   8558   8561     1   0.09730 310787.520000
   8559   8562     1   0.09730 310787.520000
   8560   8564     1   0.10969 276646.080000
   8560   8565     1   0.10969 276646.080000
   8566   8567     1   0.09730 310787.520000
   8569   8571     1   0.10969 276646.080000
   8570   8572     1   0.10969 276646.080000
   8573   8577     1   0.10969 276646.080000
   8574   8576     1   0.10969 276646.080000
   8575   8578     1   0.10961 277566.560000
   8580   8586     1   0.09730 310787.520000
   8581   8584     1   0.09730 310787.520000
   8582   8585     1   0.09730 310787.520000
   8583   8587     1   0.10969 276646.080000
   8583   8588     1   0.10969 276646.080000
   8589   8590     1   0.09730 310787.520000
   8592   8594     1   0.10969 276646.080000
   8593   8595     1   0.10969 276646.080000
   8596   8600     1   0.10969 276646.080000
   8597   8599     1   0.10969 276646.080000
   8598   8601     1   0.10961 277566.560000
   8603   8609     1   0.09730 310787.520000
   8604   8607     1   0.09730 310787.520000
   8605   8608     1   0.09730 310787.520000
   8606   8610     1   0.10969 276646.080000
   8606   8611     1   0.10969 276646.080000
   8612   8613     1   0.09730 310787.520000
   8615   8617     1   0.10969 276646.080000
   8616   8618     1   0.10969 276646.080000
   8619   8623     1   0.10969 276646.080000
   8620   8622     1   0.10969 276646.080000
   8621   8624     1   0.10961 277566.560000
   8626   8632     1   0.09730 310787.520000
   8627   8630     1   0.09730 310787.520000
   8628   8631     1   0.09730 310787.520000
   8629   8633     1   0.10969 276646.080000
   8629   8634     1   0.10969 276646.080000
   8635   8636     1   0.09730 310787.520000
   8638   8640     1   0.10969 276646.080000
   8639   8641     1   0.10969 276646.080000
   8642   8646     1   0.10969 276646.080000
   8643   8645     1   0.10969 276646.080000
   8644   8647     1   0.10961 277566.560000
   8649   8655     1   0.09730 310787.520000
   8650   8653     1   0.09730 310787.520000
   8651   8654     1   0.09730 310787.520000
   8652   8656     1   0.10969 276646.080000
   8652   8657     1   0.10969 276646.080000
   8658   8659     1   0.09730 310787.520000
   8661   8663     1   0.10969 276646.080000
   8662   8664     1   0.10969 276646.080000
   8665   8669     1   0.10969 276646.080000
   8666   8668     1   0.10969 276646.080000
   8667   8670     1   0.10961 277566.560000
   8672   8678     1   0.09730 310787.520000
   8673   8676     1   0.09730 310787.520000
   8674   8677     1   0.09730 310787.520000
   8675   8679     1   0.10969 276646.080000
   8675   8680     1   0.10969 276646.080000
   8681   8682     1   0.09730 310787.520000
   8684   8686     1   0.10969 276646.080000
   8685   8687     1   0.10969 276646.080000
   8688   8692     1   0.10969 276646.080000
   8689   8691     1   0.10969 276646.080000
   8690   8693     1   0.10961 277566.560000
   8695   8701     1   0.09730 310787.520000
   8696   8699     1   0.09730 310787.520000
   8697   8700     1   0.09730 310787.520000
   8698   8702     1   0.10969 276646.080000
   8698   8703     1   0.10969 276646.080000
   8704   8705     1   0.09730 310787.520000
   8707   8709     1   0.10969 276646.080000
   8708   8710     1   0.10969 276646.080000
   8711   8715     1   0.10969 276646.080000
   8712   8714     1   0.10969 276646.080000
   8713   8716     1   0.10961 277566.560000
   8718   8724     1   0.09730 310787.520000
   8719   8722     1   0.09730 310787.520000
   8720   8723     1   0.09730 310787.520000
   8721   8725     1   0.10969 276646.080000
   8721   8726     1   0.10969 276646.080000
   8727   8728     1   0.09730 310787.520000
   8730   8732     1   0.10969 276646.080000
   8731   8733     1   0.10969 276646.080000
   8734   8738     1   0.10969 276646.080000
   8735   8737     1   0.10969 276646.080000
   8736   8739     1   0.10961 277566.560000
   8741   8747     1   0.09730 310787.520000
   8742   8745     1   0.09730 310787.520000
   8743   8746     1   0.09730 310787.520000
   8744   8748     1   0.10969 276646.080000
   8744   8749     1   0.10969 276646.080000
   8750   8751     1   0.09730 310787.520000
   8753   8755     1   0.10969 276646.080000
   8754   8756     1   0.10969 276646.080000
   8757   8761     1   0.10969 276646.080000
   8758   8760     1   0.10969 276646.080000
   8759   8762     1   0.10961 277566.560000
   8764   8770     1   0.09730 310787.520000
   8765   8768     1   0.09730 310787.520000
   8766   8769     1   0.09730 310787.520000
   8767   8771     1   0.10969 276646.080000
   8767   8772     1   0.10969 276646.080000
   8773   8774     1   0.09730 310787.520000
   8776   8778     1   0.10969 276646.080000
   8777   8779     1   0.10969 276646.080000
   8780   8784     1   0.10969 276646.080000
   8781   8783     1   0.10969 276646.080000
   8782   8785     1   0.10961 277566.560000
   8787   8793     1   0.09730 310787.520000
   8788   8791     1   0.09730 310787.520000
   8789   8792     1   0.09730 310787.520000
   8790   8794     1   0.10969 276646.080000
   8790   8795     1   0.10969 276646.080000
   8796   8797     1   0.09730 310787.520000
   8799   8801     1   0.10969 276646.080000
   8800   8802     1   0.10969 276646.080000
   8803   8807     1   0.10969 276646.080000
   8804   8806     1   0.10969 276646.080000
   8805   8808     1   0.10961 277566.560000
   8810   8816     1   0.09730 310787.520000
   8811   8814     1   0.09730 310787.520000
   8812   8815     1   0.09730 310787.520000
   8813   8817     1   0.10969 276646.080000
   8813   8818     1   0.10969 276646.080000
   8819   8820     1   0.09730 310787.520000
   8822   8824     1   0.10969 276646.080000
   8823   8825     1   0.10969 276646.080000
   8826   8830     1   0.10969 276646.080000
   8827   8829     1   0.10969 276646.080000
   8828   8831     1   0.10961 277566.560000
   8833   8839     1   0.09730 310787.520000
   8834   8837     1   0.09730 310787.520000
   8835   8838     1   0.09730 310787.520000
   8836   8840     1   0.10969 276646.080000
   8836   8841     1   0.10969 276646.080000
   8842   8843     1   0.09730 310787.520000
   8845   8847     1   0.10969 276646.080000
   8846   8848     1   0.10969 276646.080000
   8849   8853     1   0.10969 276646.080000
   8850   8852     1   0.10969 276646.080000
   8851   8854     1   0.10961 277566.560000
   8856   8862     1   0.09730 310787.520000
   8857   8860     1   0.09730 310787.520000
   8858   8861     1   0.09730 310787.520000
   8859   8863     1   0.10969 276646.080000
   8859   8864     1   0.10969 276646.080000
   8865   8866     1   0.09730 310787.520000
   8868   8870     1   0.10969 276646.080000
   8869   8871     1   0.10969 276646.080000
   8872   8876     1   0.10969 276646.080000
   8873   8875     1   0.10969 276646.080000
   8874   8877     1   0.10961 277566.560000
   8879   8885     1   0.09730 310787.520000
   8880   8883     1   0.09730 310787.520000
   8881   8884     1   0.09730 310787.520000
   8882   8886     1   0.10969 276646.080000
   8882   8887     1   0.10969 276646.080000
   8888   8889     1   0.09730 310787.520000
   8891   8893     1   0.10969 276646.080000
   8892   8894     1   0.10969 276646.080000
   8895   8899     1   0.10969 276646.080000
   8896   8898     1   0.10969 276646.080000
   8897   8900     1   0.10961 277566.560000
   8902   8908     1   0.09730 310787.520000
   8903   8906     1   0.09730 310787.520000
   8904   8907     1   0.09730 310787.520000
   8905   8909     1   0.10969 276646.080000
   8905   8910     1   0.10969 276646.080000
   8911   8912     1   0.09730 310787.520000
   8914   8916     1   0.10969 276646.080000
   8915   8917     1   0.10969 276646.080000
   8918   8922     1   0.10969 276646.080000
   8919   8921     1   0.10969 276646.080000
   8920   8923     1   0.10961 277566.560000
   8925   8931     1   0.09730 310787.520000
   8926   8929     1   0.09730 310787.520000
   8927   8930     1   0.09730 310787.520000
   8928   8932     1   0.10969 276646.080000
   8928   8933     1   0.10969 276646.080000
   8934   8935     1   0.09730 310787.520000
   8937   8939     1   0.10969 276646.080000
   8938   8940     1   0.10969 276646.080000
   8941   8945     1   0.10969 276646.080000
   8942   8944     1   0.10969 276646.080000
   8943   8946     1   0.10961 277566.560000
   8948   8954     1   0.09730 310787.520000
   8949   8952     1   0.09730 310787.520000
   8950   8953     1   0.09730 310787.520000
   8951   8955     1   0.10969 276646.080000
   8951   8956     1   0.10969 276646.080000
   8957   8958     1   0.09730 310787.520000
   8960   8962     1   0.10969 276646.080000
   8961   8963     1   0.10969 276646.080000
   8964   8968     1   0.10969 276646.080000
   8965   8967     1   0.10969 276646.080000
   8966   8969     1   0.10961 277566.560000
   8971   8977     1   0.09730 310787.520000
   8972   8975     1   0.09730 310787.520000
   8973   8976     1   0.09730 310787.520000
   8974   8978     1   0.10969 276646.080000
   8974   8979     1   0.10969 276646.080000
   8980   8981     1   0.09730 310787.520000
   8983   8985     1   0.10969 276646.080000
   8984   8986     1   0.10969 276646.080000
   8987   8991     1   0.10969 276646.080000
   8988   8990     1   0.10969 276646.080000
   8989   8992     1   0.10961 277566.560000
   8994   9000     1   0.09730 310787.520000
   8995   8998     1   0.09730 310787.520000
   8996   8999     1   0.09730 310787.520000
   8997   9001     1   0.10969 276646.080000
   8997   9002     1   0.10969 276646.080000
   9003   9004     1   0.09730 310787.520000
   9006   9008     1   0.10969 276646.080000
   9007   9009     1   0.10969 276646.080000
   9010   9014     1   0.10969 276646.080000
   9011   9013     1   0.10969 276646.080000
   9012   9015     1   0.10961 277566.560000
   9017   9023     1   0.09730 310787.520000
   9018   9021     1   0.09730 310787.520000
   9019   9022     1   0.09730 310787.520000
   9020   9024     1   0.10969 276646.080000
   9020   9025     1   0.10969 276646.080000
   9026   9027     1   0.09730 310787.520000
   9029   9031     1   0.10969 276646.080000
   9030   9032     1   0.10969 276646.080000
   9033   9037     1   0.10969 276646.080000
   9034   9036     1   0.10969 276646.080000
   9035   9038     1   0.10961 277566.560000
   9040   9046     1   0.09730 310787.520000
   9041   9044     1   0.09730 310787.520000
   9042   9045     1   0.09730 310787.520000
   9043   9047     1   0.10969 276646.080000
   9043   9048     1   0.10969 276646.080000
   9049   9050     1   0.09730 310787.520000
   9052   9054     1   0.10969 276646.080000
   9053   9055     1   0.10969 276646.080000
   9056   9060     1   0.10969 276646.080000
   9057   9059     1   0.10969 276646.080000
   9058   9061     1   0.10961 277566.560000
   9063   9069     1   0.09730 310787.520000
   9064   9067     1   0.09730 310787.520000
   9065   9068     1   0.09730 310787.520000
   9066   9070     1   0.10969 276646.080000
   9066   9071     1   0.10969 276646.080000
   9072   9073     1   0.09730 310787.520000
   9075   9077     1   0.10969 276646.080000
   9076   9078     1   0.10969 276646.080000
   9079   9083     1   0.10969 276646.080000
   9080   9082     1   0.10969 276646.080000
   9081   9084     1   0.10961 277566.560000
   9086   9092     1   0.09730 310787.520000
   9087   9090     1   0.09730 310787.520000
   9088   9091     1   0.09730 310787.520000
   9089   9093     1   0.10969 276646.080000
   9089   9094     1   0.10969 276646.080000
   9095   9096     1   0.09730 310787.520000
   9098   9100     1   0.10969 276646.080000
   9099   9101     1   0.10969 276646.080000
   9102   9106     1   0.10969 276646.080000
   9103   9105     1   0.10969 276646.080000
   9104   9107     1   0.10961 277566.560000
   9109   9115     1   0.09730 310787.520000
   9110   9113     1   0.09730 310787.520000
   9111   9114     1   0.09730 310787.520000
   9112   9116     1   0.10969 276646.080000
   9112   9117     1   0.10969 276646.080000
   9118   9119     1   0.09730 310787.520000
   9121   9123     1   0.10969 276646.080000
   9122   9124     1   0.10969 276646.080000
   9125   9129     1   0.10969 276646.080000
   9126   9128     1   0.10969 276646.080000
   9127   9130     1   0.10961 277566.560000
   9132   9138     1   0.09730 310787.520000
   9133   9136     1   0.09730 310787.520000
   9134   9137     1   0.09730 310787.520000
   9135   9139     1   0.10969 276646.080000
   9135   9140     1   0.10969 276646.080000
   9141   9142     1   0.09730 310787.520000
   9144   9146     1   0.10969 276646.080000
   9145   9147     1   0.10969 276646.080000
   9148   9152     1   0.10969 276646.080000
   9149   9151     1   0.10969 276646.080000
   9150   9153     1   0.10961 277566.560000
   9155   9161     1   0.09730 310787.520000
   9156   9159     1   0.09730 310787.520000
   9157   9160     1   0.09730 310787.520000
   9158   9162     1   0.10969 276646.080000
   9158   9163     1   0.10969 276646.080000
   9164   9165     1   0.09730 310787.520000
   9167   9169     1   0.10969 276646.080000
   9168   9170     1   0.10969 276646.080000
   9171   9175     1   0.10969 276646.080000
   9172   9174     1   0.10969 276646.080000
   9173   9176     1   0.10961 277566.560000
   9178   9184     1   0.09730 310787.520000
   9179   9182     1   0.09730 310787.520000
   9180   9183     1   0.09730 310787.520000
   9181   9185     1   0.10969 276646.080000
   9181   9186     1   0.10969 276646.080000
   9187   9188     1   0.09730 310787.520000
   9190   9192     1   0.10969 276646.080000
   9191   9193     1   0.10969 276646.080000
   9194   9198     1   0.10969 276646.080000
   9195   9197     1   0.10969 276646.080000
   9196   9199     1   0.10961 277566.560000
   9201   9207     1   0.09730 310787.520000
   9202   9205     1   0.09730 310787.520000
   9203   9206     1   0.09730 310787.520000
   9204   9208     1   0.10969 276646.080000
   9204   9209     1   0.10969 276646.080000
   9210   9211     1   0.09730 310787.520000
   9213   9215     1   0.10969 276646.080000
   9214   9216     1   0.10969 276646.080000
   9217   9221     1   0.10969 276646.080000
   9218   9220     1   0.10969 276646.080000
   9219   9222     1   0.10961 277566.560000
   9224   9230     1   0.09730 310787.520000
   9225   9228     1   0.09730 310787.520000
   9226   9229     1   0.09730 310787.520000
   9227   9231     1   0.10969 276646.080000
   9227   9232     1   0.10969 276646.080000
   9233   9234     1   0.09730 310787.520000
   9236   9238     1   0.10969 276646.080000
   9237   9239     1   0.10969 276646.080000
   9240   9244     1   0.10969 276646.080000
   9241   9243     1   0.10969 276646.080000
   9242   9245     1   0.10961 277566.560000
   9247   9253     1   0.09730 310787.520000
   9248   9251     1   0.09730 310787.520000
   9249   9252     1   0.09730 310787.520000
   9250   9254     1   0.10969 276646.080000
   9250   9255     1   0.10969 276646.080000
   9256   9257     1   0.09730 310787.520000
   9259   9261     1   0.10969 276646.080000
   9260   9262     1   0.10969 276646.080000
   9263   9267     1   0.10969 276646.080000
   9264   9266     1   0.10969 276646.080000
   9265   9268     1   0.10961 277566.560000
   9270   9276     1   0.09730 310787.520000
   9271   9274     1   0.09730 310787.520000
   9272   9275     1   0.09730 310787.520000
   9273   9277     1   0.10969 276646.080000
   9273   9278     1   0.10969 276646.080000
   9279   9280     1   0.09730 310787.520000
   9282   9284     1   0.10969 276646.080000
   9283   9285     1   0.10969 276646.080000
   9286   9290     1   0.10969 276646.080000
   9287   9289     1   0.10969 276646.080000
   9288   9291     1   0.10961 277566.560000
   9293   9299     1   0.09730 310787.520000
   9294   9297     1   0.09730 310787.520000
   9295   9298     1   0.09730 310787.520000
   9296   9300     1   0.10969 276646.080000
   9296   9301     1   0.10969 276646.080000
   9302   9303     1   0.09730 310787.520000
   9305   9307     1   0.10969 276646.080000
   9306   9308     1   0.10969 276646.080000
   9309   9313     1   0.10969 276646.080000
   9310   9312     1   0.10969 276646.080000
   9311   9314     1   0.10961 277566.560000
   9316   9322     1   0.09730 310787.520000
   9317   9320     1   0.09730 310787.520000
   9318   9321     1   0.09730 310787.520000
   9319   9323     1   0.10969 276646.080000
   9319   9324     1   0.10969 276646.080000
   9325   9326     1   0.09730 310787.520000
   9328   9330     1   0.10969 276646.080000
   9329   9331     1   0.10969 276646.080000
   9332   9336     1   0.10969 276646.080000
   9333   9335     1   0.10969 276646.080000
   9334   9337     1   0.10961 277566.560000
   9339   9345     1   0.09730 310787.520000
   9340   9343     1   0.09730 310787.520000
   9341   9344     1   0.09730 310787.520000
   9342   9346     1   0.10969 276646.080000
   9342   9347     1   0.10969 276646.080000
   9348   9349     1   0.09730 310787.520000
   9351   9353     1   0.10969 276646.080000
   9352   9354     1   0.10969 276646.080000
   9355   9359     1   0.10969 276646.080000
   9356   9358     1   0.10969 276646.080000
   9357   9360     1   0.10961 277566.560000
   9362   9368     1   0.09730 310787.520000
   9363   9366     1   0.09730 310787.520000
   9364   9367     1   0.09730 310787.520000
   9365   9369     1   0.10969 276646.080000
   9365   9370     1   0.10969 276646.080000
   9371   9372     1   0.09730 310787.520000
   9374   9376     1   0.10969 276646.080000
   9375   9377     1   0.10969 276646.080000
   9378   9382     1   0.10969 276646.080000
   9379   9381     1   0.10969 276646.080000
   9380   9383     1   0.10961 277566.560000
   9385   9391     1   0.09730 310787.520000
   9386   9389     1   0.09730 310787.520000
   9387   9390     1   0.09730 310787.520000
   9388   9392     1   0.10969 276646.080000
   9388   9393     1   0.10969 276646.080000
   9394   9395     1   0.09730 310787.520000
   9397   9399     1   0.10969 276646.080000
   9398   9400     1   0.10969 276646.080000
   9401   9405     1   0.10969 276646.080000
   9402   9404     1   0.10969 276646.080000
   9403   9406     1   0.10961 277566.560000
   9408   9414     1   0.09730 310787.520000
   9409   9412     1   0.09730 310787.520000
   9410   9413     1   0.09730 310787.520000
   9411   9415     1   0.10969 276646.080000
   9411   9416     1   0.10969 276646.080000
   9417   9418     1   0.09730 310787.520000
   9420   9422     1   0.10969 276646.080000
   9421   9423     1   0.10969 276646.080000
   9424   9428     1   0.10969 276646.080000
   9425   9427     1   0.10969 276646.080000
   9426   9429     1   0.10961 277566.560000
   9431   9437     1   0.09730 310787.520000
   9432   9435     1   0.09730 310787.520000
   9433   9436     1   0.09730 310787.520000
   9434   9438     1   0.10969 276646.080000
   9434   9439     1   0.10969 276646.080000
   9440   9441     1   0.09730 310787.520000
   9443   9445     1   0.10969 276646.080000
   9444   9446     1   0.10969 276646.080000
   9447   9451     1   0.10969 276646.080000
   9448   9450     1   0.10969 276646.080000
   9449   9452     1   0.10961 277566.560000
   9454   9460     1   0.09730 310787.520000
   9455   9458     1   0.09730 310787.520000
   9456   9459     1   0.09730 310787.520000
   9457   9461     1   0.10969 276646.080000
   9457   9462     1   0.10969 276646.080000
   9463   9464     1   0.09730 310787.520000
   9466   9468     1   0.10969 276646.080000
   9467   9469     1   0.10969 276646.080000
   9470   9474     1   0.10969 276646.080000
   9471   9473     1   0.10969 276646.080000
   9472   9475     1   0.10961 277566.560000
   9477   9483     1   0.09730 310787.520000
   9478   9481     1   0.09730 310787.520000
   9479   9482     1   0.09730 310787.520000
   9480   9484     1   0.10969 276646.080000
   9480   9485     1   0.10969 276646.080000
   9486   9487     1   0.09730 310787.520000
   9489   9491     1   0.10969 276646.080000
   9490   9492     1   0.10969 276646.080000
   9493   9497     1   0.10969 276646.080000
   9494   9496     1   0.10969 276646.080000
   9495   9498     1   0.10961 277566.560000
   9500   9506     1   0.09730 310787.520000
   9501   9504     1   0.09730 310787.520000
   9502   9505     1   0.09730 310787.520000
   9503   9507     1   0.10969 276646.080000
   9503   9508     1   0.10969 276646.080000
   9509   9510     1   0.09730 310787.520000
   9512   9514     1   0.10969 276646.080000
   9513   9515     1   0.10969 276646.080000
   9516   9520     1   0.10969 276646.080000
   9517   9519     1   0.10969 276646.080000
   9518   9521     1   0.10961 277566.560000
   9523   9529     1   0.09730 310787.520000
   9524   9527     1   0.09730 310787.520000
   9525   9528     1   0.09730 310787.520000
   9526   9530     1   0.10969 276646.080000
   9526   9531     1   0.10969 276646.080000
   9532   9533     1   0.09730 310787.520000
   9535   9537     1   0.10969 276646.080000
   9536   9538     1   0.10969 276646.080000
   9539   9543     1   0.10969 276646.080000
   9540   9542     1   0.10969 276646.080000
   9541   9544     1   0.10961 277566.560000
   9546   9552     1   0.09730 310787.520000
   9547   9550     1   0.09730 310787.520000
   9548   9551     1   0.09730 310787.520000
   9549   9553     1   0.10969 276646.080000
   9549   9554     1   0.10969 276646.080000
   9555   9556     1   0.09730 310787.520000
   9558   9560     1   0.10969 276646.080000
   9559   9561     1   0.10969 276646.080000
   9562   9566     1   0.10969 276646.080000
   9563   9565     1   0.10969 276646.080000
   9564   9567     1   0.10961 277566.560000
   9569   9575     1   0.09730 310787.520000
   9570   9573     1   0.09730 310787.520000
   9571   9574     1   0.09730 310787.520000
   9572   9576     1   0.10969 276646.080000
   9572   9577     1   0.10969 276646.080000
   9578   9579     1   0.09730 310787.520000
   9581   9583     1   0.10969 276646.080000
   9582   9584     1   0.10969 276646.080000
   9585   9589     1   0.10969 276646.080000
   9586   9588     1   0.10969 276646.080000
   9587   9590     1   0.10961 277566.560000
   9592   9598     1   0.09730 310787.520000
   9593   9596     1   0.09730 310787.520000
   9594   9597     1   0.09730 310787.520000
   9595   9599     1   0.10969 276646.080000
   9595   9600     1   0.10969 276646.080000
   9601   9602     1   0.09730 310787.520000
   9604   9606     1   0.10969 276646.080000
   9605   9607     1   0.10969 276646.080000
   9608   9612     1   0.10969 276646.080000
   9609   9611     1   0.10969 276646.080000
   9610   9613     1   0.10961 277566.560000
   9615   9621     1   0.09730 310787.520000
   9616   9619     1   0.09730 310787.520000
   9617   9620     1   0.09730 310787.520000
   9618   9622     1   0.10969 276646.080000
   9618   9623     1   0.10969 276646.080000
   9624   9625     1   0.09730 310787.520000
   9627   9629     1   0.10969 276646.080000
   9628   9630     1   0.10969 276646.080000
   9631   9635     1   0.10969 276646.080000
   9632   9634     1   0.10969 276646.080000
   9633   9636     1   0.10961 277566.560000
   9638   9644     1   0.09730 310787.520000
   9639   9642     1   0.09730 310787.520000
   9640   9643     1   0.09730 310787.520000
   9641   9645     1   0.10969 276646.080000
   9641   9646     1   0.10969 276646.080000
   9647   9648     1   0.09730 310787.520000
   9650   9652     1   0.10969 276646.080000
   9651   9653     1   0.10969 276646.080000
   9654   9658     1   0.10969 276646.080000
   9655   9657     1   0.10969 276646.080000
   9656   9659     1   0.10961 277566.560000
   9661   9667     1   0.09730 310787.520000
   9662   9665     1   0.09730 310787.520000
   9663   9666     1   0.09730 310787.520000
   9664   9668     1   0.10969 276646.080000
   9664   9669     1   0.10969 276646.080000
   9670   9671     1   0.09730 310787.520000
   9673   9675     1   0.10969 276646.080000
   9674   9676     1   0.10969 276646.080000
   9677   9681     1   0.10969 276646.080000
   9678   9680     1   0.10969 276646.080000
   9679   9682     1   0.10961 277566.560000
   9684   9690     1   0.09730 310787.520000
   9685   9688     1   0.09730 310787.520000
   9686   9689     1   0.09730 310787.520000
   9687   9691     1   0.10969 276646.080000
   9687   9692     1   0.10969 276646.080000
   9693   9694     1   0.09730 310787.520000
   9696   9698     1   0.10969 276646.080000
   9697   9699     1   0.10969 276646.080000
   9700   9704     1   0.10969 276646.080000
   9701   9703     1   0.10969 276646.080000
   9702   9705     1   0.10961 277566.560000
   9707   9713     1   0.09730 310787.520000
   9708   9711     1   0.09730 310787.520000
   9709   9712     1   0.09730 310787.520000
   9710   9714     1   0.10969 276646.080000
   9710   9715     1   0.10969 276646.080000
   9716   9717     1   0.09730 310787.520000
   9719   9721     1   0.10969 276646.080000
   9720   9722     1   0.10969 276646.080000
   9723   9727     1   0.10969 276646.080000
   9724   9726     1   0.10969 276646.080000
   9725   9728     1   0.10961 277566.560000
   9730   9736     1   0.09730 310787.520000
   9731   9734     1   0.09730 310787.520000
   9732   9735     1   0.09730 310787.520000
   9733   9737     1   0.10969 276646.080000
   9733   9738     1   0.10969 276646.080000
   9739   9740     1   0.09730 310787.520000
   9742   9744     1   0.10969 276646.080000
   9743   9745     1   0.10969 276646.080000
   9746   9750     1   0.10969 276646.080000
   9747   9749     1   0.10969 276646.080000
   9748   9751     1   0.10961 277566.560000
   9753   9759     1   0.09730 310787.520000
   9754   9757     1   0.09730 310787.520000
   9755   9758     1   0.09730 310787.520000
   9756   9760     1   0.10969 276646.080000
   9756   9761     1   0.10969 276646.080000
   9762   9763     1   0.09730 310787.520000
   9765   9767     1   0.10969 276646.080000
   9766   9768     1   0.10969 276646.080000
   9769   9773     1   0.10969 276646.080000
   9770   9772     1   0.10969 276646.080000
   9771   9774     1   0.10961 277566.560000
   9776   9782     1   0.09730 310787.520000
   9777   9780     1   0.09730 310787.520000
   9778   9781     1   0.09730 310787.520000
   9779   9783     1   0.10969 276646.080000
   9779   9784     1   0.10969 276646.080000
   9785   9786     1   0.09730 310787.520000
   9788   9790     1   0.10969 276646.080000
   9789   9791     1   0.10969 276646.080000
   9792   9796     1   0.10969 276646.080000
   9793   9795     1   0.10969 276646.080000
   9794   9797     1   0.10961 277566.560000
   9799   9805     1   0.09730 310787.520000
   9800   9803     1   0.09730 310787.520000
   9801   9804     1   0.09730 310787.520000
   9802   9806     1   0.10969 276646.080000
   9802   9807     1   0.10969 276646.080000
   9808   9809     1   0.09730 310787.520000
   9811   9813     1   0.10969 276646.080000
   9812   9814     1   0.10969 276646.080000
   9815   9819     1   0.10969 276646.080000
   9816   9818     1   0.10969 276646.080000
   9817   9820     1   0.10961 277566.560000
   9822   9828     1   0.09730 310787.520000
   9823   9826     1   0.09730 310787.520000
   9824   9827     1   0.09730 310787.520000
   9825   9829     1   0.10969 276646.080000
   9825   9830     1   0.10969 276646.080000
   9831   9832     1   0.09730 310787.520000
   9834   9836     1   0.10969 276646.080000
   9835   9837     1   0.10969 276646.080000
   9838   9842     1   0.10969 276646.080000
   9839   9841     1   0.10969 276646.080000
   9840   9843     1   0.10961 277566.560000
   9845   9851     1   0.09730 310787.520000
   9846   9849     1   0.09730 310787.520000
   9847   9850     1   0.09730 310787.520000
   9848   9852     1   0.10969 276646.080000
   9848   9853     1   0.10969 276646.080000
   9854   9855     1   0.09730 310787.520000
   9857   9859     1   0.10969 276646.080000
   9858   9860     1   0.10969 276646.080000
   9861   9865     1   0.10969 276646.080000
   9862   9864     1   0.10969 276646.080000
   9863   9866     1   0.10961 277566.560000
   9868   9874     1   0.09730 310787.520000
   9869   9872     1   0.09730 310787.520000
   9870   9873     1   0.09730 310787.520000
   9871   9875     1   0.10969 276646.080000
   9871   9876     1   0.10969 276646.080000
   9877   9878     1   0.09730 310787.520000
   9880   9882     1   0.10969 276646.080000
   9881   9883     1   0.10969 276646.080000
   9884   9888     1   0.10969 276646.080000
   9885   9887     1   0.10969 276646.080000
   9886   9889     1   0.10961 277566.560000
   9891   9897     1   0.09730 310787.520000
   9892   9895     1   0.09730 310787.520000
   9893   9896     1   0.09730 310787.520000
   9894   9898     1   0.10969 276646.080000
   9894   9899     1   0.10969 276646.080000
   9900   9901     1   0.09730 310787.520000
   9903   9905     1   0.10969 276646.080000
   9904   9906     1   0.10969 276646.080000
   9907   9911     1   0.10969 276646.080000
   9908   9910     1   0.10969 276646.080000
   9909   9912     1   0.10961 277566.560000
   9914   9920     1   0.09730 310787.520000
   9915   9918     1   0.09730 310787.520000
   9916   9919     1   0.09730 310787.520000
   9917   9921     1   0.10969 276646.080000
   9917   9922     1   0.10969 276646.080000
   9923   9924     1   0.09730 310787.520000

[ pairs ]
;    ai     aj funct         c0         c1         c2         c3
      1     26     1
      1     20     1
      1     23     1
      2     17     1
      2     11     1
      2    115     1
      5     14     1
      5     11     1
      5     57     1
      8     14     1
      8     17     1
      8     86     1
     11     77     1
     14    106     1
     17     48     1
     20     39     1
     23     68     1
     26     97     1
     29     54     1
     29     51     1
     29     48     1
     30     45     1
     30     39     1
     30    173     1
     33     42     1
     33     39     1
     33    144     1
     36     42     1
     36     45     1
     36     57     1
     42    164     1
     45    135     1
     51    126     1
     54    155     1
     58     83     1
     58     80     1
     58     77     1
     59     74     1
     59     68     1
     59    231     1
     62     71     1
     62     68     1
     62    202     1
     65     71     1
     65     74     1
     65     86     1
     71    222     1
     74    193     1
     80    184     1
     83    213     1
     87    112     1
     87    109     1
     87    106     1
     88    103     1
     88     97     1
     88    289     1
     91    100     1
     91     97     1
     91    260     1
     94    100     1
     94    103     1
     94    115     1
    100    280     1
    103    251     1
    109    242     1
    112    271     1
    116    141     1
    116    138     1
    116    135     1
    117    132     1
    117    126     1
    117    347     1
    120    129     1
    120    126     1
    120    318     1
    123    129     1
    123    132     1
    123    144     1
    129    338     1
    132    309     1
    138    300     1
    141    329     1
    145    170     1
    145    167     1
    145    164     1
    146    161     1
    146    155     1
    146    405     1
    149    158     1
    149    155     1
    149    376     1
    152    158     1
    152    161     1
    152    173     1
    158    396     1
    161    367     1
    167    358     1
    170    387     1
    174    199     1
    174    196     1
    174    193     1
    175    190     1
    175    184     1
    175    463     1
    178    187     1
    178    184     1
    178    434     1
    181    187     1
    181    190     1
    181    202     1
    187    454     1
    190    425     1
    196    416     1
    199    445     1
    203    228     1
    203    225     1
    203    222     1
    204    219     1
    204    213     1
    204    521     1
    207    216     1
    207    213     1
    207    492     1
    210    216     1
    210    219     1
    210    231     1
    216    512     1
    219    483     1
    225    474     1
    228    503     1
    232    257     1
    232    254     1
    232    251     1
    233    248     1
    233    242     1
    233    579     1
    236    245     1
    236    242     1
    236    550     1
    239    245     1
    239    248     1
    239    260     1
    245    570     1
    248    541     1
    254    532     1
    257    561     1
    261    286     1
    261    283     1
    261    280     1
    262    277     1
    262    271     1
    262    637     1
    265    274     1
    265    271     1
    265    608     1
    268    274     1
    268    277     1
    268    289     1
    274    628     1
    277    599     1
    283    590     1
    286    619     1
    290    315     1
    290    312     1
    290    309     1
    291    306     1
    291    300     1
    291    695     1
    294    303     1
    294    300     1
    294    666     1
    297    303     1
    297    306     1
    297    318     1
    303    686     1
    306    657     1
    312    648     1
    315    677     1
    319    344     1
    319    341     1
    319    338     1
    320    335     1
    320    329     1
    320    753     1
    323    332     1
    323    329     1
    323    724     1
    326    332     1
    326    335     1
    326    347     1
    332    744     1
    335    715     1
    341    706     1
    344    735     1
    348    373     1
    348    370     1
    348    367     1
    349    364     1
    349    358     1
    349    811     1
    352    361     1
    352    358     1
    352    782     1
    355    361     1
    355    364     1
    355    376     1
    361    802     1
    364    773     1
    370    764     1
    373    793     1
    377    402     1
    377    399     1
    377    396     1
    378    393     1
    378    387     1
    378    869     1
    381    390     1
    381    387     1
    381    840     1
    384    390     1
    384    393     1
    384    405     1
    390    860     1
    393    831     1
    399    822     1
    402    851     1
    406    431     1
    406    428     1
    406    425     1
    407    422     1
    407    416     1
    407    927     1
    410    419     1
    410    416     1
    410    898     1
    413    419     1
    413    422     1
    413    434     1
    419    918     1
    422    889     1
    428    880     1
    431    909     1
    435    460     1
    435    457     1
    435    454     1
    436    451     1
    436    445     1
    436    985     1
    439    448     1
    439    445     1
    439    956     1
    442    448     1
    442    451     1
    442    463     1
    448    976     1
    451    947     1
    457    938     1
    460    967     1
    464    489     1
    464    486     1
    464    483     1
    465    480     1
    465    474     1
    465   1043     1
    468    477     1
    468    474     1
    468   1014     1
    471    477     1
    471    480     1
    471    492     1
    477   1034     1
    480   1005     1
    486    996     1
    489   1025     1
    493    518     1
    493    515     1
    493    512     1
    494    509     1
    494    503     1
    494   1101     1
    497    506     1
    497    503     1
    497   1072     1
    500    506     1
    500    509     1
    500    521     1
    506   1092     1
    509   1063     1
    515   1054     1
    518   1083     1
    522    547     1
    522    544     1
    522    541     1
    523    538     1
    523    532     1
    523   1159     1
    526    535     1
    526    532     1
    526   1130     1
    529    535     1
    529    538     1
    529    550     1
    535   1150     1
    538   1121     1
    544   1112     1
    547   1141     1
    551    576     1
    551    573     1
    551    570     1
    552    567     1
    552    561     1
    552   1217     1
    555    564     1
    555    561     1
    555   1188     1
    558    564     1
    558    567     1
    558    579     1
    564   1208     1
    567   1179     1
    573   1170     1
    576   1199     1
    580    605     1
    580    602     1
    580    599     1
    581    596     1
    581    590     1
    581   1275     1
    584    593     1
    584    590     1
    584   1246     1
    587    593     1
    587    596     1
    587    608     1
    593   1266     1
    596   1237     1
    602   1228     1
    605   1257     1
    609    634     1
    609    631     1
    609    628     1
    610    625     1
    610    619     1
    610   1333     1
    613    622     1
    613    619     1
    613   1304     1
    616    622     1
    616    625     1
    616    637     1
    622   1324     1
    625   1295     1
    631   1286     1
    634   1315     1
    638    663     1
    638    660     1
    638    657     1
    639    654     1
    639    648     1
    639   1391     1
    642    651     1
    642    648     1
    642   1362     1
    645    651     1
    645    654     1
    645    666     1
    651   1382     1
    654   1353     1
    660   1344     1
    663   1373     1
    667    692     1
    667    689     1
    667    686     1
    668    683     1
    668    677     1
    668   1449     1
    671    680     1
    671    677     1
    671   1420     1
    674    680     1
    674    683     1
    674    695     1
    680   1440     1
    683   1411     1
    689   1402     1
    692   1431     1
    696    721     1
    696    718     1
    696    715     1
    697    712     1
    697    706     1
    697   1507     1
    700    709     1
    700    706     1
    700   1478     1
    703    709     1
    703    712     1
    703    724     1
    709   1498     1
    712   1469     1
    718   1460     1
    721   1489     1
    725    750     1
    725    747     1
    725    744     1
    726    741     1
    726    735     1
    726   1565     1
    729    738     1
    729    735     1
    729   1536     1
    732    738     1
    732    741     1
    732    753     1
    738   1556     1
    741   1527     1
    747   1518     1
    750   1547     1
    754    779     1
    754    776     1
    754    773     1
    755    770     1
    755    764     1
    755   1623     1
    758    767     1
    758    764     1
    758   1594     1
    761    767     1
    761    770     1
    761    782     1
    767   1614     1
    770   1585     1
    776   1576     1
    779   1605     1
    783    808     1
    783    805     1
    783    802     1
    784    799     1
    784    793     1
    784   1681     1
    787    796     1
    787    793     1
    787   1652     1
    790    796     1
    790    799     1
    790    811     1
    796   1672     1
    799   1643     1
    805   1634     1
    808   1663     1
    812    837     1
    812    834     1
    812    831     1
    813    828     1
    813    822     1
    813   1739     1
    816    825     1
    816    822     1
    816   1710     1
    819    825     1
    819    828     1
    819    840     1
    825   1730     1
    828   1701     1
    834   1692     1
    837   1721     1
    841    866     1
    841    863     1
    841    860     1
    842    857     1
    842    851     1
    842   1797     1
    845    854     1
    845    851     1
    845   1768     1
    848    854     1
    848    857     1
    848    869     1
    854   1788     1
    857   1759     1
    863   1750     1
    866   1779     1
    870    895     1
    870    892     1
    870    889     1
    871    886     1
    871    880     1
    871   1855     1
    874    883     1
    874    880     1
    874   1826     1
    877    883     1
    877    886     1
    877    898     1
    883   1846     1
    886   1817     1
    892   1808     1
    895   1837     1
    899    924     1
    899    921     1
    899    918     1
    900    915     1
    900    909     1
    900   1913     1
    903    912     1
    903    909     1
    903   1884     1
    906    912     1
    906    915     1
    906    927     1
    912   1904     1
    915   1875     1
    921   1866     1
    924   1895     1
    928    953     1
    928    950     1
    928    947     1
    929    944     1
    929    938     1
    929   1971     1
    932    941     1
    932    938     1
    932   1942     1
    935    941     1
    935    944     1
    935    956     1
    941   1962     1
    944   1933     1
    950   1924     1
    953   1953     1
    957    982     1
    957    979     1
    957    976     1
    958    973     1
    958    967     1
    958   2029     1
    961    970     1
    961    967     1
    961   2000     1
    964    970     1
    964    973     1
    964    985     1
    970   2020     1
    973   1991     1
    979   1982     1
    982   2011     1
    986   1011     1
    986   1008     1
    986   1005     1
    987   1002     1
    987    996     1
    987   2087     1
    990    999     1
    990    996     1
    990   2058     1
    993    999     1
    993   1002     1
    993   1014     1
    999   2078     1
   1002   2049     1
   1008   2040     1
   1011   2069     1
   1015   1040     1
   1015   1037     1
   1015   1034     1
   1016   1031     1
   1016   1025     1
   1016   2145     1
   1019   1028     1
   1019   1025     1
   1019   2116     1
   1022   1028     1
   1022   1031     1
   1022   1043     1
   1028   2136     1
   1031   2107     1
   1037   2098     1
   1040   2127     1
   1044   1069     1
   1044   1066     1
   1044   1063     1
   1045   1060     1
   1045   1054     1
   1045   2203     1
   1048   1057     1
   1048   1054     1
   1048   2174     1
   1051   1057     1
   1051   1060     1
   1051   1072     1
   1057   2194     1
   1060   2165     1
   1066   2156     1
   1069   2185     1
   1073   1098     1
   1073   1095     1
   1073   1092     1
   1074   1089     1
   1074   1083     1
   1074   2261     1
   1077   1086     1
   1077   1083     1
   1077   2232     1
   1080   1086     1
   1080   1089     1
   1080   1101     1
   1086   2252     1
   1089   2223     1
   1095   2214     1
   1098   2243     1
   1102   1127     1
   1102   1124     1
   1102   1121     1
   1103   1118     1
   1103   1112     1
   1103   2319     1
   1106   1115     1
   1106   1112     1
   1106   2290     1
   1109   1115     1
   1109   1118     1
   1109   1130     1
   1115   2310     1
   1118   2281     1
   1124   2272     1
   1127   2301     1
   1131   1156     1
   1131   1153     1
   1131   1150     1
   1132   1147     1
   1132   1141     1
   1132   2377     1
   1135   1144     1
   1135   1141     1
   1135   2348     1
   1138   1144     1
   1138   1147     1
   1138   1159     1
   1144   2368     1
   1147   2339     1
   1153   2330     1
   1156   2359     1
   1160   1185     1
   1160   1182     1
   1160   1179     1
   1161   1176     1
   1161   1170     1
   1161   2435     1
   1164   1173     1
   1164   1170     1
   1164   2406     1
   1167   1173     1
   1167   1176     1
   1167   1188     1
   1173   2426     1
   1176   2397     1
   1182   2388     1
   1185   2417     1
   1189   1214     1
   1189   1211     1
   1189   1208     1
   1190   1205     1
   1190   1199     1
   1190   2493     1
   1193   1202     1
   1193   1199     1
   1193   2464     1
   1196   1202     1
   1196   1205     1
   1196   1217     1
   1202   2484     1
   1205   2455     1
   1211   2446     1
   1214   2475     1
   1218   1243     1
   1218   1240     1
   1218   1237     1
   1219   1234     1
   1219   1228     1
   1219   2551     1
   1222   1231     1
   1222   1228     1
   1222   2522     1
   1225   1231     1
   1225   1234     1
   1225   1246     1
   1231   2542     1
   1234   2513     1
   1240   2504     1
   1243   2533     1
   1247   1272     1
   1247   1269     1
   1247   1266     1
   1248   1263     1
   1248   1257     1
   1248   2609     1
   1251   1260     1
   1251   1257     1
   1251   2580     1
   1254   1260     1
   1254   1263     1
   1254   1275     1
   1260   2600     1
   1263   2571     1
   1269   2562     1
   1272   2591     1
   1276   1301     1
   1276   1298     1
   1276   1295     1
   1277   1292     1
   1277   1286     1
   1277   2667     1
   1280   1289     1
   1280   1286     1
   1280   2638     1
   1283   1289     1
   1283   1292     1
   1283   1304     1
   1289   2658     1
   1292   2629     1
   1298   2620     1
   1301   2649     1
   1305   1330     1
   1305   1327     1
   1305   1324     1
   1306   1321     1
   1306   1315     1
   1306   2725     1
   1309   1318     1
   1309   1315     1
   1309   2696     1
   1312   1318     1
   1312   1321     1
   1312   1333     1
   1318   2716     1
   1321   2687     1
   1327   2678     1
   1330   2707     1
   1334   1359     1
   1334   1356     1
   1334   1353     1
   1335   1350     1
   1335   1344     1
   1335   2783     1
   1338   1347     1
   1338   1344     1
   1338   2754     1
   1341   1347     1
   1341   1350     1
   1341   1362     1
   1347   2774     1
   1350   2745     1
   1356   2736     1
   1359   2765     1
   1363   1388     1
   1363   1385     1
   1363   1382     1
   1364   1379     1
   1364   1373     1
   1364   2841     1
   1367   1376     1
   1367   1373     1
   1367   2812     1
   1370   1376     1
   1370   1379     1
   1370   1391     1
   1376   2832     1
   1379   2803     1
   1385   2794     1
   1388   2823     1
   1392   1417     1
   1392   1414     1
   1392   1411     1
   1393   1408     1
   1393   1402     1
   1393   2899     1
   1396   1405     1
   1396   1402     1
   1396   2870     1
   1399   1405     1
   1399   1408     1
   1399   1420     1
   1405   2890     1
   1408   2861     1
   1414   2852     1
   1417   2881     1
   1421   1446     1
   1421   1443     1
   1421   1440     1
   1422   1437     1
   1422   1431     1
   1422   2957     1
   1425   1434     1
   1425   1431     1
   1425   2928     1
   1428   1434     1
   1428   1437     1
   1428   1449     1
   1434   2948     1
   1437   2919     1
   1443   2910     1
   1446   2939     1
   1450   1475     1
   1450   1472     1
   1450   1469     1
   1451   1466     1
   1451   1460     1
   1451   3015     1
   1454   1463     1
   1454   1460     1
   1454   2986     1
   1457   1463     1
   1457   1466     1
   1457   1478     1
   1463   3006     1
   1466   2977     1
   1472   2968     1
   1475   2997     1
   1479   1504     1
   1479   1501     1
   1479   1498     1
   1480   1495     1
   1480   1489     1
   1480   3073     1
   1483   1492     1
   1483   1489     1
   1483   3044     1
   1486   1492     1
   1486   1495     1
   1486   1507     1
   1492   3064     1
   1495   3035     1
   1501   3026     1
   1504   3055     1
   1508   1533     1
   1508   1530     1
   1508   1527     1
   1509   1524     1
   1509   1518     1
   1509   3131     1
   1512   1521     1
   1512   1518     1
   1512   3102     1
   1515   1521     1
   1515   1524     1
   1515   1536     1
   1521   3122     1
   1524   3093     1
   1530   3084     1
   1533   3113     1
   1537   1562     1
   1537   1559     1
   1537   1556     1
   1538   1553     1
   1538   1547     1
   1538   3189     1
   1541   1550     1
   1541   1547     1
   1541   3160     1
   1544   1550     1
   1544   1553     1
   1544   1565     1
   1550   3180     1
   1553   3151     1
   1559   3142     1
   1562   3171     1
   1566   1591     1
   1566   1588     1
   1566   1585     1
   1567   1582     1
   1567   1576     1
   1567   3247     1
   1570   1579     1
   1570   1576     1
   1570   3218     1
   1573   1579     1
   1573   1582     1
   1573   1594     1
   1579   3238     1
   1582   3209     1
   1588   3200     1
   1591   3229     1
   1595   1620     1
   1595   1617     1
   1595   1614     1
   1596   1611     1
   1596   1605     1
   1596   3305     1
   1599   1608     1
   1599   1605     1
   1599   3276     1
   1602   1608     1
   1602   1611     1
   1602   1623     1
   1608   3296     1
   1611   3267     1
   1617   3258     1
   1620   3287     1
   1624   1649     1
   1624   1646     1
   1624   1643     1
   1625   1640     1
   1625   1634     1
   1625   3363     1
   1628   1637     1
   1628   1634     1
   1628   3334     1
   1631   1637     1
   1631   1640     1
   1631   1652     1
   1637   3354     1
   1640   3325     1
   1646   3316     1
   1649   3345     1
   1653   1678     1
   1653   1675     1
   1653   1672     1
   1654   1669     1
   1654   1663     1
   1654   3421     1
   1657   1666     1
   1657   1663     1
   1657   3392     1
   1660   1666     1
   1660   1669     1
   1660   1681     1
   1666   3412     1
   1669   3383     1
   1675   3374     1
   1678   3403     1
   1682   1707     1
   1682   1704     1
   1682   1701     1
   1683   1698     1
   1683   1692     1
   1683   3479     1
   1686   1695     1
   1686   1692     1
   1686   3450     1
   1689   1695     1
   1689   1698     1
   1689   1710     1
   1695   3470     1
   1698   3441     1
   1704   3432     1
   1707   3461     1
   1711   1736     1
   1711   1733     1
   1711   1730     1
   1712   1727     1
   1712   1721     1
   1712   3537     1
   1715   1724     1
   1715   1721     1
   1715   3508     1
   1718   1724     1
   1718   1727     1
   1718   1739     1
   1724   3528     1
   1727   3499     1
   1733   3490     1
   1736   3519     1
   1740   1765     1
   1740   1762     1
   1740   1759     1
   1741   1756     1
   1741   1750     1
   1741   3595     1
   1744   1753     1
   1744   1750     1
   1744   3566     1
   1747   1753     1
   1747   1756     1
   1747   1768     1
   1753   3586     1
   1756   3557     1
   1762   3548     1
   1765   3577     1
   1769   1794     1
   1769   1791     1
   1769   1788     1
   1770   1785     1
   1770   1779     1
   1770   3653     1
   1773   1782     1
   1773   1779     1
   1773   3624     1
   1776   1782     1
   1776   1785     1
   1776   1797     1
   1782   3644     1
   1785   3615     1
   1791   3606     1
   1794   3635     1
   1798   1823     1
   1798   1820     1
   1798   1817     1
   1799   1814     1
   1799   1808     1
   1799   3711     1
   1802   1811     1
   1802   1808     1
   1802   3682     1
   1805   1811     1
   1805   1814     1
   1805   1826     1
   1811   3702     1
   1814   3673     1
   1820   3664     1
   1823   3693     1
   1827   1852     1
   1827   1849     1
   1827   1846     1
   1828   1843     1
   1828   1837     1
   1828   3769     1
   1831   1840     1
   1831   1837     1
   1831   3740     1
   1834   1840     1
   1834   1843     1
   1834   1855     1
   1840   3760     1
   1843   3731     1
   1849   3722     1
   1852   3751     1
   1856   1881     1
   1856   1878     1
   1856   1875     1
   1857   1872     1
   1857   1866     1
   1857   3827     1
   1860   1869     1
   1860   1866     1
   1860   3798     1
   1863   1869     1
   1863   1872     1
   1863   1884     1
   1869   3818     1
   1872   3789     1
   1878   3780     1
   1881   3809     1
   1885   1910     1
   1885   1907     1
   1885   1904     1
   1886   1901     1
   1886   1895     1
   1886   3885     1
   1889   1898     1
   1889   1895     1
   1889   3856     1
   1892   1898     1
   1892   1901     1
   1892   1913     1
   1898   3876     1
   1901   3847     1
   1907   3838     1
   1910   3867     1
   1914   1939     1
   1914   1936     1
   1914   1933     1
   1915   1930     1
   1915   1924     1
   1915   3943     1
   1918   1927     1
   1918   1924     1
   1918   3914     1
   1921   1927     1
   1921   1930     1
   1921   1942     1
   1927   3934     1
   1930   3905     1
   1936   3896     1
   1939   3925     1
   1943   1968     1
   1943   1965     1
   1943   1962     1
   1944   1959     1
   1944   1953     1
   1944   4001     1
   1947   1956     1
   1947   1953     1
   1947   3972     1
   1950   1956     1
   1950   1959     1
   1950   1971     1
   1956   3992     1
   1959   3963     1
   1965   3954     1
   1968   3983     1
   1972   1997     1
   1972   1994     1
   1972   1991     1
   1973   1988     1
   1973   1982     1
   1973   4059     1
   1976   1985     1
   1976   1982     1
   1976   4030     1
   1979   1985     1
   1979   1988     1
   1979   2000     1
   1985   4050     1
   1988   4021     1
   1994   4012     1
   1997   4041     1
   2001   2026     1
   2001   2023     1
   2001   2020     1
   2002   2017     1
   2002   2011     1
   2002   4117     1
   2005   2014     1
   2005   2011     1
   2005   4088     1
   2008   2014     1
   2008   2017     1
   2008   2029     1
   2014   4108     1
   2017   4079     1
   2023   4070     1
   2026   4099     1
   2030   2055     1
   2030   2052     1
   2030   2049     1
   2031   2046     1
   2031   2040     1
   2031   4175     1
   2034   2043     1
   2034   2040     1
   2034   4146     1
   2037   2043     1
   2037   2046     1
   2037   2058     1
   2043   4166     1
   2046   4137     1
   2052   4128     1
   2055   4157     1
   2059   2084     1
   2059   2081     1
   2059   2078     1
   2060   2075     1
   2060   2069     1
   2060   4233     1
   2063   2072     1
   2063   2069     1
   2063   4204     1
   2066   2072     1
   2066   2075     1
   2066   2087     1
   2072   4224     1
   2075   4195     1
   2081   4186     1
   2084   4215     1
   2088   2113     1
   2088   2110     1
   2088   2107     1
   2089   2104     1
   2089   2098     1
   2089   4291     1
   2092   2101     1
   2092   2098     1
   2092   4262     1
   2095   2101     1
   2095   2104     1
   2095   2116     1
   2101   4282     1
   2104   4253     1
   2110   4244     1
   2113   4273     1
   2117   2142     1
   2117   2139     1
   2117   2136     1
   2118   2133     1
   2118   2127     1
   2118   4349     1
   2121   2130     1
   2121   2127     1
   2121   4320     1
   2124   2130     1
   2124   2133     1
   2124   2145     1
   2130   4340     1
   2133   4311     1
   2139   4302     1
   2142   4331     1
   2146   2171     1
   2146   2168     1
   2146   2165     1
   2147   2162     1
   2147   2156     1
   2147   4407     1
   2150   2159     1
   2150   2156     1
   2150   4378     1
   2153   2159     1
   2153   2162     1
   2153   2174     1
   2159   4398     1
   2162   4369     1
   2168   4360     1
   2171   4389     1
   2175   2200     1
   2175   2197     1
   2175   2194     1
   2176   2191     1
   2176   2185     1
   2176   4465     1
   2179   2188     1
   2179   2185     1
   2179   4436     1
   2182   2188     1
   2182   2191     1
   2182   2203     1
   2188   4456     1
   2191   4427     1
   2197   4418     1
   2200   4447     1
   2204   2229     1
   2204   2226     1
   2204   2223     1
   2205   2220     1
   2205   2214     1
   2205   4523     1
   2208   2217     1
   2208   2214     1
   2208   4494     1
   2211   2217     1
   2211   2220     1
   2211   2232     1
   2217   4514     1
   2220   4485     1
   2226   4476     1
   2229   4505     1
   2233   2258     1
   2233   2255     1
   2233   2252     1
   2234   2249     1
   2234   2243     1
   2234   4581     1
   2237   2246     1
   2237   2243     1
   2237   4552     1
   2240   2246     1
   2240   2249     1
   2240   2261     1
   2246   4572     1
   2249   4543     1
   2255   4534     1
   2258   4563     1
   2262   2287     1
   2262   2284     1
   2262   2281     1
   2263   2278     1
   2263   2272     1
   2263   4639     1
   2266   2275     1
   2266   2272     1
   2266   4610     1
   2269   2275     1
   2269   2278     1
   2269   2290     1
   2275   4630     1
   2278   4601     1
   2284   4592     1
   2287   4621     1
   2291   2316     1
   2291   2313     1
   2291   2310     1
   2292   2307     1
   2292   2301     1
   2292   4697     1
   2295   2304     1
   2295   2301     1
   2295   4668     1
   2298   2304     1
   2298   2307     1
   2298   2319     1
   2304   4688     1
   2307   4659     1
   2313   4650     1
   2316   4679     1
   2320   2345     1
   2320   2342     1
   2320   2339     1
   2321   2336     1
   2321   2330     1
   2321   4755     1
   2324   2333     1
   2324   2330     1
   2324   4726     1
   2327   2333     1
   2327   2336     1
   2327   2348     1
   2333   4746     1
   2336   4717     1
   2342   4708     1
   2345   4737     1
   2349   2374     1
   2349   2371     1
   2349   2368     1
   2350   2365     1
   2350   2359     1
   2350   4813     1
   2353   2362     1
   2353   2359     1
   2353   4784     1
   2356   2362     1
   2356   2365     1
   2356   2377     1
   2362   4804     1
   2365   4775     1
   2371   4766     1
   2374   4795     1
   2378   2403     1
   2378   2400     1
   2378   2397     1
   2379   2394     1
   2379   2388     1
   2379   4871     1
   2382   2391     1
   2382   2388     1
   2382   4842     1
   2385   2391     1
   2385   2394     1
   2385   2406     1
   2391   4862     1
   2394   4833     1
   2400   4824     1
   2403   4853     1
   2407   2432     1
   2407   2429     1
   2407   2426     1
   2408   2423     1
   2408   2417     1
   2408   4929     1
   2411   2420     1
   2411   2417     1
   2411   4900     1
   2414   2420     1
   2414   2423     1
   2414   2435     1
   2420   4920     1
   2423   4891     1
   2429   4882     1
   2432   4911     1
   2436   2461     1
   2436   2458     1
   2436   2455     1
   2437   2452     1
   2437   2446     1
   2437   4987     1
   2440   2449     1
   2440   2446     1
   2440   4958     1
   2443   2449     1
   2443   2452     1
   2443   2464     1
   2449   4978     1
   2452   4949     1
   2458   4940     1
   2461   4969     1
   2465   2490     1
   2465   2487     1
   2465   2484     1
   2466   2481     1
   2466   2475     1
   2466   5045     1
   2469   2478     1
   2469   2475     1
   2469   5016     1
   2472   2478     1
   2472   2481     1
   2472   2493     1
   2478   5036     1
   2481   5007     1
   2487   4998     1
   2490   5027     1
   2494   2519     1
   2494   2516     1
   2494   2513     1
   2495   2510     1
   2495   2504     1
   2495   5103     1
   2498   2507     1
   2498   2504     1
   2498   5074     1
   2501   2507     1
   2501   2510     1
   2501   2522     1
   2507   5094     1
   2510   5065     1
   2516   5056     1
   2519   5085     1
   2523   2548     1
   2523   2545     1
   2523   2542     1
   2524   2539     1
   2524   2533     1
   2524   5161     1
   2527   2536     1
   2527   2533     1
   2527   5132     1
   2530   2536     1
   2530   2539     1
   2530   2551     1
   2536   5152     1
   2539   5123     1
   2545   5114     1
   2548   5143     1
   2552   2577     1
   2552   2574     1
   2552   2571     1
   2553   2568     1
   2553   2562     1
   2553   5219     1
   2556   2565     1
   2556   2562     1
   2556   5190     1
   2559   2565     1
   2559   2568     1
   2559   2580     1
   2565   5210     1
   2568   5181     1
   2574   5172     1
   2577   5201     1
   2581   2606     1
   2581   2603     1
   2581   2600     1
   2582   2597     1
   2582   2591     1
   2582   5277     1
   2585   2594     1
   2585   2591     1
   2585   5248     1
   2588   2594     1
   2588   2597     1
   2588   2609     1
   2594   5268     1
   2597   5239     1
   2603   5230     1
   2606   5259     1
   2610   2635     1
   2610   2632     1
   2610   2629     1
   2611   2626     1
   2611   2620     1
   2611   5335     1
   2614   2623     1
   2614   2620     1
   2614   5306     1
   2617   2623     1
   2617   2626     1
   2617   2638     1
   2623   5326     1
   2626   5297     1
   2632   5288     1
   2635   5317     1
   2639   2664     1
   2639   2661     1
   2639   2658     1
   2640   2655     1
   2640   2649     1
   2640   5393     1
   2643   2652     1
   2643   2649     1
   2643   5364     1
   2646   2652     1
   2646   2655     1
   2646   2667     1
   2652   5384     1
   2655   5355     1
   2661   5346     1
   2664   5375     1
   2668   2693     1
   2668   2690     1
   2668   2687     1
   2669   2684     1
   2669   2678     1
   2669   5451     1
   2672   2681     1
   2672   2678     1
   2672   5422     1
   2675   2681     1
   2675   2684     1
   2675   2696     1
   2681   5442     1
   2684   5413     1
   2690   5404     1
   2693   5433     1
   2697   2722     1
   2697   2719     1
   2697   2716     1
   2698   2713     1
   2698   2707     1
   2698   5509     1
   2701   2710     1
   2701   2707     1
   2701   5480     1
   2704   2710     1
   2704   2713     1
   2704   2725     1
   2710   5500     1
   2713   5471     1
   2719   5462     1
   2722   5491     1
   2726   2751     1
   2726   2748     1
   2726   2745     1
   2727   2742     1
   2727   2736     1
   2727   5543     1
   2730   2739     1
   2730   2736     1
   2730   5520     1
   2733   2739     1
   2733   2742     1
   2733   2754     1
   2739   5539     1
   2742   5516     1
   2748   5515     1
   2748   5532     1
   2751   5555     1
   2751   5538     1
   2755   2780     1
   2755   2777     1
   2755   2774     1
   2756   2771     1
   2756   2765     1
   2756   5589     1
   2759   2768     1
   2759   2765     1
   2759   5566     1
   2762   2768     1
   2762   2771     1
   2762   2783     1
   2768   5585     1
   2771   5562     1
   2777   5561     1
   2777   5578     1
   2780   5601     1
   2780   5584     1
   2784   2809     1
   2784   2806     1
   2784   2803     1
   2785   2800     1
   2785   2794     1
   2785   5635     1
   2788   2797     1
   2788   2794     1
   2788   5612     1
   2791   2797     1
   2791   2800     1
   2791   2812     1
   2797   5631     1
   2800   5608     1
   2806   5607     1
   2806   5624     1
   2809   5647     1
   2809   5630     1
   2813   2838     1
   2813   2835     1
   2813   2832     1
   2814   2829     1
   2814   2823     1
   2814   5681     1
   2817   2826     1
   2817   2823     1
   2817   5658     1
   2820   2826     1
   2820   2829     1
   2820   2841     1
   2826   5677     1
   2829   5654     1
   2835   5653     1
   2835   5670     1
   2838   5693     1
   2838   5676     1
   2842   2867     1
   2842   2864     1
   2842   2861     1
   2843   2858     1
   2843   2852     1
   2843   5727     1
   2846   2855     1
   2846   2852     1
   2846   5704     1
   2849   2855     1
   2849   2858     1
   2849   2870     1
   2855   5723     1
   2858   5700     1
   2864   5699     1
   2864   5716     1
   2867   5739     1
   2867   5722     1
   2871   2896     1
   2871   2893     1
   2871   2890     1
   2872   2887     1
   2872   2881     1
   2872   5773     1
   2875   2884     1
   2875   2881     1
   2875   5750     1
   2878   2884     1
   2878   2887     1
   2878   2899     1
   2884   5769     1
   2887   5746     1
   2893   5745     1
   2893   5762     1
   2896   5785     1
   2896   5768     1
   2900   2925     1
   2900   2922     1
   2900   2919     1
   2901   2916     1
   2901   2910     1
   2901   5819     1
   2904   2913     1
   2904   2910     1
   2904   5796     1
   2907   2913     1
   2907   2916     1
   2907   2928     1
   2913   5815     1
   2916   5792     1
   2922   5791     1
   2922   5808     1
   2925   5831     1
   2925   5814     1
   2929   2954     1
   2929   2951     1
   2929   2948     1
   2930   2945     1
   2930   2939     1
   2930   5865     1
   2933   2942     1
   2933   2939     1
   2933   5842     1
   2936   2942     1
   2936   2945     1
   2936   2957     1
   2942   5861     1
   2945   5838     1
   2951   5837     1
   2951   5854     1
   2954   5877     1
   2954   5860     1
   2958   2983     1
   2958   2980     1
   2958   2977     1
   2959   2974     1
   2959   2968     1
   2959   5911     1
   2962   2971     1
   2962   2968     1
   2962   5888     1
   2965   2971     1
   2965   2974     1
   2965   2986     1
   2971   5907     1
   2974   5884     1
   2980   5883     1
   2980   5900     1
   2983   5923     1
   2983   5906     1
   2987   3012     1
   2987   3009     1
   2987   3006     1
   2988   3003     1
   2988   2997     1
   2988   5957     1
   2991   3000     1
   2991   2997     1
   2991   5934     1
   2994   3000     1
   2994   3003     1
   2994   3015     1
   3000   5953     1
   3003   5930     1
   3009   5929     1
   3009   5946     1
   3012   5969     1
   3012   5952     1
   3016   3041     1
   3016   3038     1
   3016   3035     1
   3017   3032     1
   3017   3026     1
   3017   6003     1
   3020   3029     1
   3020   3026     1
   3020   5980     1
   3023   3029     1
   3023   3032     1
   3023   3044     1
   3029   5999     1
   3032   5976     1
   3038   5975     1
   3038   5992     1
   3041   6015     1
   3041   5998     1
   3045   3070     1
   3045   3067     1
   3045   3064     1
   3046   3061     1
   3046   3055     1
   3046   6049     1
   3049   3058     1
   3049   3055     1
   3049   6026     1
   3052   3058     1
   3052   3061     1
   3052   3073     1
   3058   6045     1
   3061   6022     1
   3067   6021     1
   3067   6038     1
   3070   6061     1
   3070   6044     1
   3074   3099     1
   3074   3096     1
   3074   3093     1
   3075   3090     1
   3075   3084     1
   3075   6095     1
   3078   3087     1
   3078   3084     1
   3078   6072     1
   3081   3087     1
   3081   3090     1
   3081   3102     1
   3087   6091     1
   3090   6068     1
   3096   6067     1
   3096   6084     1
   3099   6107     1
   3099   6090     1
   3103   3128     1
   3103   3125     1
   3103   3122     1
   3104   3119     1
   3104   3113     1
   3104   6141     1
   3107   3116     1
   3107   3113     1
   3107   6118     1
   3110   3116     1
   3110   3119     1
   3110   3131     1
   3116   6137     1
   3119   6114     1
   3125   6113     1
   3125   6130     1
   3128   6153     1
   3128   6136     1
   3132   3157     1
   3132   3154     1
   3132   3151     1
   3133   3148     1
   3133   3142     1
   3133   6187     1
   3136   3145     1
   3136   3142     1
   3136   6164     1
   3139   3145     1
   3139   3148     1
   3139   3160     1
   3145   6183     1
   3148   6160     1
   3154   6159     1
   3154   6176     1
   3157   6199     1
   3157   6182     1
   3161   3186     1
   3161   3183     1
   3161   3180     1
   3162   3177     1
   3162   3171     1
   3162   6233     1
   3165   3174     1
   3165   3171     1
   3165   6210     1
   3168   3174     1
   3168   3177     1
   3168   3189     1
   3174   6229     1
   3177   6206     1
   3183   6205     1
   3183   6222     1
   3186   6245     1
   3186   6228     1
   3190   3215     1
   3190   3212     1
   3190   3209     1
   3191   3206     1
   3191   3200     1
   3191   6279     1
   3194   3203     1
   3194   3200     1
   3194   6256     1
   3197   3203     1
   3197   3206     1
   3197   3218     1
   3203   6275     1
   3206   6252     1
   3212   6251     1
   3212   6268     1
   3215   6291     1
   3215   6274     1
   3219   3244     1
   3219   3241     1
   3219   3238     1
   3220   3235     1
   3220   3229     1
   3220   6325     1
   3223   3232     1
   3223   3229     1
   3223   6302     1
   3226   3232     1
   3226   3235     1
   3226   3247     1
   3232   6321     1
   3235   6298     1
   3241   6297     1
   3241   6314     1
   3244   6337     1
   3244   6320     1
   3248   3273     1
   3248   3270     1
   3248   3267     1
   3249   3264     1
   3249   3258     1
   3249   6371     1
   3252   3261     1
   3252   3258     1
   3252   6348     1
   3255   3261     1
   3255   3264     1
   3255   3276     1
   3261   6367     1
   3264   6344     1
   3270   6343     1
   3270   6360     1
   3273   6383     1
   3273   6366     1
   3277   3302     1
   3277   3299     1
   3277   3296     1
   3278   3293     1
   3278   3287     1
   3278   6417     1
   3281   3290     1
   3281   3287     1
   3281   6394     1
   3284   3290     1
   3284   3293     1
   3284   3305     1
   3290   6413     1
   3293   6390     1
   3299   6389     1
   3299   6406     1
   3302   6429     1
   3302   6412     1
   3306   3331     1
   3306   3328     1
   3306   3325     1
   3307   3322     1
   3307   3316     1
   3307   6463     1
   3310   3319     1
   3310   3316     1
   3310   6440     1
   3313   3319     1
   3313   3322     1
   3313   3334     1
   3319   6459     1
   3322   6436     1
   3328   6435     1
   3328   6452     1
   3331   6475     1
   3331   6458     1
   3335   3360     1
   3335   3357     1
   3335   3354     1
   3336   3351     1
   3336   3345     1
   3336   6509     1
   3339   3348     1
   3339   3345     1
   3339   6486     1
   3342   3348     1
   3342   3351     1
   3342   3363     1
   3348   6505     1
   3351   6482     1
   3357   6481     1
   3357   6498     1
   3360   6521     1
   3360   6504     1
   3364   3389     1
   3364   3386     1
   3364   3383     1
   3365   3380     1
   3365   3374     1
   3365   6555     1
   3368   3377     1
   3368   3374     1
   3368   6532     1
   3371   3377     1
   3371   3380     1
   3371   3392     1
   3377   6551     1
   3380   6528     1
   3386   6527     1
   3386   6544     1
   3389   6567     1
   3389   6550     1
   3393   3418     1
   3393   3415     1
   3393   3412     1
   3394   3409     1
   3394   3403     1
   3394   6601     1
   3397   3406     1
   3397   3403     1
   3397   6578     1
   3400   3406     1
   3400   3409     1
   3400   3421     1
   3406   6597     1
   3409   6574     1
   3415   6573     1
   3415   6590     1
   3418   6613     1
   3418   6596     1
   3422   3447     1
   3422   3444     1
   3422   3441     1
   3423   3438     1
   3423   3432     1
   3423   6647     1
   3426   3435     1
   3426   3432     1
   3426   6624     1
   3429   3435     1
   3429   3438     1
   3429   3450     1
   3435   6643     1
   3438   6620     1
   3444   6619     1
   3444   6636     1
   3447   6659     1
   3447   6642     1
   3451   3476     1
   3451   3473     1
   3451   3470     1
   3452   3467     1
   3452   3461     1
   3452   6693     1
   3455   3464     1
   3455   3461     1
   3455   6670     1
   3458   3464     1
   3458   3467     1
   3458   3479     1
   3464   6689     1
   3467   6666     1
   3473   6665     1
   3473   6682     1
   3476   6705     1
   3476   6688     1
   3480   3505     1
   3480   3502     1
   3480   3499     1
   3481   3496     1
   3481   3490     1
   3481   6739     1
   3484   3493     1
   3484   3490     1
   3484   6716     1
   3487   3493     1
   3487   3496     1
   3487   3508     1
   3493   6735     1
   3496   6712     1
   3502   6711     1
   3502   6728     1
   3505   6751     1
   3505   6734     1
   3509   3534     1
   3509   3531     1
   3509   3528     1
   3510   3525     1
   3510   3519     1
   3510   6785     1
   3513   3522     1
   3513   3519     1
   3513   6762     1
   3516   3522     1
   3516   3525     1
   3516   3537     1
   3522   6781     1
   3525   6758     1
   3531   6757     1
   3531   6774     1
   3534   6797     1
   3534   6780     1
   3538   3563     1
   3538   3560     1
   3538   3557     1
   3539   3554     1
   3539   3548     1
   3539   6831     1
   3542   3551     1
   3542   3548     1
   3542   6808     1
   3545   3551     1
   3545   3554     1
   3545   3566     1
   3551   6827     1
   3554   6804     1
   3560   6803     1
   3560   6820     1
   3563   6843     1
   3563   6826     1
   3567   3592     1
   3567   3589     1
   3567   3586     1
   3568   3583     1
   3568   3577     1
   3568   6877     1
   3571   3580     1
   3571   3577     1
   3571   6854     1
   3574   3580     1
   3574   3583     1
   3574   3595     1
   3580   6873     1
   3583   6850     1
   3589   6849     1
   3589   6866     1
   3592   6889     1
   3592   6872     1
   3596   3621     1
   3596   3618     1
   3596   3615     1
   3597   3612     1
   3597   3606     1
   3597   6923     1
   3600   3609     1
   3600   3606     1
   3600   6900     1
   3603   3609     1
   3603   3612     1
   3603   3624     1
   3609   6919     1
   3612   6896     1
   3618   6895     1
   3618   6912     1
   3621   6935     1
   3621   6918     1
   3625   3650     1
   3625   3647     1
   3625   3644     1
   3626   3641     1
   3626   3635     1
   3626   6969     1
   3629   3638     1
   3629   3635     1
   3629   6946     1
   3632   3638     1
   3632   3641     1
   3632   3653     1
   3638   6965     1
   3641   6942     1
   3647   6941     1
   3647   6958     1
   3650   6981     1
   3650   6964     1
   3654   3679     1
   3654   3676     1
   3654   3673     1
   3655   3670     1
   3655   3664     1
   3655   7015     1
   3658   3667     1
   3658   3664     1
   3658   6992     1
   3661   3667     1
   3661   3670     1
   3661   3682     1
   3667   7011     1
   3670   6988     1
   3676   6987     1
   3676   7004     1
   3679   7027     1
   3679   7010     1
   3683   3708     1
   3683   3705     1
   3683   3702     1
   3684   3699     1
   3684   3693     1
   3684   7061     1
   3687   3696     1
   3687   3693     1
   3687   7038     1
   3690   3696     1
   3690   3699     1
   3690   3711     1
   3696   7057     1
   3699   7034     1
   3705   7033     1
   3705   7050     1
   3708   7073     1
   3708   7056     1
   3712   3737     1
   3712   3734     1
   3712   3731     1
   3713   3728     1
   3713   3722     1
   3713   7107     1
   3716   3725     1
   3716   3722     1
   3716   7084     1
   3719   3725     1
   3719   3728     1
   3719   3740     1
   3725   7103     1
   3728   7080     1
   3734   7079     1
   3734   7096     1
   3737   7119     1
   3737   7102     1
   3741   3766     1
   3741   3763     1
   3741   3760     1
   3742   3757     1
   3742   3751     1
   3742   7153     1
   3745   3754     1
   3745   3751     1
   3745   7130     1
   3748   3754     1
   3748   3757     1
   3748   3769     1
   3754   7149     1
   3757   7126     1
   3763   7125     1
   3763   7142     1
   3766   7165     1
   3766   7148     1
   3770   3795     1
   3770   3792     1
   3770   3789     1
   3771   3786     1
   3771   3780     1
   3771   7199     1
   3774   3783     1
   3774   3780     1
   3774   7176     1
   3777   3783     1
   3777   3786     1
   3777   3798     1
   3783   7195     1
   3786   7172     1
   3792   7171     1
   3792   7188     1
   3795   7211     1
   3795   7194     1
   3799   3824     1
   3799   3821     1
   3799   3818     1
   3800   3815     1
   3800   3809     1
   3800   7245     1
   3803   3812     1
   3803   3809     1
   3803   7222     1
   3806   3812     1
   3806   3815     1
   3806   3827     1
   3812   7241     1
   3815   7218     1
   3821   7217     1
   3821   7234     1
   3824   7257     1
   3824   7240     1
   3828   3853     1
   3828   3850     1
   3828   3847     1
   3829   3844     1
   3829   3838     1
   3829   7291     1
   3832   3841     1
   3832   3838     1
   3832   7268     1
   3835   3841     1
   3835   3844     1
   3835   3856     1
   3841   7287     1
   3844   7264     1
   3850   7263     1
   3850   7280     1
   3853   7303     1
   3853   7286     1
   3857   3882     1
   3857   3879     1
   3857   3876     1
   3858   3873     1
   3858   3867     1
   3858   7337     1
   3861   3870     1
   3861   3867     1
   3861   7314     1
   3864   3870     1
   3864   3873     1
   3864   3885     1
   3870   7333     1
   3873   7310     1
   3879   7309     1
   3879   7326     1
   3882   7349     1
   3882   7332     1
   3886   3911     1
   3886   3908     1
   3886   3905     1
   3887   3902     1
   3887   3896     1
   3887   7383     1
   3890   3899     1
   3890   3896     1
   3890   7360     1
   3893   3899     1
   3893   3902     1
   3893   3914     1
   3899   7379     1
   3902   7356     1
   3908   7355     1
   3908   7372     1
   3911   7395     1
   3911   7378     1
   3915   3940     1
   3915   3937     1
   3915   3934     1
   3916   3931     1
   3916   3925     1
   3916   7429     1
   3919   3928     1
   3919   3925     1
   3919   7406     1
   3922   3928     1
   3922   3931     1
   3922   3943     1
   3928   7425     1
   3931   7402     1
   3937   7401     1
   3937   7418     1
   3940   7441     1
   3940   7424     1
   3944   3969     1
   3944   3966     1
   3944   3963     1
   3945   3960     1
   3945   3954     1
   3945   7475     1
   3948   3957     1
   3948   3954     1
   3948   7452     1
   3951   3957     1
   3951   3960     1
   3951   3972     1
   3957   7471     1
   3960   7448     1
   3966   7447     1
   3966   7464     1
   3969   7487     1
   3969   7470     1
   3973   3998     1
   3973   3995     1
   3973   3992     1
   3974   3989     1
   3974   3983     1
   3974   7521     1
   3977   3986     1
   3977   3983     1
   3977   7498     1
   3980   3986     1
   3980   3989     1
   3980   4001     1
   3986   7517     1
   3989   7494     1
   3995   7493     1
   3995   7510     1
   3998   7533     1
   3998   7516     1
   4002   4027     1
   4002   4024     1
   4002   4021     1
   4003   4018     1
   4003   4012     1
   4003   7567     1
   4006   4015     1
   4006   4012     1
   4006   7544     1
   4009   4015     1
   4009   4018     1
   4009   4030     1
   4015   7563     1
   4018   7540     1
   4024   7539     1
   4024   7556     1
   4027   7579     1
   4027   7562     1
   4031   4056     1
   4031   4053     1
   4031   4050     1
   4032   4047     1
   4032   4041     1
   4032   7613     1
   4035   4044     1
   4035   4041     1
   4035   7590     1
   4038   4044     1
   4038   4047     1
   4038   4059     1
   4044   7609     1
   4047   7586     1
   4053   7585     1
   4053   7602     1
   4056   7625     1
   4056   7608     1
   4060   4085     1
   4060   4082     1
   4060   4079     1
   4061   4076     1
   4061   4070     1
   4061   7659     1
   4064   4073     1
   4064   4070     1
   4064   7636     1
   4067   4073     1
   4067   4076     1
   4067   4088     1
   4073   7655     1
   4076   7632     1
   4082   7631     1
   4082   7648     1
   4085   7671     1
   4085   7654     1
   4089   4114     1
   4089   4111     1
   4089   4108     1
   4090   4105     1
   4090   4099     1
   4090   7705     1
   4093   4102     1
   4093   4099     1
   4093   7682     1
   4096   4102     1
   4096   4105     1
   4096   4117     1
   4102   7701     1
   4105   7678     1
   4111   7677     1
   4111   7694     1
   4114   7717     1
   4114   7700     1
   4118   4143     1
   4118   4140     1
   4118   4137     1
   4119   4134     1
   4119   4128     1
   4119   7751     1
   4122   4131     1
   4122   4128     1
   4122   7728     1
   4125   4131     1
   4125   4134     1
   4125   4146     1
   4131   7747     1
   4134   7724     1
   4140   7723     1
   4140   7740     1
   4143   7763     1
   4143   7746     1
   4147   4172     1
   4147   4169     1
   4147   4166     1
   4148   4163     1
   4148   4157     1
   4148   7797     1
   4151   4160     1
   4151   4157     1
   4151   7774     1
   4154   4160     1
   4154   4163     1
   4154   4175     1
   4160   7793     1
   4163   7770     1
   4169   7769     1
   4169   7786     1
   4172   7809     1
   4172   7792     1
   4176   4201     1
   4176   4198     1
   4176   4195     1
   4177   4192     1
   4177   4186     1
   4177   7843     1
   4180   4189     1
   4180   4186     1
   4180   7820     1
   4183   4189     1
   4183   4192     1
   4183   4204     1
   4189   7839     1
   4192   7816     1
   4198   7815     1
   4198   7832     1
   4201   7855     1
   4201   7838     1
   4205   4230     1
   4205   4227     1
   4205   4224     1
   4206   4221     1
   4206   4215     1
   4206   7889     1
   4209   4218     1
   4209   4215     1
   4209   7866     1
   4212   4218     1
   4212   4221     1
   4212   4233     1
   4218   7885     1
   4221   7862     1
   4227   7861     1
   4227   7878     1
   4230   7901     1
   4230   7884     1
   4234   4259     1
   4234   4256     1
   4234   4253     1
   4235   4250     1
   4235   4244     1
   4235   7935     1
   4238   4247     1
   4238   4244     1
   4238   7912     1
   4241   4247     1
   4241   4250     1
   4241   4262     1
   4247   7931     1
   4250   7908     1
   4256   7907     1
   4256   7924     1
   4259   7947     1
   4259   7930     1
   4263   4288     1
   4263   4285     1
   4263   4282     1
   4264   4279     1
   4264   4273     1
   4264   7981     1
   4267   4276     1
   4267   4273     1
   4267   7958     1
   4270   4276     1
   4270   4279     1
   4270   4291     1
   4276   7977     1
   4279   7954     1
   4285   7953     1
   4285   7970     1
   4288   7993     1
   4288   7976     1
   4292   4317     1
   4292   4314     1
   4292   4311     1
   4293   4308     1
   4293   4302     1
   4293   8027     1
   4296   4305     1
   4296   4302     1
   4296   8004     1
   4299   4305     1
   4299   4308     1
   4299   4320     1
   4305   8023     1
   4308   8000     1
   4314   7999     1
   4314   8016     1
   4317   8039     1
   4317   8022     1
   4321   4346     1
   4321   4343     1
   4321   4340     1
   4322   4337     1
   4322   4331     1
   4322   8073     1
   4325   4334     1
   4325   4331     1
   4325   8050     1
   4328   4334     1
   4328   4337     1
   4328   4349     1
   4334   8069     1
   4337   8046     1
   4343   8045     1
   4343   8062     1
   4346   8085     1
   4346   8068     1
   4350   4375     1
   4350   4372     1
   4350   4369     1
   4351   4366     1
   4351   4360     1
   4351   8119     1
   4354   4363     1
   4354   4360     1
   4354   8096     1
   4357   4363     1
   4357   4366     1
   4357   4378     1
   4363   8115     1
   4366   8092     1
   4372   8091     1
   4372   8108     1
   4375   8131     1
   4375   8114     1
   4379   4404     1
   4379   4401     1
   4379   4398     1
   4380   4395     1
   4380   4389     1
   4380   8165     1
   4383   4392     1
   4383   4389     1
   4383   8142     1
   4386   4392     1
   4386   4395     1
   4386   4407     1
   4392   8161     1
   4395   8138     1
   4401   8137     1
   4401   8154     1
   4404   8177     1
   4404   8160     1
   4408   4433     1
   4408   4430     1
   4408   4427     1
   4409   4424     1
   4409   4418     1
   4409   8211     1
   4412   4421     1
   4412   4418     1
   4412   8188     1
   4415   4421     1
   4415   4424     1
   4415   4436     1
   4421   8207     1
   4424   8184     1
   4430   8183     1
   4430   8200     1
   4433   8223     1
   4433   8206     1
   4437   4462     1
   4437   4459     1
   4437   4456     1
   4438   4453     1
   4438   4447     1
   4438   8257     1
   4441   4450     1
   4441   4447     1
   4441   8234     1
   4444   4450     1
   4444   4453     1
   4444   4465     1
   4450   8253     1
   4453   8230     1
   4459   8229     1
   4459   8246     1
   4462   8269     1
   4462   8252     1
   4466   4491     1
   4466   4488     1
   4466   4485     1
   4467   4482     1
   4467   4476     1
   4467   8303     1
   4470   4479     1
   4470   4476     1
   4470   8280     1
   4473   4479     1
   4473   4482     1
   4473   4494     1
   4479   8299     1
   4482   8276     1
   4488   8275     1
   4488   8292     1
   4491   8315     1
   4491   8298     1
   4495   4520     1
   4495   4517     1
   4495   4514     1
   4496   4511     1
   4496   4505     1
   4496   8349     1
   4499   4508     1
   4499   4505     1
   4499   8326     1
   4502   4508     1
   4502   4511     1
   4502   4523     1
   4508   8345     1
   4511   8322     1
   4517   8321     1
   4517   8338     1
   4520   8361     1
   4520   8344     1
   4524   4549     1
   4524   4546     1
   4524   4543     1
   4525   4540     1
   4525   4534     1
   4525   8395     1
   4528   4537     1
   4528   4534     1
   4528   8372     1
   4531   4537     1
   4531   4540     1
   4531   4552     1
   4537   8391     1
   4540   8368     1
   4546   8367     1
   4546   8384     1
   4549   8407     1
   4549   8390     1
   4553   4578     1
   4553   4575     1
   4553   4572     1
   4554   4569     1
   4554   4563     1
   4554   8441     1
   4557   4566     1
   4557   4563     1
   4557   8418     1
   4560   4566     1
   4560   4569     1
   4560   4581     1
   4566   8437     1
   4569   8414     1
   4575   8413     1
   4575   8430     1
   4578   8453     1
   4578   8436     1
   4582   4607     1
   4582   4604     1
   4582   4601     1
   4583   4598     1
   4583   4592     1
   4583   8487     1
   4586   4595     1
   4586   4592     1
   4586   8464     1
   4589   4595     1
   4589   4598     1
   4589   4610     1
   4595   8483     1
   4598   8460     1
   4604   8459     1
   4604   8476     1
   4607   8499     1
   4607   8482     1
   4611   4636     1
   4611   4633     1
   4611   4630     1
   4612   4627     1
   4612   4621     1
   4612   8533     1
   4615   4624     1
   4615   4621     1
   4615   8510     1
   4618   4624     1
   4618   4627     1
   4618   4639     1
   4624   8529     1
   4627   8506     1
   4633   8505     1
   4633   8522     1
   4636   8545     1
   4636   8528     1
   4640   4665     1
   4640   4662     1
   4640   4659     1
   4641   4656     1
   4641   4650     1
   4641   8579     1
   4644   4653     1
   4644   4650     1
   4644   8556     1
   4647   4653     1
   4647   4656     1
   4647   4668     1
   4653   8575     1
   4656   8552     1
   4662   8551     1
   4662   8568     1
   4665   8591     1
   4665   8574     1
   4669   4694     1
   4669   4691     1
   4669   4688     1
   4670   4685     1
   4670   4679     1
   4670   8625     1
   4673   4682     1
   4673   4679     1
   4673   8602     1
   4676   4682     1
   4676   4685     1
   4676   4697     1
   4682   8621     1
   4685   8598     1
   4691   8597     1
   4691   8614     1
   4694   8637     1
   4694   8620     1
   4698   4723     1
   4698   4720     1
   4698   4717     1
   4699   4714     1
   4699   4708     1
   4699   8671     1
   4702   4711     1
   4702   4708     1
   4702   8648     1
   4705   4711     1
   4705   4714     1
   4705   4726     1
   4711   8667     1
   4714   8644     1
   4720   8643     1
   4720   8660     1
   4723   8683     1
   4723   8666     1
   4727   4752     1
   4727   4749     1
   4727   4746     1
   4728   4743     1
   4728   4737     1
   4728   8717     1
   4731   4740     1
   4731   4737     1
   4731   8694     1
   4734   4740     1
   4734   4743     1
   4734   4755     1
   4740   8713     1
   4743   8690     1
   4749   8689     1
   4749   8706     1
   4752   8729     1
   4752   8712     1
   4756   4781     1
   4756   4778     1
   4756   4775     1
   4757   4772     1
   4757   4766     1
   4757   8763     1
   4760   4769     1
   4760   4766     1
   4760   8740     1
   4763   4769     1
   4763   4772     1
   4763   4784     1
   4769   8759     1
   4772   8736     1
   4778   8735     1
   4778   8752     1
   4781   8775     1
   4781   8758     1
   4785   4810     1
   4785   4807     1
   4785   4804     1
   4786   4801     1
   4786   4795     1
   4786   8809     1
   4789   4798     1
   4789   4795     1
   4789   8786     1
   4792   4798     1
   4792   4801     1
   4792   4813     1
   4798   8805     1
   4801   8782     1
   4807   8781     1
   4807   8798     1
   4810   8821     1
   4810   8804     1
   4814   4839     1
   4814   4836     1
   4814   4833     1
   4815   4830     1
   4815   4824     1
   4815   8855     1
   4818   4827     1
   4818   4824     1
   4818   8832     1
   4821   4827     1
   4821   4830     1
   4821   4842     1
   4827   8851     1
   4830   8828     1
   4836   8827     1
   4836   8844     1
   4839   8867     1
   4839   8850     1
   4843   4868     1
   4843   4865     1
   4843   4862     1
   4844   4859     1
   4844   4853     1
   4844   8901     1
   4847   4856     1
   4847   4853     1
   4847   8878     1
   4850   4856     1
   4850   4859     1
   4850   4871     1
   4856   8897     1
   4859   8874     1
   4865   8873     1
   4865   8890     1
   4868   8913     1
   4868   8896     1
   4872   4897     1
   4872   4894     1
   4872   4891     1
   4873   4888     1
   4873   4882     1
   4873   8947     1
   4876   4885     1
   4876   4882     1
   4876   8924     1
   4879   4885     1
   4879   4888     1
   4879   4900     1
   4885   8943     1
   4888   8920     1
   4894   8919     1
   4894   8936     1
   4897   8959     1
   4897   8942     1
   4901   4926     1
   4901   4923     1
   4901   4920     1
   4902   4917     1
   4902   4911     1
   4902   8993     1
   4905   4914     1
   4905   4911     1
   4905   8970     1
   4908   4914     1
   4908   4917     1
   4908   4929     1
   4914   8989     1
   4917   8966     1
   4923   8965     1
   4923   8982     1
   4926   9005     1
   4926   8988     1
   4930   4955     1
   4930   4952     1
   4930   4949     1
   4931   4946     1
   4931   4940     1
   4931   9039     1
   4934   4943     1
   4934   4940     1
   4934   9016     1
   4937   4943     1
   4937   4946     1
   4937   4958     1
   4943   9035     1
   4946   9012     1
   4952   9011     1
   4952   9028     1
   4955   9051     1
   4955   9034     1
   4959   4984     1
   4959   4981     1
   4959   4978     1
   4960   4975     1
   4960   4969     1
   4960   9085     1
   4963   4972     1
   4963   4969     1
   4963   9062     1
   4966   4972     1
   4966   4975     1
   4966   4987     1
   4972   9081     1
   4975   9058     1
   4981   9057     1
   4981   9074     1
   4984   9097     1
   4984   9080     1
   4988   5013     1
   4988   5010     1
   4988   5007     1
   4989   5004     1
   4989   4998     1
   4989   9131     1
   4992   5001     1
   4992   4998     1
   4992   9108     1
   4995   5001     1
   4995   5004     1
   4995   5016     1
   5001   9127     1
   5004   9104     1
   5010   9103     1
   5010   9120     1
   5013   9143     1
   5013   9126     1
   5017   5042     1
   5017   5039     1
   5017   5036     1
   5018   5033     1
   5018   5027     1
   5018   9177     1
   5021   5030     1
   5021   5027     1
   5021   9154     1
   5024   5030     1
   5024   5033     1
   5024   5045     1
   5030   9173     1
   5033   9150     1
   5039   9149     1
   5039   9166     1
   5042   9189     1
   5042   9172     1
   5046   5071     1
   5046   5068     1
   5046   5065     1
   5047   5062     1
   5047   5056     1
   5047   9223     1
   5050   5059     1
   5050   5056     1
   5050   9200     1
   5053   5059     1
   5053   5062     1
   5053   5074     1
   5059   9219     1
   5062   9196     1
   5068   9195     1
   5068   9212     1
   5071   9235     1
   5071   9218     1
   5075   5100     1
   5075   5097     1
   5075   5094     1
   5076   5091     1
   5076   5085     1
   5076   9269     1
   5079   5088     1
   5079   5085     1
   5079   9246     1
   5082   5088     1
   5082   5091     1
   5082   5103     1
   5088   9265     1
   5091   9242     1
   5097   9241     1
   5097   9258     1
   5100   9281     1
   5100   9264     1
   5104   5129     1
   5104   5126     1
   5104   5123     1
   5105   5120     1
   5105   5114     1
   5105   9315     1
   5108   5117     1
   5108   5114     1
   5108   9292     1
   5111   5117     1
   5111   5120     1
   5111   5132     1
   5117   9311     1
   5120   9288     1
   5126   9287     1
   5126   9304     1
   5129   9327     1
   5129   9310     1
   5133   5158     1
   5133   5155     1
   5133   5152     1
   5134   5149     1
   5134   5143     1
   5134   9361     1
   5137   5146     1
   5137   5143     1
   5137   9338     1
   5140   5146     1
   5140   5149     1
   5140   5161     1
   5146   9357     1
   5149   9334     1
   5155   9333     1
   5155   9350     1
   5158   9373     1
   5158   9356     1
   5162   5187     1
   5162   5184     1
   5162   5181     1
   5163   5178     1
   5163   5172     1
   5163   9407     1
   5166   5175     1
   5166   5172     1
   5166   9384     1
   5169   5175     1
   5169   5178     1
   5169   5190     1
   5175   9403     1
   5178   9380     1
   5184   9379     1
   5184   9396     1
   5187   9419     1
   5187   9402     1
   5191   5216     1
   5191   5213     1
   5191   5210     1
   5192   5207     1
   5192   5201     1
   5192   9453     1
   5195   5204     1
   5195   5201     1
   5195   9430     1
   5198   5204     1
   5198   5207     1
   5198   5219     1
   5204   9449     1
   5207   9426     1
   5213   9425     1
   5213   9442     1
   5216   9465     1
   5216   9448     1
   5220   5245     1
   5220   5242     1
   5220   5239     1
   5221   5236     1
   5221   5230     1
   5221   9499     1
   5224   5233     1
   5224   5230     1
   5224   9476     1
   5227   5233     1
   5227   5236     1
   5227   5248     1
   5233   9495     1
   5236   9472     1
   5242   9471     1
   5242   9488     1
   5245   9511     1
   5245   9494     1
   5249   5274     1
   5249   5271     1
   5249   5268     1
   5250   5265     1
   5250   5259     1
   5250   9545     1
   5253   5262     1
   5253   5259     1
   5253   9522     1
   5256   5262     1
   5256   5265     1
   5256   5277     1
   5262   9541     1
   5265   9518     1
   5271   9517     1
   5271   9534     1
   5274   9557     1
   5274   9540     1
   5278   5303     1
   5278   5300     1
   5278   5297     1
   5279   5294     1
   5279   5288     1
   5279   9591     1
   5282   5291     1
   5282   5288     1
   5282   9568     1
   5285   5291     1
   5285   5294     1
   5285   5306     1
   5291   9587     1
   5294   9564     1
   5300   9563     1
   5300   9580     1
   5303   9603     1
   5303   9586     1
   5307   5332     1
   5307   5329     1
   5307   5326     1
   5308   5323     1
   5308   5317     1
   5308   9637     1
   5311   5320     1
   5311   5317     1
   5311   9614     1
   5314   5320     1
   5314   5323     1
   5314   5335     1
   5320   9633     1
   5323   9610     1
   5329   9609     1
   5329   9626     1
   5332   9649     1
   5332   9632     1
   5336   5361     1
   5336   5358     1
   5336   5355     1
   5337   5352     1
   5337   5346     1
   5337   9683     1
   5340   5349     1
   5340   5346     1
   5340   9660     1
   5343   5349     1
   5343   5352     1
   5343   5364     1
   5349   9679     1
   5352   9656     1
   5358   9655     1
   5358   9672     1
   5361   9695     1
   5361   9678     1
   5365   5390     1
   5365   5387     1
   5365   5384     1
   5366   5381     1
   5366   5375     1
   5366   9729     1
   5369   5378     1
   5369   5375     1
   5369   9706     1
   5372   5378     1
   5372   5381     1
   5372   5393     1
   5378   9725     1
   5381   9702     1
   5387   9701     1
   5387   9718     1
   5390   9741     1
   5390   9724     1
   5394   5419     1
   5394   5416     1
   5394   5413     1
   5395   5410     1
   5395   5404     1
   5395   9775     1
   5398   5407     1
   5398   5404     1
   5398   9752     1
   5401   5407     1
   5401   5410     1
   5401   5422     1
   5407   9771     1
   5410   9748     1
   5416   9747     1
   5416   9764     1
   5419   9787     1
   5419   9770     1
   5423   5448     1
   5423   5445     1
   5423   5442     1
   5424   5439     1
   5424   5433     1
   5424   9821     1
   5427   5436     1
   5427   5433     1
   5427   9798     1
   5430   5436     1
   5430   5439     1
   5430   5451     1
   5436   9817     1
   5439   9794     1
   5445   9793     1
   5445   9810     1
   5448   9833     1
   5448   9816     1
   5452   5477     1
   5452   5474     1
   5452   5471     1
   5453   5468     1
   5453   5462     1
   5453   9867     1
   5456   5465     1
   5456   5462     1
   5456   9844     1
   5459   5465     1
   5459   5468     1
   5459   5480     1
   5465   9863     1
   5468   9840     1
   5474   9839     1
   5474   9856     1
   5477   9879     1
   5477   9862     1
   5481   5506     1
   5481   5503     1
   5481   5500     1
   5482   5497     1
   5482   5491     1
   5482   9913     1
   5485   5494     1
   5485   5491     1
   5485   9890     1
   5488   5494     1
   5488   5497     1
   5488   5509     1
   5494   9909     1
   5497   9886     1
   5503   9885     1
   5503   9902     1
   5506   9925     1
   5506   9908     1
   5510   5515     1
   5510   5522     1
   5510   5520     1
   5511   5530     1
   5511   5516     1
   5511   5521     1
   5514   5524     1
   5514   5532     1
   5514   5520     1
   5515   5523     1
   5516   5522     1
   5516   5524     1
   5520   5521     1
   5521   5522     1
   5521   5532     1
   5522   5523     1
   5523   5524     1
   5523   5532     1
   5530   5532     1
   5533   5538     1
   5533   5545     1
   5533   5543     1
   5534   5539     1
   5534   5544     1
   5534   5553     1
   5537   5543     1
   5537   5555     1
   5537   5547     1
   5538   5546     1
   5539   5547     1
   5539   5545     1
   5543   5544     1
   5544   5555     1
   5544   5545     1
   5545   5546     1
   5546   5547     1
   5546   5555     1
   5553   5555     1
   5556   5561     1
   5556   5568     1
   5556   5566     1
   5557   5576     1
   5557   5562     1
   5557   5567     1
   5560   5570     1
   5560   5578     1
   5560   5566     1
   5561   5569     1
   5562   5568     1
   5562   5570     1
   5566   5567     1
   5567   5568     1
   5567   5578     1
   5568   5569     1
   5569   5570     1
   5569   5578     1
   5576   5578     1
   5579   5584     1
   5579   5591     1
   5579   5589     1
   5580   5585     1
   5580   5590     1
   5580   5599     1
   5583   5589     1
   5583   5601     1
   5583   5593     1
   5584   5592     1
   5585   5593     1
   5585   5591     1
   5589   5590     1
   5590   5601     1
   5590   5591     1
   5591   5592     1
   5592   5593     1
   5592   5601     1
   5599   5601     1
   5602   5607     1
   5602   5614     1
   5602   5612     1
   5603   5622     1
   5603   5608     1
   5603   5613     1
   5606   5616     1
   5606   5624     1
   5606   5612     1
   5607   5615     1
   5608   5614     1
   5608   5616     1
   5612   5613     1
   5613   5614     1
   5613   5624     1
   5614   5615     1
   5615   5616     1
   5615   5624     1
   5622   5624     1
   5625   5630     1
   5625   5637     1
   5625   5635     1
   5626   5631     1
   5626   5636     1
   5626   5645     1
   5629   5635     1
   5629   5647     1
   5629   5639     1
   5630   5638     1
   5631   5639     1
   5631   5637     1
   5635   5636     1
   5636   5647     1
   5636   5637     1
   5637   5638     1
   5638   5639     1
   5638   5647     1
   5645   5647     1
   5648   5653     1
   5648   5660     1
   5648   5658     1
   5649   5668     1
   5649   5654     1
   5649   5659     1
   5652   5662     1
   5652   5670     1
   5652   5658     1
   5653   5661     1
   5654   5660     1
   5654   5662     1
   5658   5659     1
   5659   5660     1
   5659   5670     1
   5660   5661     1
   5661   5662     1
   5661   5670     1
   5668   5670     1
   5671   5676     1
   5671   5683     1
   5671   5681     1
   5672   5677     1
   5672   5682     1
   5672   5691     1
   5675   5681     1
   5675   5693     1
   5675   5685     1
   5676   5684     1
   5677   5685     1
   5677   5683     1
   5681   5682     1
   5682   5693     1
   5682   5683     1
   5683   5684     1
   5684   5685     1
   5684   5693     1
   5691   5693     1
   5694   5699     1
   5694   5706     1
   5694   5704     1
   5695   5714     1
   5695   5700     1
   5695   5705     1
   5698   5708     1
   5698   5716     1
   5698   5704     1
   5699   5707     1
   5700   5706     1
   5700   5708     1
   5704   5705     1
   5705   5706     1
   5705   5716     1
   5706   5707     1
   5707   5708     1
   5707   5716     1
   5714   5716     1
   5717   5722     1
   5717   5729     1
   5717   5727     1
   5718   5723     1
   5718   5728     1
   5718   5737     1
   5721   5727     1
   5721   5739     1
   5721   5731     1
   5722   5730     1
   5723   5731     1
   5723   5729     1
   5727   5728     1
   5728   5739     1
   5728   5729     1
   5729   5730     1
   5730   5731     1
   5730   5739     1
   5737   5739     1
   5740   5745     1
   5740   5752     1
   5740   5750     1
   5741   5760     1
   5741   5746     1
   5741   5751     1
   5744   5754     1
   5744   5762     1
   5744   5750     1
   5745   5753     1
   5746   5752     1
   5746   5754     1
   5750   5751     1
   5751   5752     1
   5751   5762     1
   5752   5753     1
   5753   5754     1
   5753   5762     1
   5760   5762     1
   5763   5768     1
   5763   5775     1
   5763   5773     1
   5764   5769     1
   5764   5774     1
   5764   5783     1
   5767   5773     1
   5767   5785     1
   5767   5777     1
   5768   5776     1
   5769   5777     1
   5769   5775     1
   5773   5774     1
   5774   5785     1
   5774   5775     1
   5775   5776     1
   5776   5777     1
   5776   5785     1
   5783   5785     1
   5786   5791     1
   5786   5798     1
   5786   5796     1
   5787   5806     1
   5787   5792     1
   5787   5797     1
   5790   5800     1
   5790   5808     1
   5790   5796     1
   5791   5799     1
   5792   5798     1
   5792   5800     1
   5796   5797     1
   5797   5798     1
   5797   5808     1
   5798   5799     1
   5799   5800     1
   5799   5808     1
   5806   5808     1
   5809   5814     1
   5809   5821     1
   5809   5819     1
   5810   5815     1
   5810   5820     1
   5810   5829     1
   5813   5819     1
   5813   5831     1
   5813   5823     1
   5814   5822     1
   5815   5823     1
   5815   5821     1
   5819   5820     1
   5820   5831     1
   5820   5821     1
   5821   5822     1
   5822   5823     1
   5822   5831     1
   5829   5831     1
   5832   5837     1
   5832   5844     1
   5832   5842     1
   5833   5852     1
   5833   5838     1
   5833   5843     1
   5836   5846     1
   5836   5854     1
   5836   5842     1
   5837   5845     1
   5838   5844     1
   5838   5846     1
   5842   5843     1
   5843   5844     1
   5843   5854     1
   5844   5845     1
   5845   5846     1
   5845   5854     1
   5852   5854     1
   5855   5860     1
   5855   5867     1
   5855   5865     1
   5856   5861     1
   5856   5866     1
   5856   5875     1
   5859   5865     1
   5859   5877     1
   5859   5869     1
   5860   5868     1
   5861   5869     1
   5861   5867     1
   5865   5866     1
   5866   5877     1
   5866   5867     1
   5867   5868     1
   5868   5869     1
   5868   5877     1
   5875   5877     1
   5878   5883     1
   5878   5890     1
   5878   5888     1
   5879   5898     1
   5879   5884     1
   5879   5889     1
   5882   5892     1
   5882   5900     1
   5882   5888     1
   5883   5891     1
   5884   5890     1
   5884   5892     1
   5888   5889     1
   5889   5890     1
   5889   5900     1
   5890   5891     1
   5891   5892     1
   5891   5900     1
   5898   5900     1
   5901   5906     1
   5901   5913     1
   5901   5911     1
   5902   5907     1
   5902   5912     1
   5902   5921     1
   5905   5911     1
   5905   5923     1
   5905   5915     1
   5906   5914     1
   5907   5915     1
   5907   5913     1
   5911   5912     1
   5912   5923     1
   5912   5913     1
   5913   5914     1
   5914   5915     1
   5914   5923     1
   5921   5923     1
   5924   5929     1
   5924   5936     1
   5924   5934     1
   5925   5944     1
   5925   5930     1
   5925   5935     1
   5928   5938     1
   5928   5946     1
   5928   5934     1
   5929   5937     1
   5930   5936     1
   5930   5938     1
   5934   5935     1
   5935   5936     1
   5935   5946     1
   5936   5937     1
   5937   5938     1
   5937   5946     1
   5944   5946     1
   5947   5952     1
   5947   5959     1
   5947   5957     1
   5948   5953     1
   5948   5958     1
   5948   5967     1
   5951   5957     1
   5951   5969     1
   5951   5961     1
   5952   5960     1
   5953   5961     1
   5953   5959     1
   5957   5958     1
   5958   5969     1
   5958   5959     1
   5959   5960     1
   5960   5961     1
   5960   5969     1
   5967   5969     1
   5970   5975     1
   5970   5982     1
   5970   5980     1
   5971   5990     1
   5971   5976     1
   5971   5981     1
   5974   5984     1
   5974   5992     1
   5974   5980     1
   5975   5983     1
   5976   5982     1
   5976   5984     1
   5980   5981     1
   5981   5982     1
   5981   5992     1
   5982   5983     1
   5983   5984     1
   5983   5992     1
   5990   5992     1
   5993   5998     1
   5993   6005     1
   5993   6003     1
   5994   5999     1
   5994   6004     1
   5994   6013     1
   5997   6003     1
   5997   6015     1
   5997   6007     1
   5998   6006     1
   5999   6007     1
   5999   6005     1
   6003   6004     1
   6004   6015     1
   6004   6005     1
   6005   6006     1
   6006   6007     1
   6006   6015     1
   6013   6015     1
   6016   6021     1
   6016   6028     1
   6016   6026     1
   6017   6036     1
   6017   6022     1
   6017   6027     1
   6020   6030     1
   6020   6038     1
   6020   6026     1
   6021   6029     1
   6022   6028     1
   6022   6030     1
   6026   6027     1
   6027   6028     1
   6027   6038     1
   6028   6029     1
   6029   6030     1
   6029   6038     1
   6036   6038     1
   6039   6044     1
   6039   6051     1
   6039   6049     1
   6040   6045     1
   6040   6050     1
   6040   6059     1
   6043   6049     1
   6043   6061     1
   6043   6053     1
   6044   6052     1
   6045   6053     1
   6045   6051     1
   6049   6050     1
   6050   6061     1
   6050   6051     1
   6051   6052     1
   6052   6053     1
   6052   6061     1
   6059   6061     1
   6062   6067     1
   6062   6074     1
   6062   6072     1
   6063   6082     1
   6063   6068     1
   6063   6073     1
   6066   6076     1
   6066   6084     1
   6066   6072     1
   6067   6075     1
   6068   6074     1
   6068   6076     1
   6072   6073     1
   6073   6074     1
   6073   6084     1
   6074   6075     1
   6075   6076     1
   6075   6084     1
   6082   6084     1
   6085   6090     1
   6085   6097     1
   6085   6095     1
   6086   6091     1
   6086   6096     1
   6086   6105     1
   6089   6095     1
   6089   6107     1
   6089   6099     1
   6090   6098     1
   6091   6099     1
   6091   6097     1
   6095   6096     1
   6096   6107     1
   6096   6097     1
   6097   6098     1
   6098   6099     1
   6098   6107     1
   6105   6107     1
   6108   6113     1
   6108   6120     1
   6108   6118     1
   6109   6128     1
   6109   6114     1
   6109   6119     1
   6112   6122     1
   6112   6130     1
   6112   6118     1
   6113   6121     1
   6114   6120     1
   6114   6122     1
   6118   6119     1
   6119   6120     1
   6119   6130     1
   6120   6121     1
   6121   6122     1
   6121   6130     1
   6128   6130     1
   6131   6136     1
   6131   6143     1
   6131   6141     1
   6132   6137     1
   6132   6142     1
   6132   6151     1
   6135   6141     1
   6135   6153     1
   6135   6145     1
   6136   6144     1
   6137   6145     1
   6137   6143     1
   6141   6142     1
   6142   6153     1
   6142   6143     1
   6143   6144     1
   6144   6145     1
   6144   6153     1
   6151   6153     1
   6154   6159     1
   6154   6166     1
   6154   6164     1
   6155   6174     1
   6155   6160     1
   6155   6165     1
   6158   6168     1
   6158   6176     1
   6158   6164     1
   6159   6167     1
   6160   6166     1
   6160   6168     1
   6164   6165     1
   6165   6166     1
   6165   6176     1
   6166   6167     1
   6167   6168     1
   6167   6176     1
   6174   6176     1
   6177   6182     1
   6177   6189     1
   6177   6187     1
   6178   6183     1
   6178   6188     1
   6178   6197     1
   6181   6187     1
   6181   6199     1
   6181   6191     1
   6182   6190     1
   6183   6191     1
   6183   6189     1
   6187   6188     1
   6188   6199     1
   6188   6189     1
   6189   6190     1
   6190   6191     1
   6190   6199     1
   6197   6199     1
   6200   6205     1
   6200   6212     1
   6200   6210     1
   6201   6220     1
   6201   6206     1
   6201   6211     1
   6204   6214     1
   6204   6222     1
   6204   6210     1
   6205   6213     1
   6206   6212     1
   6206   6214     1
   6210   6211     1
   6211   6212     1
   6211   6222     1
   6212   6213     1
   6213   6214     1
   6213   6222     1
   6220   6222     1
   6223   6228     1
   6223   6235     1
   6223   6233     1
   6224   6229     1
   6224   6234     1
   6224   6243     1
   6227   6233     1
   6227   6245     1
   6227   6237     1
   6228   6236     1
   6229   6237     1
   6229   6235     1
   6233   6234     1
   6234   6245     1
   6234   6235     1
   6235   6236     1
   6236   6237     1
   6236   6245     1
   6243   6245     1
   6246   6251     1
   6246   6258     1
   6246   6256     1
   6247   6266     1
   6247   6252     1
   6247   6257     1
   6250   6260     1
   6250   6268     1
   6250   6256     1
   6251   6259     1
   6252   6258     1
   6252   6260     1
   6256   6257     1
   6257   6258     1
   6257   6268     1
   6258   6259     1
   6259   6260     1
   6259   6268     1
   6266   6268     1
   6269   6274     1
   6269   6281     1
   6269   6279     1
   6270   6275     1
   6270   6280     1
   6270   6289     1
   6273   6279     1
   6273   6291     1
   6273   6283     1
   6274   6282     1
   6275   6283     1
   6275   6281     1
   6279   6280     1
   6280   6291     1
   6280   6281     1
   6281   6282     1
   6282   6283     1
   6282   6291     1
   6289   6291     1
   6292   6297     1
   6292   6304     1
   6292   6302     1
   6293   6312     1
   6293   6298     1
   6293   6303     1
   6296   6306     1
   6296   6314     1
   6296   6302     1
   6297   6305     1
   6298   6304     1
   6298   6306     1
   6302   6303     1
   6303   6304     1
   6303   6314     1
   6304   6305     1
   6305   6306     1
   6305   6314     1
   6312   6314     1
   6315   6320     1
   6315   6327     1
   6315   6325     1
   6316   6321     1
   6316   6326     1
   6316   6335     1
   6319   6325     1
   6319   6337     1
   6319   6329     1
   6320   6328     1
   6321   6329     1
   6321   6327     1
   6325   6326     1
   6326   6337     1
   6326   6327     1
   6327   6328     1
   6328   6329     1
   6328   6337     1
   6335   6337     1
   6338   6343     1
   6338   6350     1
   6338   6348     1
   6339   6358     1
   6339   6344     1
   6339   6349     1
   6342   6352     1
   6342   6360     1
   6342   6348     1
   6343   6351     1
   6344   6350     1
   6344   6352     1
   6348   6349     1
   6349   6350     1
   6349   6360     1
   6350   6351     1
   6351   6352     1
   6351   6360     1
   6358   6360     1
   6361   6366     1
   6361   6373     1
   6361   6371     1
   6362   6367     1
   6362   6372     1
   6362   6381     1
   6365   6371     1
   6365   6383     1
   6365   6375     1
   6366   6374     1
   6367   6375     1
   6367   6373     1
   6371   6372     1
   6372   6383     1
   6372   6373     1
   6373   6374     1
   6374   6375     1
   6374   6383     1
   6381   6383     1
   6384   6389     1
   6384   6396     1
   6384   6394     1
   6385   6404     1
   6385   6390     1
   6385   6395     1
   6388   6398     1
   6388   6406     1
   6388   6394     1
   6389   6397     1
   6390   6396     1
   6390   6398     1
   6394   6395     1
   6395   6396     1
   6395   6406     1
   6396   6397     1
   6397   6398     1
   6397   6406     1
   6404   6406     1
   6407   6412     1
   6407   6419     1
   6407   6417     1
   6408   6413     1
   6408   6418     1
   6408   6427     1
   6411   6417     1
   6411   6429     1
   6411   6421     1
   6412   6420     1
   6413   6421     1
   6413   6419     1
   6417   6418     1
   6418   6429     1
   6418   6419     1
   6419   6420     1
   6420   6421     1
   6420   6429     1
   6427   6429     1
   6430   6435     1
   6430   6442     1
   6430   6440     1
   6431   6450     1
   6431   6436     1
   6431   6441     1
   6434   6444     1
   6434   6452     1
   6434   6440     1
   6435   6443     1
   6436   6442     1
   6436   6444     1
   6440   6441     1
   6441   6442     1
   6441   6452     1
   6442   6443     1
   6443   6444     1
   6443   6452     1
   6450   6452     1
   6453   6458     1
   6453   6465     1
   6453   6463     1
   6454   6459     1
   6454   6464     1
   6454   6473     1
   6457   6463     1
   6457   6475     1
   6457   6467     1
   6458   6466     1
   6459   6467     1
   6459   6465     1
   6463   6464     1
   6464   6475     1
   6464   6465     1
   6465   6466     1
   6466   6467     1
   6466   6475     1
   6473   6475     1
   6476   6481     1
   6476   6488     1
   6476   6486     1
   6477   6496     1
   6477   6482     1
   6477   6487     1
   6480   6490     1
   6480   6498     1
   6480   6486     1
   6481   6489     1
   6482   6488     1
   6482   6490     1
   6486   6487     1
   6487   6488     1
   6487   6498     1
   6488   6489     1
   6489   6490     1
   6489   6498     1
   6496   6498     1
   6499   6504     1
   6499   6511     1
   6499   6509     1
   6500   6505     1
   6500   6510     1
   6500   6519     1
   6503   6509     1
   6503   6521     1
   6503   6513     1
   6504   6512     1
   6505   6513     1
   6505   6511     1
   6509   6510     1
   6510   6521     1
   6510   6511     1
   6511   6512     1
   6512   6513     1
   6512   6521     1
   6519   6521     1
   6522   6527     1
   6522   6534     1
   6522   6532     1
   6523   6542     1
   6523   6528     1
   6523   6533     1
   6526   6536     1
   6526   6544     1
   6526   6532     1
   6527   6535     1
   6528   6534     1
   6528   6536     1
   6532   6533     1
   6533   6534     1
   6533   6544     1
   6534   6535     1
   6535   6536     1
   6535   6544     1
   6542   6544     1
   6545   6550     1
   6545   6557     1
   6545   6555     1
   6546   6551     1
   6546   6556     1
   6546   6565     1
   6549   6555     1
   6549   6567     1
   6549   6559     1
   6550   6558     1
   6551   6559     1
   6551   6557     1
   6555   6556     1
   6556   6567     1
   6556   6557     1
   6557   6558     1
   6558   6559     1
   6558   6567     1
   6565   6567     1
   6568   6573     1
   6568   6580     1
   6568   6578     1
   6569   6588     1
   6569   6574     1
   6569   6579     1
   6572   6582     1
   6572   6590     1
   6572   6578     1
   6573   6581     1
   6574   6580     1
   6574   6582     1
   6578   6579     1
   6579   6580     1
   6579   6590     1
   6580   6581     1
   6581   6582     1
   6581   6590     1
   6588   6590     1
   6591   6596     1
   6591   6603     1
   6591   6601     1
   6592   6597     1
   6592   6602     1
   6592   6611     1
   6595   6601     1
   6595   6613     1
   6595   6605     1
   6596   6604     1
   6597   6605     1
   6597   6603     1
   6601   6602     1
   6602   6613     1
   6602   6603     1
   6603   6604     1
   6604   6605     1
   6604   6613     1
   6611   6613     1
   6614   6619     1
   6614   6626     1
   6614   6624     1
   6615   6634     1
   6615   6620     1
   6615   6625     1
   6618   6628     1
   6618   6636     1
   6618   6624     1
   6619   6627     1
   6620   6626     1
   6620   6628     1
   6624   6625     1
   6625   6626     1
   6625   6636     1
   6626   6627     1
   6627   6628     1
   6627   6636     1
   6634   6636     1
   6637   6642     1
   6637   6649     1
   6637   6647     1
   6638   6643     1
   6638   6648     1
   6638   6657     1
   6641   6647     1
   6641   6659     1
   6641   6651     1
   6642   6650     1
   6643   6651     1
   6643   6649     1
   6647   6648     1
   6648   6659     1
   6648   6649     1
   6649   6650     1
   6650   6651     1
   6650   6659     1
   6657   6659     1
   6660   6665     1
   6660   6672     1
   6660   6670     1
   6661   6680     1
   6661   6666     1
   6661   6671     1
   6664   6674     1
   6664   6682     1
   6664   6670     1
   6665   6673     1
   6666   6672     1
   6666   6674     1
   6670   6671     1
   6671   6672     1
   6671   6682     1
   6672   6673     1
   6673   6674     1
   6673   6682     1
   6680   6682     1
   6683   6688     1
   6683   6695     1
   6683   6693     1
   6684   6689     1
   6684   6694     1
   6684   6703     1
   6687   6693     1
   6687   6705     1
   6687   6697     1
   6688   6696     1
   6689   6697     1
   6689   6695     1
   6693   6694     1
   6694   6705     1
   6694   6695     1
   6695   6696     1
   6696   6697     1
   6696   6705     1
   6703   6705     1
   6706   6711     1
   6706   6718     1
   6706   6716     1
   6707   6726     1
   6707   6712     1
   6707   6717     1
   6710   6720     1
   6710   6728     1
   6710   6716     1
   6711   6719     1
   6712   6718     1
   6712   6720     1
   6716   6717     1
   6717   6718     1
   6717   6728     1
   6718   6719     1
   6719   6720     1
   6719   6728     1
   6726   6728     1
   6729   6734     1
   6729   6741     1
   6729   6739     1
   6730   6735     1
   6730   6740     1
   6730   6749     1
   6733   6739     1
   6733   6751     1
   6733   6743     1
   6734   6742     1
   6735   6743     1
   6735   6741     1
   6739   6740     1
   6740   6751     1
   6740   6741     1
   6741   6742     1
   6742   6743     1
   6742   6751     1
   6749   6751     1
   6752   6757     1
   6752   6764     1
   6752   6762     1
   6753   6772     1
   6753   6758     1
   6753   6763     1
   6756   6766     1
   6756   6774     1
   6756   6762     1
   6757   6765     1
   6758   6764     1
   6758   6766     1
   6762   6763     1
   6763   6764     1
   6763   6774     1
   6764   6765     1
   6765   6766     1
   6765   6774     1
   6772   6774     1
   6775   6780     1
   6775   6787     1
   6775   6785     1
   6776   6781     1
   6776   6786     1
   6776   6795     1
   6779   6785     1
   6779   6797     1
   6779   6789     1
   6780   6788     1
   6781   6789     1
   6781   6787     1
   6785   6786     1
   6786   6797     1
   6786   6787     1
   6787   6788     1
   6788   6789     1
   6788   6797     1
   6795   6797     1
   6798   6803     1
   6798   6810     1
   6798   6808     1
   6799   6818     1
   6799   6804     1
   6799   6809     1
   6802   6812     1
   6802   6820     1
   6802   6808     1
   6803   6811     1
   6804   6810     1
   6804   6812     1
   6808   6809     1
   6809   6810     1
   6809   6820     1
   6810   6811     1
   6811   6812     1
   6811   6820     1
   6818   6820     1
   6821   6826     1
   6821   6833     1
   6821   6831     1
   6822   6827     1
   6822   6832     1
   6822   6841     1
   6825   6831     1
   6825   6843     1
   6825   6835     1
   6826   6834     1
   6827   6835     1
   6827   6833     1
   6831   6832     1
   6832   6843     1
   6832   6833     1
   6833   6834     1
   6834   6835     1
   6834   6843     1
   6841   6843     1
   6844   6849     1
   6844   6856     1
   6844   6854     1
   6845   6864     1
   6845   6850     1
   6845   6855     1
   6848   6858     1
   6848   6866     1
   6848   6854     1
   6849   6857     1
   6850   6856     1
   6850   6858     1
   6854   6855     1
   6855   6856     1
   6855   6866     1
   6856   6857     1
   6857   6858     1
   6857   6866     1
   6864   6866     1
   6867   6872     1
   6867   6879     1
   6867   6877     1
   6868   6873     1
   6868   6878     1
   6868   6887     1
   6871   6877     1
   6871   6889     1
   6871   6881     1
   6872   6880     1
   6873   6881     1
   6873   6879     1
   6877   6878     1
   6878   6889     1
   6878   6879     1
   6879   6880     1
   6880   6881     1
   6880   6889     1
   6887   6889     1
   6890   6895     1
   6890   6902     1
   6890   6900     1
   6891   6910     1
   6891   6896     1
   6891   6901     1
   6894   6904     1
   6894   6912     1
   6894   6900     1
   6895   6903     1
   6896   6902     1
   6896   6904     1
   6900   6901     1
   6901   6902     1
   6901   6912     1
   6902   6903     1
   6903   6904     1
   6903   6912     1
   6910   6912     1
   6913   6918     1
   6913   6925     1
   6913   6923     1
   6914   6919     1
   6914   6924     1
   6914   6933     1
   6917   6923     1
   6917   6935     1
   6917   6927     1
   6918   6926     1
   6919   6927     1
   6919   6925     1
   6923   6924     1
   6924   6935     1
   6924   6925     1
   6925   6926     1
   6926   6927     1
   6926   6935     1
   6933   6935     1
   6936   6941     1
   6936   6948     1
   6936   6946     1
   6937   6956     1
   6937   6942     1
   6937   6947     1
   6940   6950     1
   6940   6958     1
   6940   6946     1
   6941   6949     1
   6942   6948     1
   6942   6950     1
   6946   6947     1
   6947   6948     1
   6947   6958     1
   6948   6949     1
   6949   6950     1
   6949   6958     1
   6956   6958     1
   6959   6964     1
   6959   6971     1
   6959   6969     1
   6960   6965     1
   6960   6970     1
   6960   6979     1
   6963   6969     1
   6963   6981     1
   6963   6973     1
   6964   6972     1
   6965   6973     1
   6965   6971     1
   6969   6970     1
   6970   6981     1
   6970   6971     1
   6971   6972     1
   6972   6973     1
   6972   6981     1
   6979   6981     1
   6982   6987     1
   6982   6994     1
   6982   6992     1
   6983   7002     1
   6983   6988     1
   6983   6993     1
   6986   6996     1
   6986   7004     1
   6986   6992     1
   6987   6995     1
   6988   6994     1
   6988   6996     1
   6992   6993     1
   6993   6994     1
   6993   7004     1
   6994   6995     1
   6995   6996     1
   6995   7004     1
   7002   7004     1
   7005   7010     1
   7005   7017     1
   7005   7015     1
   7006   7011     1
   7006   7016     1
   7006   7025     1
   7009   7015     1
   7009   7027     1
   7009   7019     1
   7010   7018     1
   7011   7019     1
   7011   7017     1
   7015   7016     1
   7016   7027     1
   7016   7017     1
   7017   7018     1
   7018   7019     1
   7018   7027     1
   7025   7027     1
   7028   7033     1
   7028   7040     1
   7028   7038     1
   7029   7048     1
   7029   7034     1
   7029   7039     1
   7032   7042     1
   7032   7050     1
   7032   7038     1
   7033   7041     1
   7034   7040     1
   7034   7042     1
   7038   7039     1
   7039   7040     1
   7039   7050     1
   7040   7041     1
   7041   7042     1
   7041   7050     1
   7048   7050     1
   7051   7056     1
   7051   7063     1
   7051   7061     1
   7052   7057     1
   7052   7062     1
   7052   7071     1
   7055   7061     1
   7055   7073     1
   7055   7065     1
   7056   7064     1
   7057   7065     1
   7057   7063     1
   7061   7062     1
   7062   7073     1
   7062   7063     1
   7063   7064     1
   7064   7065     1
   7064   7073     1
   7071   7073     1
   7074   7079     1
   7074   7086     1
   7074   7084     1
   7075   7094     1
   7075   7080     1
   7075   7085     1
   7078   7088     1
   7078   7096     1
   7078   7084     1
   7079   7087     1
   7080   7086     1
   7080   7088     1
   7084   7085     1
   7085   7086     1
   7085   7096     1
   7086   7087     1
   7087   7088     1
   7087   7096     1
   7094   7096     1
   7097   7102     1
   7097   7109     1
   7097   7107     1
   7098   7103     1
   7098   7108     1
   7098   7117     1
   7101   7107     1
   7101   7119     1
   7101   7111     1
   7102   7110     1
   7103   7111     1
   7103   7109     1
   7107   7108     1
   7108   7119     1
   7108   7109     1
   7109   7110     1
   7110   7111     1
   7110   7119     1
   7117   7119     1
   7120   7125     1
   7120   7132     1
   7120   7130     1
   7121   7140     1
   7121   7126     1
   7121   7131     1
   7124   7134     1
   7124   7142     1
   7124   7130     1
   7125   7133     1
   7126   7132     1
   7126   7134     1
   7130   7131     1
   7131   7132     1
   7131   7142     1
   7132   7133     1
   7133   7134     1
   7133   7142     1
   7140   7142     1
   7143   7148     1
   7143   7155     1
   7143   7153     1
   7144   7149     1
   7144   7154     1
   7144   7163     1
   7147   7153     1
   7147   7165     1
   7147   7157     1
   7148   7156     1
   7149   7157     1
   7149   7155     1
   7153   7154     1
   7154   7165     1
   7154   7155     1
   7155   7156     1
   7156   7157     1
   7156   7165     1
   7163   7165     1
   7166   7171     1
   7166   7178     1
   7166   7176     1
   7167   7186     1
   7167   7172     1
   7167   7177     1
   7170   7180     1
   7170   7188     1
   7170   7176     1
   7171   7179     1
   7172   7178     1
   7172   7180     1
   7176   7177     1
   7177   7178     1
   7177   7188     1
   7178   7179     1
   7179   7180     1
   7179   7188     1
   7186   7188     1
   7189   7194     1
   7189   7201     1
   7189   7199     1
   7190   7195     1
   7190   7200     1
   7190   7209     1
   7193   7199     1
   7193   7211     1
   7193   7203     1
   7194   7202     1
   7195   7203     1
   7195   7201     1
   7199   7200     1
   7200   7211     1
   7200   7201     1
   7201   7202     1
   7202   7203     1
   7202   7211     1
   7209   7211     1
   7212   7217     1
   7212   7224     1
   7212   7222     1
   7213   7232     1
   7213   7218     1
   7213   7223     1
   7216   7226     1
   7216   7234     1
   7216   7222     1
   7217   7225     1
   7218   7224     1
   7218   7226     1
   7222   7223     1
   7223   7224     1
   7223   7234     1
   7224   7225     1
   7225   7226     1
   7225   7234     1
   7232   7234     1
   7235   7240     1
   7235   7247     1
   7235   7245     1
   7236   7241     1
   7236   7246     1
   7236   7255     1
   7239   7245     1
   7239   7257     1
   7239   7249     1
   7240   7248     1
   7241   7249     1
   7241   7247     1
   7245   7246     1
   7246   7257     1
   7246   7247     1
   7247   7248     1
   7248   7249     1
   7248   7257     1
   7255   7257     1
   7258   7263     1
   7258   7270     1
   7258   7268     1
   7259   7278     1
   7259   7264     1
   7259   7269     1
   7262   7272     1
   7262   7280     1
   7262   7268     1
   7263   7271     1
   7264   7270     1
   7264   7272     1
   7268   7269     1
   7269   7270     1
   7269   7280     1
   7270   7271     1
   7271   7272     1
   7271   7280     1
   7278   7280     1
   7281   7286     1
   7281   7293     1
   7281   7291     1
   7282   7287     1
   7282   7292     1
   7282   7301     1
   7285   7291     1
   7285   7303     1
   7285   7295     1
   7286   7294     1
   7287   7295     1
   7287   7293     1
   7291   7292     1
   7292   7303     1
   7292   7293     1
   7293   7294     1
   7294   7295     1
   7294   7303     1
   7301   7303     1
   7304   7309     1
   7304   7316     1
   7304   7314     1
   7305   7324     1
   7305   7310     1
   7305   7315     1
   7308   7318     1
   7308   7326     1
   7308   7314     1
   7309   7317     1
   7310   7316     1
   7310   7318     1
   7314   7315     1
   7315   7316     1
   7315   7326     1
   7316   7317     1
   7317   7318     1
   7317   7326     1
   7324   7326     1
   7327   7332     1
   7327   7339     1
   7327   7337     1
   7328   7333     1
   7328   7338     1
   7328   7347     1
   7331   7337     1
   7331   7349     1
   7331   7341     1
   7332   7340     1
   7333   7341     1
   7333   7339     1
   7337   7338     1
   7338   7349     1
   7338   7339     1
   7339   7340     1
   7340   7341     1
   7340   7349     1
   7347   7349     1
   7350   7355     1
   7350   7362     1
   7350   7360     1
   7351   7370     1
   7351   7356     1
   7351   7361     1
   7354   7364     1
   7354   7372     1
   7354   7360     1
   7355   7363     1
   7356   7362     1
   7356   7364     1
   7360   7361     1
   7361   7362     1
   7361   7372     1
   7362   7363     1
   7363   7364     1
   7363   7372     1
   7370   7372     1
   7373   7378     1
   7373   7385     1
   7373   7383     1
   7374   7379     1
   7374   7384     1
   7374   7393     1
   7377   7383     1
   7377   7395     1
   7377   7387     1
   7378   7386     1
   7379   7387     1
   7379   7385     1
   7383   7384     1
   7384   7395     1
   7384   7385     1
   7385   7386     1
   7386   7387     1
   7386   7395     1
   7393   7395     1
   7396   7401     1
   7396   7408     1
   7396   7406     1
   7397   7416     1
   7397   7402     1
   7397   7407     1
   7400   7410     1
   7400   7418     1
   7400   7406     1
   7401   7409     1
   7402   7408     1
   7402   7410     1
   7406   7407     1
   7407   7408     1
   7407   7418     1
   7408   7409     1
   7409   7410     1
   7409   7418     1
   7416   7418     1
   7419   7424     1
   7419   7431     1
   7419   7429     1
   7420   7425     1
   7420   7430     1
   7420   7439     1
   7423   7429     1
   7423   7441     1
   7423   7433     1
   7424   7432     1
   7425   7433     1
   7425   7431     1
   7429   7430     1
   7430   7441     1
   7430   7431     1
   7431   7432     1
   7432   7433     1
   7432   7441     1
   7439   7441     1
   7442   7447     1
   7442   7454     1
   7442   7452     1
   7443   7462     1
   7443   7448     1
   7443   7453     1
   7446   7456     1
   7446   7464     1
   7446   7452     1
   7447   7455     1
   7448   7454     1
   7448   7456     1
   7452   7453     1
   7453   7454     1
   7453   7464     1
   7454   7455     1
   7455   7456     1
   7455   7464     1
   7462   7464     1
   7465   7470     1
   7465   7477     1
   7465   7475     1
   7466   7471     1
   7466   7476     1
   7466   7485     1
   7469   7475     1
   7469   7487     1
   7469   7479     1
   7470   7478     1
   7471   7479     1
   7471   7477     1
   7475   7476     1
   7476   7487     1
   7476   7477     1
   7477   7478     1
   7478   7479     1
   7478   7487     1
   7485   7487     1
   7488   7493     1
   7488   7500     1
   7488   7498     1
   7489   7508     1
   7489   7494     1
   7489   7499     1
   7492   7502     1
   7492   7510     1
   7492   7498     1
   7493   7501     1
   7494   7500     1
   7494   7502     1
   7498   7499     1
   7499   7500     1
   7499   7510     1
   7500   7501     1
   7501   7502     1
   7501   7510     1
   7508   7510     1
   7511   7516     1
   7511   7523     1
   7511   7521     1
   7512   7517     1
   7512   7522     1
   7512   7531     1
   7515   7521     1
   7515   7533     1
   7515   7525     1
   7516   7524     1
   7517   7525     1
   7517   7523     1
   7521   7522     1
   7522   7533     1
   7522   7523     1
   7523   7524     1
   7524   7525     1
   7524   7533     1
   7531   7533     1
   7534   7539     1
   7534   7546     1
   7534   7544     1
   7535   7554     1
   7535   7540     1
   7535   7545     1
   7538   7548     1
   7538   7556     1
   7538   7544     1
   7539   7547     1
   7540   7546     1
   7540   7548     1
   7544   7545     1
   7545   7546     1
   7545   7556     1
   7546   7547     1
   7547   7548     1
   7547   7556     1
   7554   7556     1
   7557   7562     1
   7557   7569     1
   7557   7567     1
   7558   7563     1
   7558   7568     1
   7558   7577     1
   7561   7567     1
   7561   7579     1
   7561   7571     1
   7562   7570     1
   7563   7571     1
   7563   7569     1
   7567   7568     1
   7568   7579     1
   7568   7569     1
   7569   7570     1
   7570   7571     1
   7570   7579     1
   7577   7579     1
   7580   7585     1
   7580   7592     1
   7580   7590     1
   7581   7600     1
   7581   7586     1
   7581   7591     1
   7584   7594     1
   7584   7602     1
   7584   7590     1
   7585   7593     1
   7586   7592     1
   7586   7594     1
   7590   7591     1
   7591   7592     1
   7591   7602     1
   7592   7593     1
   7593   7594     1
   7593   7602     1
   7600   7602     1
   7603   7608     1
   7603   7615     1
   7603   7613     1
   7604   7609     1
   7604   7614     1
   7604   7623     1
   7607   7613     1
   7607   7625     1
   7607   7617     1
   7608   7616     1
   7609   7617     1
   7609   7615     1
   7613   7614     1
   7614   7625     1
   7614   7615     1
   7615   7616     1
   7616   7617     1
   7616   7625     1
   7623   7625     1
   7626   7631     1
   7626   7638     1
   7626   7636     1
   7627   7646     1
   7627   7632     1
   7627   7637     1
   7630   7640     1
   7630   7648     1
   7630   7636     1
   7631   7639     1
   7632   7638     1
   7632   7640     1
   7636   7637     1
   7637   7638     1
   7637   7648     1
   7638   7639     1
   7639   7640     1
   7639   7648     1
   7646   7648     1
   7649   7654     1
   7649   7661     1
   7649   7659     1
   7650   7655     1
   7650   7660     1
   7650   7669     1
   7653   7659     1
   7653   7671     1
   7653   7663     1
   7654   7662     1
   7655   7663     1
   7655   7661     1
   7659   7660     1
   7660   7671     1
   7660   7661     1
   7661   7662     1
   7662   7663     1
   7662   7671     1
   7669   7671     1
   7672   7677     1
   7672   7684     1
   7672   7682     1
   7673   7692     1
   7673   7678     1
   7673   7683     1
   7676   7686     1
   7676   7694     1
   7676   7682     1
   7677   7685     1
   7678   7684     1
   7678   7686     1
   7682   7683     1
   7683   7684     1
   7683   7694     1
   7684   7685     1
   7685   7686     1
   7685   7694     1
   7692   7694     1
   7695   7700     1
   7695   7707     1
   7695   7705     1
   7696   7701     1
   7696   7706     1
   7696   7715     1
   7699   7705     1
   7699   7717     1
   7699   7709     1
   7700   7708     1
   7701   7709     1
   7701   7707     1
   7705   7706     1
   7706   7717     1
   7706   7707     1
   7707   7708     1
   7708   7709     1
   7708   7717     1
   7715   7717     1
   7718   7723     1
   7718   7730     1
   7718   7728     1
   7719   7738     1
   7719   7724     1
   7719   7729     1
   7722   7732     1
   7722   7740     1
   7722   7728     1
   7723   7731     1
   7724   7730     1
   7724   7732     1
   7728   7729     1
   7729   7730     1
   7729   7740     1
   7730   7731     1
   7731   7732     1
   7731   7740     1
   7738   7740     1
   7741   7746     1
   7741   7753     1
   7741   7751     1
   7742   7747     1
   7742   7752     1
   7742   7761     1
   7745   7751     1
   7745   7763     1
   7745   7755     1
   7746   7754     1
   7747   7755     1
   7747   7753     1
   7751   7752     1
   7752   7763     1
   7752   7753     1
   7753   7754     1
   7754   7755     1
   7754   7763     1
   7761   7763     1
   7764   7769     1
   7764   7776     1
   7764   7774     1
   7765   7784     1
   7765   7770     1
   7765   7775     1
   7768   7778     1
   7768   7786     1
   7768   7774     1
   7769   7777     1
   7770   7776     1
   7770   7778     1
   7774   7775     1
   7775   7776     1
   7775   7786     1
   7776   7777     1
   7777   7778     1
   7777   7786     1
   7784   7786     1
   7787   7792     1
   7787   7799     1
   7787   7797     1
   7788   7793     1
   7788   7798     1
   7788   7807     1
   7791   7797     1
   7791   7809     1
   7791   7801     1
   7792   7800     1
   7793   7801     1
   7793   7799     1
   7797   7798     1
   7798   7809     1
   7798   7799     1
   7799   7800     1
   7800   7801     1
   7800   7809     1
   7807   7809     1
   7810   7815     1
   7810   7822     1
   7810   7820     1
   7811   7830     1
   7811   7816     1
   7811   7821     1
   7814   7824     1
   7814   7832     1
   7814   7820     1
   7815   7823     1
   7816   7822     1
   7816   7824     1
   7820   7821     1
   7821   7822     1
   7821   7832     1
   7822   7823     1
   7823   7824     1
   7823   7832     1
   7830   7832     1
   7833   7838     1
   7833   7845     1
   7833   7843     1
   7834   7839     1
   7834   7844     1
   7834   7853     1
   7837   7843     1
   7837   7855     1
   7837   7847     1
   7838   7846     1
   7839   7847     1
   7839   7845     1
   7843   7844     1
   7844   7855     1
   7844   7845     1
   7845   7846     1
   7846   7847     1
   7846   7855     1
   7853   7855     1
   7856   7861     1
   7856   7868     1
   7856   7866     1
   7857   7876     1
   7857   7862     1
   7857   7867     1
   7860   7870     1
   7860   7878     1
   7860   7866     1
   7861   7869     1
   7862   7868     1
   7862   7870     1
   7866   7867     1
   7867   7868     1
   7867   7878     1
   7868   7869     1
   7869   7870     1
   7869   7878     1
   7876   7878     1
   7879   7884     1
   7879   7891     1
   7879   7889     1
   7880   7885     1
   7880   7890     1
   7880   7899     1
   7883   7889     1
   7883   7901     1
   7883   7893     1
   7884   7892     1
   7885   7893     1
   7885   7891     1
   7889   7890     1
   7890   7901     1
   7890   7891     1
   7891   7892     1
   7892   7893     1
   7892   7901     1
   7899   7901     1
   7902   7907     1
   7902   7914     1
   7902   7912     1
   7903   7922     1
   7903   7908     1
   7903   7913     1
   7906   7916     1
   7906   7924     1
   7906   7912     1
   7907   7915     1
   7908   7914     1
   7908   7916     1
   7912   7913     1
   7913   7914     1
   7913   7924     1
   7914   7915     1
   7915   7916     1
   7915   7924     1
   7922   7924     1
   7925   7930     1
   7925   7937     1
   7925   7935     1
   7926   7931     1
   7926   7936     1
   7926   7945     1
   7929   7935     1
   7929   7947     1
   7929   7939     1
   7930   7938     1
   7931   7939     1
   7931   7937     1
   7935   7936     1
   7936   7947     1
   7936   7937     1
   7937   7938     1
   7938   7939     1
   7938   7947     1
   7945   7947     1
   7948   7953     1
   7948   7960     1
   7948   7958     1
   7949   7968     1
   7949   7954     1
   7949   7959     1
   7952   7962     1
   7952   7970     1
   7952   7958     1
   7953   7961     1
   7954   7960     1
   7954   7962     1
   7958   7959     1
   7959   7960     1
   7959   7970     1
   7960   7961     1
   7961   7962     1
   7961   7970     1
   7968   7970     1
   7971   7976     1
   7971   7983     1
   7971   7981     1
   7972   7977     1
   7972   7982     1
   7972   7991     1
   7975   7981     1
   7975   7993     1
   7975   7985     1
   7976   7984     1
   7977   7985     1
   7977   7983     1
   7981   7982     1
   7982   7993     1
   7982   7983     1
   7983   7984     1
   7984   7985     1
   7984   7993     1
   7991   7993     1
   7994   7999     1
   7994   8006     1
   7994   8004     1
   7995   8014     1
   7995   8000     1
   7995   8005     1
   7998   8008     1
   7998   8016     1
   7998   8004     1
   7999   8007     1
   8000   8006     1
   8000   8008     1
   8004   8005     1
   8005   8006     1
   8005   8016     1
   8006   8007     1
   8007   8008     1
   8007   8016     1
   8014   8016     1
   8017   8022     1
   8017   8029     1
   8017   8027     1
   8018   8023     1
   8018   8028     1
   8018   8037     1
   8021   8027     1
   8021   8039     1
   8021   8031     1
   8022   8030     1
   8023   8031     1
   8023   8029     1
   8027   8028     1
   8028   8039     1
   8028   8029     1
   8029   8030     1
   8030   8031     1
   8030   8039     1
   8037   8039     1
   8040   8045     1
   8040   8052     1
   8040   8050     1
   8041   8060     1
   8041   8046     1
   8041   8051     1
   8044   8054     1
   8044   8062     1
   8044   8050     1
   8045   8053     1
   8046   8052     1
   8046   8054     1
   8050   8051     1
   8051   8052     1
   8051   8062     1
   8052   8053     1
   8053   8054     1
   8053   8062     1
   8060   8062     1
   8063   8068     1
   8063   8075     1
   8063   8073     1
   8064   8069     1
   8064   8074     1
   8064   8083     1
   8067   8073     1
   8067   8085     1
   8067   8077     1
   8068   8076     1
   8069   8077     1
   8069   8075     1
   8073   8074     1
   8074   8085     1
   8074   8075     1
   8075   8076     1
   8076   8077     1
   8076   8085     1
   8083   8085     1
   8086   8091     1
   8086   8098     1
   8086   8096     1
   8087   8106     1
   8087   8092     1
   8087   8097     1
   8090   8100     1
   8090   8108     1
   8090   8096     1
   8091   8099     1
   8092   8098     1
   8092   8100     1
   8096   8097     1
   8097   8098     1
   8097   8108     1
   8098   8099     1
   8099   8100     1
   8099   8108     1
   8106   8108     1
   8109   8114     1
   8109   8121     1
   8109   8119     1
   8110   8115     1
   8110   8120     1
   8110   8129     1
   8113   8119     1
   8113   8131     1
   8113   8123     1
   8114   8122     1
   8115   8123     1
   8115   8121     1
   8119   8120     1
   8120   8131     1
   8120   8121     1
   8121   8122     1
   8122   8123     1
   8122   8131     1
   8129   8131     1
   8132   8137     1
   8132   8144     1
   8132   8142     1
   8133   8152     1
   8133   8138     1
   8133   8143     1
   8136   8146     1
   8136   8154     1
   8136   8142     1
   8137   8145     1
   8138   8144     1
   8138   8146     1
   8142   8143     1
   8143   8144     1
   8143   8154     1
   8144   8145     1
   8145   8146     1
   8145   8154     1
   8152   8154     1
   8155   8160     1
   8155   8167     1
   8155   8165     1
   8156   8161     1
   8156   8166     1
   8156   8175     1
   8159   8165     1
   8159   8177     1
   8159   8169     1
   8160   8168     1
   8161   8169     1
   8161   8167     1
   8165   8166     1
   8166   8177     1
   8166   8167     1
   8167   8168     1
   8168   8169     1
   8168   8177     1
   8175   8177     1
   8178   8183     1
   8178   8190     1
   8178   8188     1
   8179   8198     1
   8179   8184     1
   8179   8189     1
   8182   8192     1
   8182   8200     1
   8182   8188     1
   8183   8191     1
   8184   8190     1
   8184   8192     1
   8188   8189     1
   8189   8190     1
   8189   8200     1
   8190   8191     1
   8191   8192     1
   8191   8200     1
   8198   8200     1
   8201   8206     1
   8201   8213     1
   8201   8211     1
   8202   8207     1
   8202   8212     1
   8202   8221     1
   8205   8211     1
   8205   8223     1
   8205   8215     1
   8206   8214     1
   8207   8215     1
   8207   8213     1
   8211   8212     1
   8212   8223     1
   8212   8213     1
   8213   8214     1
   8214   8215     1
   8214   8223     1
   8221   8223     1
   8224   8229     1
   8224   8236     1
   8224   8234     1
   8225   8244     1
   8225   8230     1
   8225   8235     1
   8228   8238     1
   8228   8246     1
   8228   8234     1
   8229   8237     1
   8230   8236     1
   8230   8238     1
   8234   8235     1
   8235   8236     1
   8235   8246     1
   8236   8237     1
   8237   8238     1
   8237   8246     1
   8244   8246     1
   8247   8252     1
   8247   8259     1
   8247   8257     1
   8248   8253     1
   8248   8258     1
   8248   8267     1
   8251   8257     1
   8251   8269     1
   8251   8261     1
   8252   8260     1
   8253   8261     1
   8253   8259     1
   8257   8258     1
   8258   8269     1
   8258   8259     1
   8259   8260     1
   8260   8261     1
   8260   8269     1
   8267   8269     1
   8270   8275     1
   8270   8282     1
   8270   8280     1
   8271   8290     1
   8271   8276     1
   8271   8281     1
   8274   8284     1
   8274   8292     1
   8274   8280     1
   8275   8283     1
   8276   8282     1
   8276   8284     1
   8280   8281     1
   8281   8282     1
   8281   8292     1
   8282   8283     1
   8283   8284     1
   8283   8292     1
   8290   8292     1
   8293   8298     1
   8293   8305     1
   8293   8303     1
   8294   8299     1
   8294   8304     1
   8294   8313     1
   8297   8303     1
   8297   8315     1
   8297   8307     1
   8298   8306     1
   8299   8307     1
   8299   8305     1
   8303   8304     1
   8304   8315     1
   8304   8305     1
   8305   8306     1
   8306   8307     1
   8306   8315     1
   8313   8315     1
   8316   8321     1
   8316   8328     1
   8316   8326     1
   8317   8336     1
   8317   8322     1
   8317   8327     1
   8320   8330     1
   8320   8338     1
   8320   8326     1
   8321   8329     1
   8322   8328     1
   8322   8330     1
   8326   8327     1
   8327   8328     1
   8327   8338     1
   8328   8329     1
   8329   8330     1
   8329   8338     1
   8336   8338     1
   8339   8344     1
   8339   8351     1
   8339   8349     1
   8340   8345     1
   8340   8350     1
   8340   8359     1
   8343   8349     1
   8343   8361     1
   8343   8353     1
   8344   8352     1
   8345   8353     1
   8345   8351     1
   8349   8350     1
   8350   8361     1
   8350   8351     1
   8351   8352     1
   8352   8353     1
   8352   8361     1
   8359   8361     1
   8362   8367     1
   8362   8374     1
   8362   8372     1
   8363   8382     1
   8363   8368     1
   8363   8373     1
   8366   8376     1
   8366   8384     1
   8366   8372     1
   8367   8375     1
   8368   8374     1
   8368   8376     1
   8372   8373     1
   8373   8374     1
   8373   8384     1
   8374   8375     1
   8375   8376     1
   8375   8384     1
   8382   8384     1
   8385   8390     1
   8385   8397     1
   8385   8395     1
   8386   8391     1
   8386   8396     1
   8386   8405     1
   8389   8395     1
   8389   8407     1
   8389   8399     1
   8390   8398     1
   8391   8399     1
   8391   8397     1
   8395   8396     1
   8396   8407     1
   8396   8397     1
   8397   8398     1
   8398   8399     1
   8398   8407     1
   8405   8407     1
   8408   8413     1
   8408   8420     1
   8408   8418     1
   8409   8428     1
   8409   8414     1
   8409   8419     1
   8412   8422     1
   8412   8430     1
   8412   8418     1
   8413   8421     1
   8414   8420     1
   8414   8422     1
   8418   8419     1
   8419   8420     1
   8419   8430     1
   8420   8421     1
   8421   8422     1
   8421   8430     1
   8428   8430     1
   8431   8436     1
   8431   8443     1
   8431   8441     1
   8432   8437     1
   8432   8442     1
   8432   8451     1
   8435   8441     1
   8435   8453     1
   8435   8445     1
   8436   8444     1
   8437   8445     1
   8437   8443     1
   8441   8442     1
   8442   8453     1
   8442   8443     1
   8443   8444     1
   8444   8445     1
   8444   8453     1
   8451   8453     1
   8454   8459     1
   8454   8466     1
   8454   8464     1
   8455   8474     1
   8455   8460     1
   8455   8465     1
   8458   8468     1
   8458   8476     1
   8458   8464     1
   8459   8467     1
   8460   8466     1
   8460   8468     1
   8464   8465     1
   8465   8466     1
   8465   8476     1
   8466   8467     1
   8467   8468     1
   8467   8476     1
   8474   8476     1
   8477   8482     1
   8477   8489     1
   8477   8487     1
   8478   8483     1
   8478   8488     1
   8478   8497     1
   8481   8487     1
   8481   8499     1
   8481   8491     1
   8482   8490     1
   8483   8491     1
   8483   8489     1
   8487   8488     1
   8488   8499     1
   8488   8489     1
   8489   8490     1
   8490   8491     1
   8490   8499     1
   8497   8499     1
   8500   8505     1
   8500   8512     1
   8500   8510     1
   8501   8520     1
   8501   8506     1
   8501   8511     1
   8504   8514     1
   8504   8522     1
   8504   8510     1
   8505   8513     1
   8506   8512     1
   8506   8514     1
   8510   8511     1
   8511   8512     1
   8511   8522     1
   8512   8513     1
   8513   8514     1
   8513   8522     1
   8520   8522     1
   8523   8528     1
   8523   8535     1
   8523   8533     1
   8524   8529     1
   8524   8534     1
   8524   8543     1
   8527   8533     1
   8527   8545     1
   8527   8537     1
   8528   8536     1
   8529   8537     1
   8529   8535     1
   8533   8534     1
   8534   8545     1
   8534   8535     1
   8535   8536     1
   8536   8537     1
   8536   8545     1
   8543   8545     1
   8546   8551     1
   8546   8558     1
   8546   8556     1
   8547   8566     1
   8547   8552     1
   8547   8557     1
   8550   8560     1
   8550   8568     1
   8550   8556     1
   8551   8559     1
   8552   8558     1
   8552   8560     1
   8556   8557     1
   8557   8558     1
   8557   8568     1
   8558   8559     1
   8559   8560     1
   8559   8568     1
   8566   8568     1
   8569   8574     1
   8569   8581     1
   8569   8579     1
   8570   8575     1
   8570   8580     1
   8570   8589     1
   8573   8579     1
   8573   8591     1
   8573   8583     1
   8574   8582     1
   8575   8583     1
   8575   8581     1
   8579   8580     1
   8580   8591     1
   8580   8581     1
   8581   8582     1
   8582   8583     1
   8582   8591     1
   8589   8591     1
   8592   8597     1
   8592   8604     1
   8592   8602     1
   8593   8612     1
   8593   8598     1
   8593   8603     1
   8596   8606     1
   8596   8614     1
   8596   8602     1
   8597   8605     1
   8598   8604     1
   8598   8606     1
   8602   8603     1
   8603   8604     1
   8603   8614     1
   8604   8605     1
   8605   8606     1
   8605   8614     1
   8612   8614     1
   8615   8620     1
   8615   8627     1
   8615   8625     1
   8616   8621     1
   8616   8626     1
   8616   8635     1
   8619   8625     1
   8619   8637     1
   8619   8629     1
   8620   8628     1
   8621   8629     1
   8621   8627     1
   8625   8626     1
   8626   8637     1
   8626   8627     1
   8627   8628     1
   8628   8629     1
   8628   8637     1
   8635   8637     1
   8638   8643     1
   8638   8650     1
   8638   8648     1
   8639   8658     1
   8639   8644     1
   8639   8649     1
   8642   8652     1
   8642   8660     1
   8642   8648     1
   8643   8651     1
   8644   8650     1
   8644   8652     1
   8648   8649     1
   8649   8650     1
   8649   8660     1
   8650   8651     1
   8651   8652     1
   8651   8660     1
   8658   8660     1
   8661   8666     1
   8661   8673     1
   8661   8671     1
   8662   8667     1
   8662   8672     1
   8662   8681     1
   8665   8671     1
   8665   8683     1
   8665   8675     1
   8666   8674     1
   8667   8675     1
   8667   8673     1
   8671   8672     1
   8672   8683     1
   8672   8673     1
   8673   8674     1
   8674   8675     1
   8674   8683     1
   8681   8683     1
   8684   8689     1
   8684   8696     1
   8684   8694     1
   8685   8704     1
   8685   8690     1
   8685   8695     1
   8688   8698     1
   8688   8706     1
   8688   8694     1
   8689   8697     1
   8690   8696     1
   8690   8698     1
   8694   8695     1
   8695   8696     1
   8695   8706     1
   8696   8697     1
   8697   8698     1
   8697   8706     1
   8704   8706     1
   8707   8712     1
   8707   8719     1
   8707   8717     1
   8708   8713     1
   8708   8718     1
   8708   8727     1
   8711   8717     1
   8711   8729     1
   8711   8721     1
   8712   8720     1
   8713   8721     1
   8713   8719     1
   8717   8718     1
   8718   8729     1
   8718   8719     1
   8719   8720     1
   8720   8721     1
   8720   8729     1
   8727   8729     1
   8730   8735     1
   8730   8742     1
   8730   8740     1
   8731   8750     1
   8731   8736     1
   8731   8741     1
   8734   8744     1
   8734   8752     1
   8734   8740     1
   8735   8743     1
   8736   8742     1
   8736   8744     1
   8740   8741     1
   8741   8742     1
   8741   8752     1
   8742   8743     1
   8743   8744     1
   8743   8752     1
   8750   8752     1
   8753   8758     1
   8753   8765     1
   8753   8763     1
   8754   8759     1
   8754   8764     1
   8754   8773     1
   8757   8763     1
   8757   8775     1
   8757   8767     1
   8758   8766     1
   8759   8767     1
   8759   8765     1
   8763   8764     1
   8764   8775     1
   8764   8765     1
   8765   8766     1
   8766   8767     1
   8766   8775     1
   8773   8775     1
   8776   8781     1
   8776   8788     1
   8776   8786     1
   8777   8796     1
   8777   8782     1
   8777   8787     1
   8780   8790     1
   8780   8798     1
   8780   8786     1
   8781   8789     1
   8782   8788     1
   8782   8790     1
   8786   8787     1
   8787   8788     1
   8787   8798     1
   8788   8789     1
   8789   8790     1
   8789   8798     1
   8796   8798     1
   8799   8804     1
   8799   8811     1
   8799   8809     1
   8800   8805     1
   8800   8810     1
   8800   8819     1
   8803   8809     1
   8803   8821     1
   8803   8813     1
   8804   8812     1
   8805   8813     1
   8805   8811     1
   8809   8810     1
   8810   8821     1
   8810   8811     1
   8811   8812     1
   8812   8813     1
   8812   8821     1
   8819   8821     1
   8822   8827     1
   8822   8834     1
   8822   8832     1
   8823   8842     1
   8823   8828     1
   8823   8833     1
   8826   8836     1
   8826   8844     1
   8826   8832     1
   8827   8835     1
   8828   8834     1
   8828   8836     1
   8832   8833     1
   8833   8834     1
   8833   8844     1
   8834   8835     1
   8835   8836     1
   8835   8844     1
   8842   8844     1
   8845   8850     1
   8845   8857     1
   8845   8855     1
   8846   8851     1
   8846   8856     1
   8846   8865     1
   8849   8855     1
   8849   8867     1
   8849   8859     1
   8850   8858     1
   8851   8859     1
   8851   8857     1
   8855   8856     1
   8856   8867     1
   8856   8857     1
   8857   8858     1
   8858   8859     1
   8858   8867     1
   8865   8867     1
   8868   8873     1
   8868   8880     1
   8868   8878     1
   8869   8888     1
   8869   8874     1
   8869   8879     1
   8872   8882     1
   8872   8890     1
   8872   8878     1
   8873   8881     1
   8874   8880     1
   8874   8882     1
   8878   8879     1
   8879   8880     1
   8879   8890     1
   8880   8881     1
   8881   8882     1
   8881   8890     1
   8888   8890     1
   8891   8896     1
   8891   8903     1
   8891   8901     1
   8892   8897     1
   8892   8902     1
   8892   8911     1
   8895   8901     1
   8895   8913     1
   8895   8905     1
   8896   8904     1
   8897   8905     1
   8897   8903     1
   8901   8902     1
   8902   8913     1
   8902   8903     1
   8903   8904     1
   8904   8905     1
   8904   8913     1
   8911   8913     1
   8914   8919     1
   8914   8926     1
   8914   8924     1
   8915   8934     1
   8915   8920     1
   8915   8925     1
   8918   8928     1
   8918   8936     1
   8918   8924     1
   8919   8927     1
   8920   8926     1
   8920   8928     1
   8924   8925     1
   8925   8926     1
   8925   8936     1
   8926   8927     1
   8927   8928     1
   8927   8936     1
   8934   8936     1
   8937   8942     1
   8937   8949     1
   8937   8947     1
   8938   8943     1
   8938   8948     1
   8938   8957     1
   8941   8947     1
   8941   8959     1
   8941   8951     1
   8942   8950     1
   8943   8951     1
   8943   8949     1
   8947   8948     1
   8948   8959     1
   8948   8949     1
   8949   8950     1
   8950   8951     1
   8950   8959     1
   8957   8959     1
   8960   8965     1
   8960   8972     1
   8960   8970     1
   8961   8980     1
   8961   8966     1
   8961   8971     1
   8964   8974     1
   8964   8982     1
   8964   8970     1
   8965   8973     1
   8966   8972     1
   8966   8974     1
   8970   8971     1
   8971   8972     1
   8971   8982     1
   8972   8973     1
   8973   8974     1
   8973   8982     1
   8980   8982     1
   8983   8988     1
   8983   8995     1
   8983   8993     1
   8984   8989     1
   8984   8994     1
   8984   9003     1
   8987   8993     1
   8987   9005     1
   8987   8997     1
   8988   8996     1
   8989   8997     1
   8989   8995     1
   8993   8994     1
   8994   9005     1
   8994   8995     1
   8995   8996     1
   8996   8997     1
   8996   9005     1
   9003   9005     1
   9006   9011     1
   9006   9018     1
   9006   9016     1
   9007   9026     1
   9007   9012     1
   9007   9017     1
   9010   9020     1
   9010   9028     1
   9010   9016     1
   9011   9019     1
   9012   9018     1
   9012   9020     1
   9016   9017     1
   9017   9018     1
   9017   9028     1
   9018   9019     1
   9019   9020     1
   9019   9028     1
   9026   9028     1
   9029   9034     1
   9029   9041     1
   9029   9039     1
   9030   9035     1
   9030   9040     1
   9030   9049     1
   9033   9039     1
   9033   9051     1
   9033   9043     1
   9034   9042     1
   9035   9043     1
   9035   9041     1
   9039   9040     1
   9040   9051     1
   9040   9041     1
   9041   9042     1
   9042   9043     1
   9042   9051     1
   9049   9051     1
   9052   9057     1
   9052   9064     1
   9052   9062     1
   9053   9072     1
   9053   9058     1
   9053   9063     1
   9056   9066     1
   9056   9074     1
   9056   9062     1
   9057   9065     1
   9058   9064     1
   9058   9066     1
   9062   9063     1
   9063   9064     1
   9063   9074     1
   9064   9065     1
   9065   9066     1
   9065   9074     1
   9072   9074     1
   9075   9080     1
   9075   9087     1
   9075   9085     1
   9076   9081     1
   9076   9086     1
   9076   9095     1
   9079   9085     1
   9079   9097     1
   9079   9089     1
   9080   9088     1
   9081   9089     1
   9081   9087     1
   9085   9086     1
   9086   9097     1
   9086   9087     1
   9087   9088     1
   9088   9089     1
   9088   9097     1
   9095   9097     1
   9098   9103     1
   9098   9110     1
   9098   9108     1
   9099   9118     1
   9099   9104     1
   9099   9109     1
   9102   9112     1
   9102   9120     1
   9102   9108     1
   9103   9111     1
   9104   9110     1
   9104   9112     1
   9108   9109     1
   9109   9110     1
   9109   9120     1
   9110   9111     1
   9111   9112     1
   9111   9120     1
   9118   9120     1
   9121   9126     1
   9121   9133     1
   9121   9131     1
   9122   9127     1
   9122   9132     1
   9122   9141     1
   9125   9131     1
   9125   9143     1
   9125   9135     1
   9126   9134     1
   9127   9135     1
   9127   9133     1
   9131   9132     1
   9132   9143     1
   9132   9133     1
   9133   9134     1
   9134   9135     1
   9134   9143     1
   9141   9143     1
   9144   9149     1
   9144   9156     1
   9144   9154     1
   9145   9164     1
   9145   9150     1
   9145   9155     1
   9148   9158     1
   9148   9166     1
   9148   9154     1
   9149   9157     1
   9150   9156     1
   9150   9158     1
   9154   9155     1
   9155   9156     1
   9155   9166     1
   9156   9157     1
   9157   9158     1
   9157   9166     1
   9164   9166     1
   9167   9172     1
   9167   9179     1
   9167   9177     1
   9168   9173     1
   9168   9178     1
   9168   9187     1
   9171   9177     1
   9171   9189     1
   9171   9181     1
   9172   9180     1
   9173   9181     1
   9173   9179     1
   9177   9178     1
   9178   9189     1
   9178   9179     1
   9179   9180     1
   9180   9181     1
   9180   9189     1
   9187   9189     1
   9190   9195     1
   9190   9202     1
   9190   9200     1
   9191   9210     1
   9191   9196     1
   9191   9201     1
   9194   9204     1
   9194   9212     1
   9194   9200     1
   9195   9203     1
   9196   9202     1
   9196   9204     1
   9200   9201     1
   9201   9202     1
   9201   9212     1
   9202   9203     1
   9203   9204     1
   9203   9212     1
   9210   9212     1
   9213   9218     1
   9213   9225     1
   9213   9223     1
   9214   9219     1
   9214   9224     1
   9214   9233     1
   9217   9223     1
   9217   9235     1
   9217   9227     1
   9218   9226     1
   9219   9227     1
   9219   9225     1
   9223   9224     1
   9224   9235     1
   9224   9225     1
   9225   9226     1
   9226   9227     1
   9226   9235     1
   9233   9235     1
   9236   9241     1
   9236   9248     1
   9236   9246     1
   9237   9256     1
   9237   9242     1
   9237   9247     1
   9240   9250     1
   9240   9258     1
   9240   9246     1
   9241   9249     1
   9242   9248     1
   9242   9250     1
   9246   9247     1
   9247   9248     1
   9247   9258     1
   9248   9249     1
   9249   9250     1
   9249   9258     1
   9256   9258     1
   9259   9264     1
   9259   9271     1
   9259   9269     1
   9260   9265     1
   9260   9270     1
   9260   9279     1
   9263   9269     1
   9263   9281     1
   9263   9273     1
   9264   9272     1
   9265   9273     1
   9265   9271     1
   9269   9270     1
   9270   9281     1
   9270   9271     1
   9271   9272     1
   9272   9273     1
   9272   9281     1
   9279   9281     1
   9282   9287     1
   9282   9294     1
   9282   9292     1
   9283   9302     1
   9283   9288     1
   9283   9293     1
   9286   9296     1
   9286   9304     1
   9286   9292     1
   9287   9295     1
   9288   9294     1
   9288   9296     1
   9292   9293     1
   9293   9294     1
   9293   9304     1
   9294   9295     1
   9295   9296     1
   9295   9304     1
   9302   9304     1
   9305   9310     1
   9305   9317     1
   9305   9315     1
   9306   9311     1
   9306   9316     1
   9306   9325     1
   9309   9315     1
   9309   9327     1
   9309   9319     1
   9310   9318     1
   9311   9319     1
   9311   9317     1
   9315   9316     1
   9316   9327     1
   9316   9317     1
   9317   9318     1
   9318   9319     1
   9318   9327     1
   9325   9327     1
   9328   9333     1
   9328   9340     1
   9328   9338     1
   9329   9348     1
   9329   9334     1
   9329   9339     1
   9332   9342     1
   9332   9350     1
   9332   9338     1
   9333   9341     1
   9334   9340     1
   9334   9342     1
   9338   9339     1
   9339   9340     1
   9339   9350     1
   9340   9341     1
   9341   9342     1
   9341   9350     1
   9348   9350     1
   9351   9356     1
   9351   9363     1
   9351   9361     1
   9352   9357     1
   9352   9362     1
   9352   9371     1
   9355   9361     1
   9355   9373     1
   9355   9365     1
   9356   9364     1
   9357   9365     1
   9357   9363     1
   9361   9362     1
   9362   9373     1
   9362   9363     1
   9363   9364     1
   9364   9365     1
   9364   9373     1
   9371   9373     1
   9374   9379     1
   9374   9386     1
   9374   9384     1
   9375   9394     1
   9375   9380     1
   9375   9385     1
   9378   9388     1
   9378   9396     1
   9378   9384     1
   9379   9387     1
   9380   9386     1
   9380   9388     1
   9384   9385     1
   9385   9386     1
   9385   9396     1
   9386   9387     1
   9387   9388     1
   9387   9396     1
   9394   9396     1
   9397   9402     1
   9397   9409     1
   9397   9407     1
   9398   9403     1
   9398   9408     1
   9398   9417     1
   9401   9407     1
   9401   9419     1
   9401   9411     1
   9402   9410     1
   9403   9411     1
   9403   9409     1
   9407   9408     1
   9408   9419     1
   9408   9409     1
   9409   9410     1
   9410   9411     1
   9410   9419     1
   9417   9419     1
   9420   9425     1
   9420   9432     1
   9420   9430     1
   9421   9440     1
   9421   9426     1
   9421   9431     1
   9424   9434     1
   9424   9442     1
   9424   9430     1
   9425   9433     1
   9426   9432     1
   9426   9434     1
   9430   9431     1
   9431   9432     1
   9431   9442     1
   9432   9433     1
   9433   9434     1
   9433   9442     1
   9440   9442     1
   9443   9448     1
   9443   9455     1
   9443   9453     1
   9444   9449     1
   9444   9454     1
   9444   9463     1
   9447   9453     1
   9447   9465     1
   9447   9457     1
   9448   9456     1
   9449   9457     1
   9449   9455     1
   9453   9454     1
   9454   9465     1
   9454   9455     1
   9455   9456     1
   9456   9457     1
   9456   9465     1
   9463   9465     1
   9466   9471     1
   9466   9478     1
   9466   9476     1
   9467   9486     1
   9467   9472     1
   9467   9477     1
   9470   9480     1
   9470   9488     1
   9470   9476     1
   9471   9479     1
   9472   9478     1
   9472   9480     1
   9476   9477     1
   9477   9478     1
   9477   9488     1
   9478   9479     1
   9479   9480     1
   9479   9488     1
   9486   9488     1
   9489   9494     1
   9489   9501     1
   9489   9499     1
   9490   9495     1
   9490   9500     1
   9490   9509     1
   9493   9499     1
   9493   9511     1
   9493   9503     1
   9494   9502     1
   9495   9503     1
   9495   9501     1
   9499   9500     1
   9500   9511     1
   9500   9501     1
   9501   9502     1
   9502   9503     1
   9502   9511     1
   9509   9511     1
   9512   9517     1
   9512   9524     1
   9512   9522     1
   9513   9532     1
   9513   9518     1
   9513   9523     1
   9516   9526     1
   9516   9534     1
   9516   9522     1
   9517   9525     1
   9518   9524     1
   9518   9526     1
   9522   9523     1
   9523   9524     1
   9523   9534     1
   9524   9525     1
   9525   9526     1
   9525   9534     1
   9532   9534     1
   9535   9540     1
   9535   9547     1
   9535   9545     1
   9536   9541     1
   9536   9546     1
   9536   9555     1
   9539   9545     1
   9539   9557     1
   9539   9549     1
   9540   9548     1
   9541   9549     1
   9541   9547     1
   9545   9546     1
   9546   9557     1
   9546   9547     1
   9547   9548     1
   9548   9549     1
   9548   9557     1
   9555   9557     1
   9558   9563     1
   9558   9570     1
   9558   9568     1
   9559   9578     1
   9559   9564     1
   9559   9569     1
   9562   9572     1
   9562   9580     1
   9562   9568     1
   9563   9571     1
   9564   9570     1
   9564   9572     1
   9568   9569     1
   9569   9570     1
   9569   9580     1
   9570   9571     1
   9571   9572     1
   9571   9580     1
   9578   9580     1
   9581   9586     1
   9581   9593     1
   9581   9591     1
   9582   9587     1
   9582   9592     1
   9582   9601     1
   9585   9591     1
   9585   9603     1
   9585   9595     1
   9586   9594     1
   9587   9595     1
   9587   9593     1
   9591   9592     1
   9592   9603     1
   9592   9593     1
   9593   9594     1
   9594   9595     1
   9594   9603     1
   9601   9603     1
   9604   9609     1
   9604   9616     1
   9604   9614     1
   9605   9624     1
   9605   9610     1
   9605   9615     1
   9608   9618     1
   9608   9626     1
   9608   9614     1
   9609   9617     1
   9610   9616     1
   9610   9618     1
   9614   9615     1
   9615   9616     1
   9615   9626     1
   9616   9617     1
   9617   9618     1
   9617   9626     1
   9624   9626     1
   9627   9632     1
   9627   9639     1
   9627   9637     1
   9628   9633     1
   9628   9638     1
   9628   9647     1
   9631   9637     1
   9631   9649     1
   9631   9641     1
   9632   9640     1
   9633   9641     1
   9633   9639     1
   9637   9638     1
   9638   9649     1
   9638   9639     1
   9639   9640     1
   9640   9641     1
   9640   9649     1
   9647   9649     1
   9650   9655     1
   9650   9662     1
   9650   9660     1
   9651   9670     1
   9651   9656     1
   9651   9661     1
   9654   9664     1
   9654   9672     1
   9654   9660     1
   9655   9663     1
   9656   9662     1
   9656   9664     1
   9660   9661     1
   9661   9662     1
   9661   9672     1
   9662   9663     1
   9663   9664     1
   9663   9672     1
   9670   9672     1
   9673   9678     1
   9673   9685     1
   9673   9683     1
   9674   9679     1
   9674   9684     1
   9674   9693     1
   9677   9683     1
   9677   9695     1
   9677   9687     1
   9678   9686     1
   9679   9687     1
   9679   9685     1
   9683   9684     1
   9684   9695     1
   9684   9685     1
   9685   9686     1
   9686   9687     1
   9686   9695     1
   9693   9695     1
   9696   9701     1
   9696   9708     1
   9696   9706     1
   9697   9716     1
   9697   9702     1
   9697   9707     1
   9700   9710     1
   9700   9718     1
   9700   9706     1
   9701   9709     1
   9702   9708     1
   9702   9710     1
   9706   9707     1
   9707   9708     1
   9707   9718     1
   9708   9709     1
   9709   9710     1
   9709   9718     1
   9716   9718     1
   9719   9724     1
   9719   9731     1
   9719   9729     1
   9720   9725     1
   9720   9730     1
   9720   9739     1
   9723   9729     1
   9723   9741     1
   9723   9733     1
   9724   9732     1
   9725   9733     1
   9725   9731     1
   9729   9730     1
   9730   9741     1
   9730   9731     1
   9731   9732     1
   9732   9733     1
   9732   9741     1
   9739   9741     1
   9742   9747     1
   9742   9754     1
   9742   9752     1
   9743   9762     1
   9743   9748     1
   9743   9753     1
   9746   9756     1
   9746   9764     1
   9746   9752     1
   9747   9755     1
   9748   9754     1
   9748   9756     1
   9752   9753     1
   9753   9754     1
   9753   9764     1
   9754   9755     1
   9755   9756     1
   9755   9764     1
   9762   9764     1
   9765   9770     1
   9765   9777     1
   9765   9775     1
   9766   9771     1
   9766   9776     1
   9766   9785     1
   9769   9775     1
   9769   9787     1
   9769   9779     1
   9770   9778     1
   9771   9779     1
   9771   9777     1
   9775   9776     1
   9776   9787     1
   9776   9777     1
   9777   9778     1
   9778   9779     1
   9778   9787     1
   9785   9787     1
   9788   9793     1
   9788   9800     1
   9788   9798     1
   9789   9808     1
   9789   9794     1
   9789   9799     1
   9792   9802     1
   9792   9810     1
   9792   9798     1
   9793   9801     1
   9794   9800     1
   9794   9802     1
   9798   9799     1
   9799   9800     1
   9799   9810     1
   9800   9801     1
   9801   9802     1
   9801   9810     1
   9808   9810     1
   9811   9816     1
   9811   9823     1
   9811   9821     1
   9812   9817     1
   9812   9822     1
   9812   9831     1
   9815   9821     1
   9815   9833     1
   9815   9825     1
   9816   9824     1
   9817   9825     1
   9817   9823     1
   9821   9822     1
   9822   9833     1
   9822   9823     1
   9823   9824     1
   9824   9825     1
   9824   9833     1
   9831   9833     1
   9834   9839     1
   9834   9846     1
   9834   9844     1
   9835   9854     1
   9835   9840     1
   9835   9845     1
   9838   9848     1
   9838   9856     1
   9838   9844     1
   9839   9847     1
   9840   9846     1
   9840   9848     1
   9844   9845     1
   9845   9846     1
   9845   9856     1
   9846   9847     1
   9847   9848     1
   9847   9856     1
   9854   9856     1
   9857   9862     1
   9857   9869     1
   9857   9867     1
   9858   9863     1
   9858   9868     1
   9858   9877     1
   9861   9867     1
   9861   9879     1
   9861   9871     1
   9862   9870     1
   9863   9871     1
   9863   9869     1
   9867   9868     1
   9868   9879     1
   9868   9869     1
   9869   9870     1
   9870   9871     1
   9870   9879     1
   9877   9879     1
   9880   9885     1
   9880   9892     1
   9880   9890     1
   9881   9900     1
   9881   9886     1
   9881   9891     1
   9884   9894     1
   9884   9902     1
   9884   9890     1
   9885   9893     1
   9886   9892     1
   9886   9894     1
   9890   9891     1
   9891   9892     1
   9891   9902     1
   9892   9893     1
   9893   9894     1
   9893   9902     1
   9900   9902     1
   9903   9908     1
   9903   9915     1
   9903   9913     1
   9904   9909     1
   9904   9914     1
   9904   9923     1
   9907   9913     1
   9907   9925     1
   9907   9917     1
   9908   9916     1
   9909   9917     1
   9909   9915     1
   9913   9914     1
   9914   9925     1
   9914   9915     1
   9915   9916     1
   9916   9917     1
   9916   9925     1
   9923   9925     1
      1     15     1
      1     16     1
      1     18     1
      1     19     1
      1     12     1
      1     13     1
      2      6     1
      2      7     1
      2      9     1
      2     10     1
      2     27     1
      2     28     1
      5      3     1
      8      3     1
      3     26     1
      3     15     1
      3     16     1
      5      4     1
      8      4     1
      4     26     1
      4     15     1
      4     16     1
      5      9     1
      5     10     1
      5     21     1
      5     22     1
      8      6     1
      6     20     1
      6     18     1
      6     19     1
      8      7     1
      7     20     1
      7     18     1
      7     19     1
      8     24     1
      8     25     1
      9     23     1
      9     12     1
      9     13     1
     10     23     1
     10     12     1
     10     13     1
     12     86     1
     12     24     1
     12     25     1
     13     86     1
     13     24     1
     13     25     1
     15    115     1
     15     27     1
     15     28     1
     16    115     1
     16     27     1
     16     28     1
     18     57     1
     18     21     1
     18     22     1
     19     57     1
     19     21     1
     19     22     1
     20     49     1
     20     50     1
     21     48     1
     22     48     1
     23     78     1
     23     79     1
     24     77     1
     25     77     1
     26    107     1
     26    108     1
     27    106     1
     28    106     1
     29     43     1
     29     44     1
     29     46     1
     29     47     1
     29     40     1
     29     41     1
     30     34     1
     30     35     1
     30     37     1
     30     38     1
     30     55     1
     30     56     1
     31     33     1
     31     36     1
     31     54     1
     31     43     1
     31     44     1
     32     33     1
     32     36     1
     32     54     1
     32     43     1
     32     44     1
     33     37     1
     33     38     1
     33     52     1
     33     53     1
     34     36     1
     34     51     1
     34     46     1
     34     47     1
     35     36     1
     35     51     1
     35     46     1
     35     47     1
     36     49     1
     36     50     1
     37     48     1
     37     40     1
     37     41     1
     38     48     1
     38     40     1
     38     41     1
     40     57     1
     40     49     1
     40     50     1
     41     57     1
     41     49     1
     41     50     1
     43    173     1
     43     55     1
     43     56     1
     44    173     1
     44     55     1
     44     56     1
     46    144     1
     46     52     1
     46     53     1
     47    144     1
     47     52     1
     47     53     1
     51    136     1
     51    137     1
     52    135     1
     53    135     1
     54    165     1
     54    166     1
     55    164     1
     56    164     1
     58     72     1
     58     73     1
     58     75     1
     58     76     1
     58     69     1
     58     70     1
     59     63     1
     59     64     1
     59     66     1
     59     67     1
     59     84     1
     59     85     1
     60     62     1
     60     65     1
     60     83     1
     60     72     1
     60     73     1
     61     62     1
     61     65     1
     61     83     1
     61     72     1
     61     73     1
     62     66     1
     62     67     1
     62     81     1
     62     82     1
     63     65     1
     63     80     1
     63     75     1
     63     76     1
     64     65     1
     64     80     1
     64     75     1
     64     76     1
     65     78     1
     65     79     1
     66     77     1
     66     69     1
     66     70     1
     67     77     1
     67     69     1
     67     70     1
     69     86     1
     69     78     1
     69     79     1
     70     86     1
     70     78     1
     70     79     1
     72    231     1
     72     84     1
     72     85     1
     73    231     1
     73     84     1
     73     85     1
     75    202     1
     75     81     1
     75     82     1
     76    202     1
     76     81     1
     76     82     1
     80    194     1
     80    195     1
     81    193     1
     82    193     1
     83    223     1
     83    224     1
     84    222     1
     85    222     1
     87    101     1
     87    102     1
     87    104     1
     87    105     1
     87     98     1
     87     99     1
     88     92     1
     88     93     1
     88     95     1
     88     96     1
     88    113     1
     88    114     1
     89     91     1
     89     94     1
     89    112     1
     89    101     1
     89    102     1
     90     91     1
     90     94     1
     90    112     1
     90    101     1
     90    102     1
     91     95     1
     91     96     1
     91    110     1
     91    111     1
     92     94     1
     92    109     1
     92    104     1
     92    105     1
     93     94     1
     93    109     1
     93    104     1
     93    105     1
     94    107     1
     94    108     1
     95    106     1
     95     98     1
     95     99     1
     96    106     1
     96     98     1
     96     99     1
     98    115     1
     98    107     1
     98    108     1
     99    115     1
     99    107     1
     99    108     1
    101    289     1
    101    113     1
    101    114     1
    102    289     1
    102    113     1
    102    114     1
    104    260     1
    104    110     1
    104    111     1
    105    260     1
    105    110     1
    105    111     1
    109    252     1
    109    253     1
    110    251     1
    111    251     1
    112    281     1
    112    282     1
    113    280     1
    114    280     1
    116    130     1
    116    131     1
    116    133     1
    116    134     1
    116    127     1
    116    128     1
    117    121     1
    117    122     1
    117    124     1
    117    125     1
    117    142     1
    117    143     1
    118    120     1
    118    123     1
    118    141     1
    118    130     1
    118    131     1
    119    120     1
    119    123     1
    119    141     1
    119    130     1
    119    131     1
    120    124     1
    120    125     1
    120    139     1
    120    140     1
    121    123     1
    121    138     1
    121    133     1
    121    134     1
    122    123     1
    122    138     1
    122    133     1
    122    134     1
    123    136     1
    123    137     1
    124    135     1
    124    127     1
    124    128     1
    125    135     1
    125    127     1
    125    128     1
    127    144     1
    127    136     1
    127    137     1
    128    144     1
    128    136     1
    128    137     1
    130    347     1
    130    142     1
    130    143     1
    131    347     1
    131    142     1
    131    143     1
    133    318     1
    133    139     1
    133    140     1
    134    318     1
    134    139     1
    134    140     1
    138    310     1
    138    311     1
    139    309     1
    140    309     1
    141    339     1
    141    340     1
    142    338     1
    143    338     1
    145    159     1
    145    160     1
    145    162     1
    145    163     1
    145    156     1
    145    157     1
    146    150     1
    146    151     1
    146    153     1
    146    154     1
    146    171     1
    146    172     1
    147    149     1
    147    152     1
    147    170     1
    147    159     1
    147    160     1
    148    149     1
    148    152     1
    148    170     1
    148    159     1
    148    160     1
    149    153     1
    149    154     1
    149    168     1
    149    169     1
    150    152     1
    150    167     1
    150    162     1
    150    163     1
    151    152     1
    151    167     1
    151    162     1
    151    163     1
    152    165     1
    152    166     1
    153    164     1
    153    156     1
    153    157     1
    154    164     1
    154    156     1
    154    157     1
    156    173     1
    156    165     1
    156    166     1
    157    173     1
    157    165     1
    157    166     1
    159    405     1
    159    171     1
    159    172     1
    160    405     1
    160    171     1
    160    172     1
    162    376     1
    162    168     1
    162    169     1
    163    376     1
    163    168     1
    163    169     1
    167    368     1
    167    369     1
    168    367     1
    169    367     1
    170    397     1
    170    398     1
    171    396     1
    172    396     1
    174    188     1
    174    189     1
    174    191     1
    174    192     1
    174    185     1
    174    186     1
    175    179     1
    175    180     1
    175    182     1
    175    183     1
    175    200     1
    175    201     1
    176    178     1
    176    181     1
    176    199     1
    176    188     1
    176    189     1
    177    178     1
    177    181     1
    177    199     1
    177    188     1
    177    189     1
    178    182     1
    178    183     1
    178    197     1
    178    198     1
    179    181     1
    179    196     1
    179    191     1
    179    192     1
    180    181     1
    180    196     1
    180    191     1
    180    192     1
    181    194     1
    181    195     1
    182    193     1
    182    185     1
    182    186     1
    183    193     1
    183    185     1
    183    186     1
    185    202     1
    185    194     1
    185    195     1
    186    202     1
    186    194     1
    186    195     1
    188    463     1
    188    200     1
    188    201     1
    189    463     1
    189    200     1
    189    201     1
    191    434     1
    191    197     1
    191    198     1
    192    434     1
    192    197     1
    192    198     1
    196    426     1
    196    427     1
    197    425     1
    198    425     1
    199    455     1
    199    456     1
    200    454     1
    201    454     1
    203    217     1
    203    218     1
    203    220     1
    203    221     1
    203    214     1
    203    215     1
    204    208     1
    204    209     1
    204    211     1
    204    212     1
    204    229     1
    204    230     1
    205    207     1
    205    210     1
    205    228     1
    205    217     1
    205    218     1
    206    207     1
    206    210     1
    206    228     1
    206    217     1
    206    218     1
    207    211     1
    207    212     1
    207    226     1
    207    227     1
    208    210     1
    208    225     1
    208    220     1
    208    221     1
    209    210     1
    209    225     1
    209    220     1
    209    221     1
    210    223     1
    210    224     1
    211    222     1
    211    214     1
    211    215     1
    212    222     1
    212    214     1
    212    215     1
    214    231     1
    214    223     1
    214    224     1
    215    231     1
    215    223     1
    215    224     1
    217    521     1
    217    229     1
    217    230     1
    218    521     1
    218    229     1
    218    230     1
    220    492     1
    220    226     1
    220    227     1
    221    492     1
    221    226     1
    221    227     1
    225    484     1
    225    485     1
    226    483     1
    227    483     1
    228    513     1
    228    514     1
    229    512     1
    230    512     1
    232    246     1
    232    247     1
    232    249     1
    232    250     1
    232    243     1
    232    244     1
    233    237     1
    233    238     1
    233    240     1
    233    241     1
    233    258     1
    233    259     1
    234    236     1
    234    239     1
    234    257     1
    234    246     1
    234    247     1
    235    236     1
    235    239     1
    235    257     1
    235    246     1
    235    247     1
    236    240     1
    236    241     1
    236    255     1
    236    256     1
    237    239     1
    237    254     1
    237    249     1
    237    250     1
    238    239     1
    238    254     1
    238    249     1
    238    250     1
    239    252     1
    239    253     1
    240    251     1
    240    243     1
    240    244     1
    241    251     1
    241    243     1
    241    244     1
    243    260     1
    243    252     1
    243    253     1
    244    260     1
    244    252     1
    244    253     1
    246    579     1
    246    258     1
    246    259     1
    247    579     1
    247    258     1
    247    259     1
    249    550     1
    249    255     1
    249    256     1
    250    550     1
    250    255     1
    250    256     1
    254    542     1
    254    543     1
    255    541     1
    256    541     1
    257    571     1
    257    572     1
    258    570     1
    259    570     1
    261    275     1
    261    276     1
    261    278     1
    261    279     1
    261    272     1
    261    273     1
    262    266     1
    262    267     1
    262    269     1
    262    270     1
    262    287     1
    262    288     1
    263    265     1
    263    268     1
    263    286     1
    263    275     1
    263    276     1
    264    265     1
    264    268     1
    264    286     1
    264    275     1
    264    276     1
    265    269     1
    265    270     1
    265    284     1
    265    285     1
    266    268     1
    266    283     1
    266    278     1
    266    279     1
    267    268     1
    267    283     1
    267    278     1
    267    279     1
    268    281     1
    268    282     1
    269    280     1
    269    272     1
    269    273     1
    270    280     1
    270    272     1
    270    273     1
    272    289     1
    272    281     1
    272    282     1
    273    289     1
    273    281     1
    273    282     1
    275    637     1
    275    287     1
    275    288     1
    276    637     1
    276    287     1
    276    288     1
    278    608     1
    278    284     1
    278    285     1
    279    608     1
    279    284     1
    279    285     1
    283    600     1
    283    601     1
    284    599     1
    285    599     1
    286    629     1
    286    630     1
    287    628     1
    288    628     1
    290    304     1
    290    305     1
    290    307     1
    290    308     1
    290    301     1
    290    302     1
    291    295     1
    291    296     1
    291    298     1
    291    299     1
    291    316     1
    291    317     1
    292    294     1
    292    297     1
    292    315     1
    292    304     1
    292    305     1
    293    294     1
    293    297     1
    293    315     1
    293    304     1
    293    305     1
    294    298     1
    294    299     1
    294    313     1
    294    314     1
    295    297     1
    295    312     1
    295    307     1
    295    308     1
    296    297     1
    296    312     1
    296    307     1
    296    308     1
    297    310     1
    297    311     1
    298    309     1
    298    301     1
    298    302     1
    299    309     1
    299    301     1
    299    302     1
    301    318     1
    301    310     1
    301    311     1
    302    318     1
    302    310     1
    302    311     1
    304    695     1
    304    316     1
    304    317     1
    305    695     1
    305    316     1
    305    317     1
    307    666     1
    307    313     1
    307    314     1
    308    666     1
    308    313     1
    308    314     1
    312    658     1
    312    659     1
    313    657     1
    314    657     1
    315    687     1
    315    688     1
    316    686     1
    317    686     1
    319    333     1
    319    334     1
    319    336     1
    319    337     1
    319    330     1
    319    331     1
    320    324     1
    320    325     1
    320    327     1
    320    328     1
    320    345     1
    320    346     1
    321    323     1
    321    326     1
    321    344     1
    321    333     1
    321    334     1
    322    323     1
    322    326     1
    322    344     1
    322    333     1
    322    334     1
    323    327     1
    323    328     1
    323    342     1
    323    343     1
    324    326     1
    324    341     1
    324    336     1
    324    337     1
    325    326     1
    325    341     1
    325    336     1
    325    337     1
    326    339     1
    326    340     1
    327    338     1
    327    330     1
    327    331     1
    328    338     1
    328    330     1
    328    331     1
    330    347     1
    330    339     1
    330    340     1
    331    347     1
    331    339     1
    331    340     1
    333    753     1
    333    345     1
    333    346     1
    334    753     1
    334    345     1
    334    346     1
    336    724     1
    336    342     1
    336    343     1
    337    724     1
    337    342     1
    337    343     1
    341    716     1
    341    717     1
    342    715     1
    343    715     1
    344    745     1
    344    746     1
    345    744     1
    346    744     1
    348    362     1
    348    363     1
    348    365     1
    348    366     1
    348    359     1
    348    360     1
    349    353     1
    349    354     1
    349    356     1
    349    357     1
    349    374     1
    349    375     1
    350    352     1
    350    355     1
    350    373     1
    350    362     1
    350    363     1
    351    352     1
    351    355     1
    351    373     1
    351    362     1
    351    363     1
    352    356     1
    352    357     1
    352    371     1
    352    372     1
    353    355     1
    353    370     1
    353    365     1
    353    366     1
    354    355     1
    354    370     1
    354    365     1
    354    366     1
    355    368     1
    355    369     1
    356    367     1
    356    359     1
    356    360     1
    357    367     1
    357    359     1
    357    360     1
    359    376     1
    359    368     1
    359    369     1
    360    376     1
    360    368     1
    360    369     1
    362    811     1
    362    374     1
    362    375     1
    363    811     1
    363    374     1
    363    375     1
    365    782     1
    365    371     1
    365    372     1
    366    782     1
    366    371     1
    366    372     1
    370    774     1
    370    775     1
    371    773     1
    372    773     1
    373    803     1
    373    804     1
    374    802     1
    375    802     1
    377    391     1
    377    392     1
    377    394     1
    377    395     1
    377    388     1
    377    389     1
    378    382     1
    378    383     1
    378    385     1
    378    386     1
    378    403     1
    378    404     1
    379    381     1
    379    384     1
    379    402     1
    379    391     1
    379    392     1
    380    381     1
    380    384     1
    380    402     1
    380    391     1
    380    392     1
    381    385     1
    381    386     1
    381    400     1
    381    401     1
    382    384     1
    382    399     1
    382    394     1
    382    395     1
    383    384     1
    383    399     1
    383    394     1
    383    395     1
    384    397     1
    384    398     1
    385    396     1
    385    388     1
    385    389     1
    386    396     1
    386    388     1
    386    389     1
    388    405     1
    388    397     1
    388    398     1
    389    405     1
    389    397     1
    389    398     1
    391    869     1
    391    403     1
    391    404     1
    392    869     1
    392    403     1
    392    404     1
    394    840     1
    394    400     1
    394    401     1
    395    840     1
    395    400     1
    395    401     1
    399    832     1
    399    833     1
    400    831     1
    401    831     1
    402    861     1
    402    862     1
    403    860     1
    404    860     1
    406    420     1
    406    421     1
    406    423     1
    406    424     1
    406    417     1
    406    418     1
    407    411     1
    407    412     1
    407    414     1
    407    415     1
    407    432     1
    407    433     1
    408    410     1
    408    413     1
    408    431     1
    408    420     1
    408    421     1
    409    410     1
    409    413     1
    409    431     1
    409    420     1
    409    421     1
    410    414     1
    410    415     1
    410    429     1
    410    430     1
    411    413     1
    411    428     1
    411    423     1
    411    424     1
    412    413     1
    412    428     1
    412    423     1
    412    424     1
    413    426     1
    413    427     1
    414    425     1
    414    417     1
    414    418     1
    415    425     1
    415    417     1
    415    418     1
    417    434     1
    417    426     1
    417    427     1
    418    434     1
    418    426     1
    418    427     1
    420    927     1
    420    432     1
    420    433     1
    421    927     1
    421    432     1
    421    433     1
    423    898     1
    423    429     1
    423    430     1
    424    898     1
    424    429     1
    424    430     1
    428    890     1
    428    891     1
    429    889     1
    430    889     1
    431    919     1
    431    920     1
    432    918     1
    433    918     1
    435    449     1
    435    450     1
    435    452     1
    435    453     1
    435    446     1
    435    447     1
    436    440     1
    436    441     1
    436    443     1
    436    444     1
    436    461     1
    436    462     1
    437    439     1
    437    442     1
    437    460     1
    437    449     1
    437    450     1
    438    439     1
    438    442     1
    438    460     1
    438    449     1
    438    450     1
    439    443     1
    439    444     1
    439    458     1
    439    459     1
    440    442     1
    440    457     1
    440    452     1
    440    453     1
    441    442     1
    441    457     1
    441    452     1
    441    453     1
    442    455     1
    442    456     1
    443    454     1
    443    446     1
    443    447     1
    444    454     1
    444    446     1
    444    447     1
    446    463     1
    446    455     1
    446    456     1
    447    463     1
    447    455     1
    447    456     1
    449    985     1
    449    461     1
    449    462     1
    450    985     1
    450    461     1
    450    462     1
    452    956     1
    452    458     1
    452    459     1
    453    956     1
    453    458     1
    453    459     1
    457    948     1
    457    949     1
    458    947     1
    459    947     1
    460    977     1
    460    978     1
    461    976     1
    462    976     1
    464    478     1
    464    479     1
    464    481     1
    464    482     1
    464    475     1
    464    476     1
    465    469     1
    465    470     1
    465    472     1
    465    473     1
    465    490     1
    465    491     1
    466    468     1
    466    471     1
    466    489     1
    466    478     1
    466    479     1
    467    468     1
    467    471     1
    467    489     1
    467    478     1
    467    479     1
    468    472     1
    468    473     1
    468    487     1
    468    488     1
    469    471     1
    469    486     1
    469    481     1
    469    482     1
    470    471     1
    470    486     1
    470    481     1
    470    482     1
    471    484     1
    471    485     1
    472    483     1
    472    475     1
    472    476     1
    473    483     1
    473    475     1
    473    476     1
    475    492     1
    475    484     1
    475    485     1
    476    492     1
    476    484     1
    476    485     1
    478   1043     1
    478    490     1
    478    491     1
    479   1043     1
    479    490     1
    479    491     1
    481   1014     1
    481    487     1
    481    488     1
    482   1014     1
    482    487     1
    482    488     1
    486   1006     1
    486   1007     1
    487   1005     1
    488   1005     1
    489   1035     1
    489   1036     1
    490   1034     1
    491   1034     1
    493    507     1
    493    508     1
    493    510     1
    493    511     1
    493    504     1
    493    505     1
    494    498     1
    494    499     1
    494    501     1
    494    502     1
    494    519     1
    494    520     1
    495    497     1
    495    500     1
    495    518     1
    495    507     1
    495    508     1
    496    497     1
    496    500     1
    496    518     1
    496    507     1
    496    508     1
    497    501     1
    497    502     1
    497    516     1
    497    517     1
    498    500     1
    498    515     1
    498    510     1
    498    511     1
    499    500     1
    499    515     1
    499    510     1
    499    511     1
    500    513     1
    500    514     1
    501    512     1
    501    504     1
    501    505     1
    502    512     1
    502    504     1
    502    505     1
    504    521     1
    504    513     1
    504    514     1
    505    521     1
    505    513     1
    505    514     1
    507   1101     1
    507    519     1
    507    520     1
    508   1101     1
    508    519     1
    508    520     1
    510   1072     1
    510    516     1
    510    517     1
    511   1072     1
    511    516     1
    511    517     1
    515   1064     1
    515   1065     1
    516   1063     1
    517   1063     1
    518   1093     1
    518   1094     1
    519   1092     1
    520   1092     1
    522    536     1
    522    537     1
    522    539     1
    522    540     1
    522    533     1
    522    534     1
    523    527     1
    523    528     1
    523    530     1
    523    531     1
    523    548     1
    523    549     1
    524    526     1
    524    529     1
    524    547     1
    524    536     1
    524    537     1
    525    526     1
    525    529     1
    525    547     1
    525    536     1
    525    537     1
    526    530     1
    526    531     1
    526    545     1
    526    546     1
    527    529     1
    527    544     1
    527    539     1
    527    540     1
    528    529     1
    528    544     1
    528    539     1
    528    540     1
    529    542     1
    529    543     1
    530    541     1
    530    533     1
    530    534     1
    531    541     1
    531    533     1
    531    534     1
    533    550     1
    533    542     1
    533    543     1
    534    550     1
    534    542     1
    534    543     1
    536   1159     1
    536    548     1
    536    549     1
    537   1159     1
    537    548     1
    537    549     1
    539   1130     1
    539    545     1
    539    546     1
    540   1130     1
    540    545     1
    540    546     1
    544   1122     1
    544   1123     1
    545   1121     1
    546   1121     1
    547   1151     1
    547   1152     1
    548   1150     1
    549   1150     1
    551    565     1
    551    566     1
    551    568     1
    551    569     1
    551    562     1
    551    563     1
    552    556     1
    552    557     1
    552    559     1
    552    560     1
    552    577     1
    552    578     1
    553    555     1
    553    558     1
    553    576     1
    553    565     1
    553    566     1
    554    555     1
    554    558     1
    554    576     1
    554    565     1
    554    566     1
    555    559     1
    555    560     1
    555    574     1
    555    575     1
    556    558     1
    556    573     1
    556    568     1
    556    569     1
    557    558     1
    557    573     1
    557    568     1
    557    569     1
    558    571     1
    558    572     1
    559    570     1
    559    562     1
    559    563     1
    560    570     1
    560    562     1
    560    563     1
    562    579     1
    562    571     1
    562    572     1
    563    579     1
    563    571     1
    563    572     1
    565   1217     1
    565    577     1
    565    578     1
    566   1217     1
    566    577     1
    566    578     1
    568   1188     1
    568    574     1
    568    575     1
    569   1188     1
    569    574     1
    569    575     1
    573   1180     1
    573   1181     1
    574   1179     1
    575   1179     1
    576   1209     1
    576   1210     1
    577   1208     1
    578   1208     1
    580    594     1
    580    595     1
    580    597     1
    580    598     1
    580    591     1
    580    592     1
    581    585     1
    581    586     1
    581    588     1
    581    589     1
    581    606     1
    581    607     1
    582    584     1
    582    587     1
    582    605     1
    582    594     1
    582    595     1
    583    584     1
    583    587     1
    583    605     1
    583    594     1
    583    595     1
    584    588     1
    584    589     1
    584    603     1
    584    604     1
    585    587     1
    585    602     1
    585    597     1
    585    598     1
    586    587     1
    586    602     1
    586    597     1
    586    598     1
    587    600     1
    587    601     1
    588    599     1
    588    591     1
    588    592     1
    589    599     1
    589    591     1
    589    592     1
    591    608     1
    591    600     1
    591    601     1
    592    608     1
    592    600     1
    592    601     1
    594   1275     1
    594    606     1
    594    607     1
    595   1275     1
    595    606     1
    595    607     1
    597   1246     1
    597    603     1
    597    604     1
    598   1246     1
    598    603     1
    598    604     1
    602   1238     1
    602   1239     1
    603   1237     1
    604   1237     1
    605   1267     1
    605   1268     1
    606   1266     1
    607   1266     1
    609    623     1
    609    624     1
    609    626     1
    609    627     1
    609    620     1
    609    621     1
    610    614     1
    610    615     1
    610    617     1
    610    618     1
    610    635     1
    610    636     1
    611    613     1
    611    616     1
    611    634     1
    611    623     1
    611    624     1
    612    613     1
    612    616     1
    612    634     1
    612    623     1
    612    624     1
    613    617     1
    613    618     1
    613    632     1
    613    633     1
    614    616     1
    614    631     1
    614    626     1
    614    627     1
    615    616     1
    615    631     1
    615    626     1
    615    627     1
    616    629     1
    616    630     1
    617    628     1
    617    620     1
    617    621     1
    618    628     1
    618    620     1
    618    621     1
    620    637     1
    620    629     1
    620    630     1
    621    637     1
    621    629     1
    621    630     1
    623   1333     1
    623    635     1
    623    636     1
    624   1333     1
    624    635     1
    624    636     1
    626   1304     1
    626    632     1
    626    633     1
    627   1304     1
    627    632     1
    627    633     1
    631   1296     1
    631   1297     1
    632   1295     1
    633   1295     1
    634   1325     1
    634   1326     1
    635   1324     1
    636   1324     1
    638    652     1
    638    653     1
    638    655     1
    638    656     1
    638    649     1
    638    650     1
    639    643     1
    639    644     1
    639    646     1
    639    647     1
    639    664     1
    639    665     1
    640    642     1
    640    645     1
    640    663     1
    640    652     1
    640    653     1
    641    642     1
    641    645     1
    641    663     1
    641    652     1
    641    653     1
    642    646     1
    642    647     1
    642    661     1
    642    662     1
    643    645     1
    643    660     1
    643    655     1
    643    656     1
    644    645     1
    644    660     1
    644    655     1
    644    656     1
    645    658     1
    645    659     1
    646    657     1
    646    649     1
    646    650     1
    647    657     1
    647    649     1
    647    650     1
    649    666     1
    649    658     1
    649    659     1
    650    666     1
    650    658     1
    650    659     1
    652   1391     1
    652    664     1
    652    665     1
    653   1391     1
    653    664     1
    653    665     1
    655   1362     1
    655    661     1
    655    662     1
    656   1362     1
    656    661     1
    656    662     1
    660   1354     1
    660   1355     1
    661   1353     1
    662   1353     1
    663   1383     1
    663   1384     1
    664   1382     1
    665   1382     1
    667    681     1
    667    682     1
    667    684     1
    667    685     1
    667    678     1
    667    679     1
    668    672     1
    668    673     1
    668    675     1
    668    676     1
    668    693     1
    668    694     1
    669    671     1
    669    674     1
    669    692     1
    669    681     1
    669    682     1
    670    671     1
    670    674     1
    670    692     1
    670    681     1
    670    682     1
    671    675     1
    671    676     1
    671    690     1
    671    691     1
    672    674     1
    672    689     1
    672    684     1
    672    685     1
    673    674     1
    673    689     1
    673    684     1
    673    685     1
    674    687     1
    674    688     1
    675    686     1
    675    678     1
    675    679     1
    676    686     1
    676    678     1
    676    679     1
    678    695     1
    678    687     1
    678    688     1
    679    695     1
    679    687     1
    679    688     1
    681   1449     1
    681    693     1
    681    694     1
    682   1449     1
    682    693     1
    682    694     1
    684   1420     1
    684    690     1
    684    691     1
    685   1420     1
    685    690     1
    685    691     1
    689   1412     1
    689   1413     1
    690   1411     1
    691   1411     1
    692   1441     1
    692   1442     1
    693   1440     1
    694   1440     1
    696    710     1
    696    711     1
    696    713     1
    696    714     1
    696    707     1
    696    708     1
    697    701     1
    697    702     1
    697    704     1
    697    705     1
    697    722     1
    697    723     1
    698    700     1
    698    703     1
    698    721     1
    698    710     1
    698    711     1
    699    700     1
    699    703     1
    699    721     1
    699    710     1
    699    711     1
    700    704     1
    700    705     1
    700    719     1
    700    720     1
    701    703     1
    701    718     1
    701    713     1
    701    714     1
    702    703     1
    702    718     1
    702    713     1
    702    714     1
    703    716     1
    703    717     1
    704    715     1
    704    707     1
    704    708     1
    705    715     1
    705    707     1
    705    708     1
    707    724     1
    707    716     1
    707    717     1
    708    724     1
    708    716     1
    708    717     1
    710   1507     1
    710    722     1
    710    723     1
    711   1507     1
    711    722     1
    711    723     1
    713   1478     1
    713    719     1
    713    720     1
    714   1478     1
    714    719     1
    714    720     1
    718   1470     1
    718   1471     1
    719   1469     1
    720   1469     1
    721   1499     1
    721   1500     1
    722   1498     1
    723   1498     1
    725    739     1
    725    740     1
    725    742     1
    725    743     1
    725    736     1
    725    737     1
    726    730     1
    726    731     1
    726    733     1
    726    734     1
    726    751     1
    726    752     1
    727    729     1
    727    732     1
    727    750     1
    727    739     1
    727    740     1
    728    729     1
    728    732     1
    728    750     1
    728    739     1
    728    740     1
    729    733     1
    729    734     1
    729    748     1
    729    749     1
    730    732     1
    730    747     1
    730    742     1
    730    743     1
    731    732     1
    731    747     1
    731    742     1
    731    743     1
    732    745     1
    732    746     1
    733    744     1
    733    736     1
    733    737     1
    734    744     1
    734    736     1
    734    737     1
    736    753     1
    736    745     1
    736    746     1
    737    753     1
    737    745     1
    737    746     1
    739   1565     1
    739    751     1
    739    752     1
    740   1565     1
    740    751     1
    740    752     1
    742   1536     1
    742    748     1
    742    749     1
    743   1536     1
    743    748     1
    743    749     1
    747   1528     1
    747   1529     1
    748   1527     1
    749   1527     1
    750   1557     1
    750   1558     1
    751   1556     1
    752   1556     1
    754    768     1
    754    769     1
    754    771     1
    754    772     1
    754    765     1
    754    766     1
    755    759     1
    755    760     1
    755    762     1
    755    763     1
    755    780     1
    755    781     1
    756    758     1
    756    761     1
    756    779     1
    756    768     1
    756    769     1
    757    758     1
    757    761     1
    757    779     1
    757    768     1
    757    769     1
    758    762     1
    758    763     1
    758    777     1
    758    778     1
    759    761     1
    759    776     1
    759    771     1
    759    772     1
    760    761     1
    760    776     1
    760    771     1
    760    772     1
    761    774     1
    761    775     1
    762    773     1
    762    765     1
    762    766     1
    763    773     1
    763    765     1
    763    766     1
    765    782     1
    765    774     1
    765    775     1
    766    782     1
    766    774     1
    766    775     1
    768   1623     1
    768    780     1
    768    781     1
    769   1623     1
    769    780     1
    769    781     1
    771   1594     1
    771    777     1
    771    778     1
    772   1594     1
    772    777     1
    772    778     1
    776   1586     1
    776   1587     1
    777   1585     1
    778   1585     1
    779   1615     1
    779   1616     1
    780   1614     1
    781   1614     1
    783    797     1
    783    798     1
    783    800     1
    783    801     1
    783    794     1
    783    795     1
    784    788     1
    784    789     1
    784    791     1
    784    792     1
    784    809     1
    784    810     1
    785    787     1
    785    790     1
    785    808     1
    785    797     1
    785    798     1
    786    787     1
    786    790     1
    786    808     1
    786    797     1
    786    798     1
    787    791     1
    787    792     1
    787    806     1
    787    807     1
    788    790     1
    788    805     1
    788    800     1
    788    801     1
    789    790     1
    789    805     1
    789    800     1
    789    801     1
    790    803     1
    790    804     1
    791    802     1
    791    794     1
    791    795     1
    792    802     1
    792    794     1
    792    795     1
    794    811     1
    794    803     1
    794    804     1
    795    811     1
    795    803     1
    795    804     1
    797   1681     1
    797    809     1
    797    810     1
    798   1681     1
    798    809     1
    798    810     1
    800   1652     1
    800    806     1
    800    807     1
    801   1652     1
    801    806     1
    801    807     1
    805   1644     1
    805   1645     1
    806   1643     1
    807   1643     1
    808   1673     1
    808   1674     1
    809   1672     1
    810   1672     1
    812    826     1
    812    827     1
    812    829     1
    812    830     1
    812    823     1
    812    824     1
    813    817     1
    813    818     1
    813    820     1
    813    821     1
    813    838     1
    813    839     1
    814    816     1
    814    819     1
    814    837     1
    814    826     1
    814    827     1
    815    816     1
    815    819     1
    815    837     1
    815    826     1
    815    827     1
    816    820     1
    816    821     1
    816    835     1
    816    836     1
    817    819     1
    817    834     1
    817    829     1
    817    830     1
    818    819     1
    818    834     1
    818    829     1
    818    830     1
    819    832     1
    819    833     1
    820    831     1
    820    823     1
    820    824     1
    821    831     1
    821    823     1
    821    824     1
    823    840     1
    823    832     1
    823    833     1
    824    840     1
    824    832     1
    824    833     1
    826   1739     1
    826    838     1
    826    839     1
    827   1739     1
    827    838     1
    827    839     1
    829   1710     1
    829    835     1
    829    836     1
    830   1710     1
    830    835     1
    830    836     1
    834   1702     1
    834   1703     1
    835   1701     1
    836   1701     1
    837   1731     1
    837   1732     1
    838   1730     1
    839   1730     1
    841    855     1
    841    856     1
    841    858     1
    841    859     1
    841    852     1
    841    853     1
    842    846     1
    842    847     1
    842    849     1
    842    850     1
    842    867     1
    842    868     1
    843    845     1
    843    848     1
    843    866     1
    843    855     1
    843    856     1
    844    845     1
    844    848     1
    844    866     1
    844    855     1
    844    856     1
    845    849     1
    845    850     1
    845    864     1
    845    865     1
    846    848     1
    846    863     1
    846    858     1
    846    859     1
    847    848     1
    847    863     1
    847    858     1
    847    859     1
    848    861     1
    848    862     1
    849    860     1
    849    852     1
    849    853     1
    850    860     1
    850    852     1
    850    853     1
    852    869     1
    852    861     1
    852    862     1
    853    869     1
    853    861     1
    853    862     1
    855   1797     1
    855    867     1
    855    868     1
    856   1797     1
    856    867     1
    856    868     1
    858   1768     1
    858    864     1
    858    865     1
    859   1768     1
    859    864     1
    859    865     1
    863   1760     1
    863   1761     1
    864   1759     1
    865   1759     1
    866   1789     1
    866   1790     1
    867   1788     1
    868   1788     1
    870    884     1
    870    885     1
    870    887     1
    870    888     1
    870    881     1
    870    882     1
    871    875     1
    871    876     1
    871    878     1
    871    879     1
    871    896     1
    871    897     1
    872    874     1
    872    877     1
    872    895     1
    872    884     1
    872    885     1
    873    874     1
    873    877     1
    873    895     1
    873    884     1
    873    885     1
    874    878     1
    874    879     1
    874    893     1
    874    894     1
    875    877     1
    875    892     1
    875    887     1
    875    888     1
    876    877     1
    876    892     1
    876    887     1
    876    888     1
    877    890     1
    877    891     1
    878    889     1
    878    881     1
    878    882     1
    879    889     1
    879    881     1
    879    882     1
    881    898     1
    881    890     1
    881    891     1
    882    898     1
    882    890     1
    882    891     1
    884   1855     1
    884    896     1
    884    897     1
    885   1855     1
    885    896     1
    885    897     1
    887   1826     1
    887    893     1
    887    894     1
    888   1826     1
    888    893     1
    888    894     1
    892   1818     1
    892   1819     1
    893   1817     1
    894   1817     1
    895   1847     1
    895   1848     1
    896   1846     1
    897   1846     1
    899    913     1
    899    914     1
    899    916     1
    899    917     1
    899    910     1
    899    911     1
    900    904     1
    900    905     1
    900    907     1
    900    908     1
    900    925     1
    900    926     1
    901    903     1
    901    906     1
    901    924     1
    901    913     1
    901    914     1
    902    903     1
    902    906     1
    902    924     1
    902    913     1
    902    914     1
    903    907     1
    903    908     1
    903    922     1
    903    923     1
    904    906     1
    904    921     1
    904    916     1
    904    917     1
    905    906     1
    905    921     1
    905    916     1
    905    917     1
    906    919     1
    906    920     1
    907    918     1
    907    910     1
    907    911     1
    908    918     1
    908    910     1
    908    911     1
    910    927     1
    910    919     1
    910    920     1
    911    927     1
    911    919     1
    911    920     1
    913   1913     1
    913    925     1
    913    926     1
    914   1913     1
    914    925     1
    914    926     1
    916   1884     1
    916    922     1
    916    923     1
    917   1884     1
    917    922     1
    917    923     1
    921   1876     1
    921   1877     1
    922   1875     1
    923   1875     1
    924   1905     1
    924   1906     1
    925   1904     1
    926   1904     1
    928    942     1
    928    943     1
    928    945     1
    928    946     1
    928    939     1
    928    940     1
    929    933     1
    929    934     1
    929    936     1
    929    937     1
    929    954     1
    929    955     1
    930    932     1
    930    935     1
    930    953     1
    930    942     1
    930    943     1
    931    932     1
    931    935     1
    931    953     1
    931    942     1
    931    943     1
    932    936     1
    932    937     1
    932    951     1
    932    952     1
    933    935     1
    933    950     1
    933    945     1
    933    946     1
    934    935     1
    934    950     1
    934    945     1
    934    946     1
    935    948     1
    935    949     1
    936    947     1
    936    939     1
    936    940     1
    937    947     1
    937    939     1
    937    940     1
    939    956     1
    939    948     1
    939    949     1
    940    956     1
    940    948     1
    940    949     1
    942   1971     1
    942    954     1
    942    955     1
    943   1971     1
    943    954     1
    943    955     1
    945   1942     1
    945    951     1
    945    952     1
    946   1942     1
    946    951     1
    946    952     1
    950   1934     1
    950   1935     1
    951   1933     1
    952   1933     1
    953   1963     1
    953   1964     1
    954   1962     1
    955   1962     1
    957    971     1
    957    972     1
    957    974     1
    957    975     1
    957    968     1
    957    969     1
    958    962     1
    958    963     1
    958    965     1
    958    966     1
    958    983     1
    958    984     1
    959    961     1
    959    964     1
    959    982     1
    959    971     1
    959    972     1
    960    961     1
    960    964     1
    960    982     1
    960    971     1
    960    972     1
    961    965     1
    961    966     1
    961    980     1
    961    981     1
    962    964     1
    962    979     1
    962    974     1
    962    975     1
    963    964     1
    963    979     1
    963    974     1
    963    975     1
    964    977     1
    964    978     1
    965    976     1
    965    968     1
    965    969     1
    966    976     1
    966    968     1
    966    969     1
    968    985     1
    968    977     1
    968    978     1
    969    985     1
    969    977     1
    969    978     1
    971   2029     1
    971    983     1
    971    984     1
    972   2029     1
    972    983     1
    972    984     1
    974   2000     1
    974    980     1
    974    981     1
    975   2000     1
    975    980     1
    975    981     1
    979   1992     1
    979   1993     1
    980   1991     1
    981   1991     1
    982   2021     1
    982   2022     1
    983   2020     1
    984   2020     1
    986   1000     1
    986   1001     1
    986   1003     1
    986   1004     1
    986    997     1
    986    998     1
    987    991     1
    987    992     1
    987    994     1
    987    995     1
    987   1012     1
    987   1013     1
    988    990     1
    988    993     1
    988   1011     1
    988   1000     1
    988   1001     1
    989    990     1
    989    993     1
    989   1011     1
    989   1000     1
    989   1001     1
    990    994     1
    990    995     1
    990   1009     1
    990   1010     1
    991    993     1
    991   1008     1
    991   1003     1
    991   1004     1
    992    993     1
    992   1008     1
    992   1003     1
    992   1004     1
    993   1006     1
    993   1007     1
    994   1005     1
    994    997     1
    994    998     1
    995   1005     1
    995    997     1
    995    998     1
    997   1014     1
    997   1006     1
    997   1007     1
    998   1014     1
    998   1006     1
    998   1007     1
   1000   2087     1
   1000   1012     1
   1000   1013     1
   1001   2087     1
   1001   1012     1
   1001   1013     1
   1003   2058     1
   1003   1009     1
   1003   1010     1
   1004   2058     1
   1004   1009     1
   1004   1010     1
   1008   2050     1
   1008   2051     1
   1009   2049     1
   1010   2049     1
   1011   2079     1
   1011   2080     1
   1012   2078     1
   1013   2078     1
   1015   1029     1
   1015   1030     1
   1015   1032     1
   1015   1033     1
   1015   1026     1
   1015   1027     1
   1016   1020     1
   1016   1021     1
   1016   1023     1
   1016   1024     1
   1016   1041     1
   1016   1042     1
   1017   1019     1
   1017   1022     1
   1017   1040     1
   1017   1029     1
   1017   1030     1
   1018   1019     1
   1018   1022     1
   1018   1040     1
   1018   1029     1
   1018   1030     1
   1019   1023     1
   1019   1024     1
   1019   1038     1
   1019   1039     1
   1020   1022     1
   1020   1037     1
   1020   1032     1
   1020   1033     1
   1021   1022     1
   1021   1037     1
   1021   1032     1
   1021   1033     1
   1022   1035     1
   1022   1036     1
   1023   1034     1
   1023   1026     1
   1023   1027     1
   1024   1034     1
   1024   1026     1
   1024   1027     1
   1026   1043     1
   1026   1035     1
   1026   1036     1
   1027   1043     1
   1027   1035     1
   1027   1036     1
   1029   2145     1
   1029   1041     1
   1029   1042     1
   1030   2145     1
   1030   1041     1
   1030   1042     1
   1032   2116     1
   1032   1038     1
   1032   1039     1
   1033   2116     1
   1033   1038     1
   1033   1039     1
   1037   2108     1
   1037   2109     1
   1038   2107     1
   1039   2107     1
   1040   2137     1
   1040   2138     1
   1041   2136     1
   1042   2136     1
   1044   1058     1
   1044   1059     1
   1044   1061     1
   1044   1062     1
   1044   1055     1
   1044   1056     1
   1045   1049     1
   1045   1050     1
   1045   1052     1
   1045   1053     1
   1045   1070     1
   1045   1071     1
   1046   1048     1
   1046   1051     1
   1046   1069     1
   1046   1058     1
   1046   1059     1
   1047   1048     1
   1047   1051     1
   1047   1069     1
   1047   1058     1
   1047   1059     1
   1048   1052     1
   1048   1053     1
   1048   1067     1
   1048   1068     1
   1049   1051     1
   1049   1066     1
   1049   1061     1
   1049   1062     1
   1050   1051     1
   1050   1066     1
   1050   1061     1
   1050   1062     1
   1051   1064     1
   1051   1065     1
   1052   1063     1
   1052   1055     1
   1052   1056     1
   1053   1063     1
   1053   1055     1
   1053   1056     1
   1055   1072     1
   1055   1064     1
   1055   1065     1
   1056   1072     1
   1056   1064     1
   1056   1065     1
   1058   2203     1
   1058   1070     1
   1058   1071     1
   1059   2203     1
   1059   1070     1
   1059   1071     1
   1061   2174     1
   1061   1067     1
   1061   1068     1
   1062   2174     1
   1062   1067     1
   1062   1068     1
   1066   2166     1
   1066   2167     1
   1067   2165     1
   1068   2165     1
   1069   2195     1
   1069   2196     1
   1070   2194     1
   1071   2194     1
   1073   1087     1
   1073   1088     1
   1073   1090     1
   1073   1091     1
   1073   1084     1
   1073   1085     1
   1074   1078     1
   1074   1079     1
   1074   1081     1
   1074   1082     1
   1074   1099     1
   1074   1100     1
   1075   1077     1
   1075   1080     1
   1075   1098     1
   1075   1087     1
   1075   1088     1
   1076   1077     1
   1076   1080     1
   1076   1098     1
   1076   1087     1
   1076   1088     1
   1077   1081     1
   1077   1082     1
   1077   1096     1
   1077   1097     1
   1078   1080     1
   1078   1095     1
   1078   1090     1
   1078   1091     1
   1079   1080     1
   1079   1095     1
   1079   1090     1
   1079   1091     1
   1080   1093     1
   1080   1094     1
   1081   1092     1
   1081   1084     1
   1081   1085     1
   1082   1092     1
   1082   1084     1
   1082   1085     1
   1084   1101     1
   1084   1093     1
   1084   1094     1
   1085   1101     1
   1085   1093     1
   1085   1094     1
   1087   2261     1
   1087   1099     1
   1087   1100     1
   1088   2261     1
   1088   1099     1
   1088   1100     1
   1090   2232     1
   1090   1096     1
   1090   1097     1
   1091   2232     1
   1091   1096     1
   1091   1097     1
   1095   2224     1
   1095   2225     1
   1096   2223     1
   1097   2223     1
   1098   2253     1
   1098   2254     1
   1099   2252     1
   1100   2252     1
   1102   1116     1
   1102   1117     1
   1102   1119     1
   1102   1120     1
   1102   1113     1
   1102   1114     1
   1103   1107     1
   1103   1108     1
   1103   1110     1
   1103   1111     1
   1103   1128     1
   1103   1129     1
   1104   1106     1
   1104   1109     1
   1104   1127     1
   1104   1116     1
   1104   1117     1
   1105   1106     1
   1105   1109     1
   1105   1127     1
   1105   1116     1
   1105   1117     1
   1106   1110     1
   1106   1111     1
   1106   1125     1
   1106   1126     1
   1107   1109     1
   1107   1124     1
   1107   1119     1
   1107   1120     1
   1108   1109     1
   1108   1124     1
   1108   1119     1
   1108   1120     1
   1109   1122     1
   1109   1123     1
   1110   1121     1
   1110   1113     1
   1110   1114     1
   1111   1121     1
   1111   1113     1
   1111   1114     1
   1113   1130     1
   1113   1122     1
   1113   1123     1
   1114   1130     1
   1114   1122     1
   1114   1123     1
   1116   2319     1
   1116   1128     1
   1116   1129     1
   1117   2319     1
   1117   1128     1
   1117   1129     1
   1119   2290     1
   1119   1125     1
   1119   1126     1
   1120   2290     1
   1120   1125     1
   1120   1126     1
   1124   2282     1
   1124   2283     1
   1125   2281     1
   1126   2281     1
   1127   2311     1
   1127   2312     1
   1128   2310     1
   1129   2310     1
   1131   1145     1
   1131   1146     1
   1131   1148     1
   1131   1149     1
   1131   1142     1
   1131   1143     1
   1132   1136     1
   1132   1137     1
   1132   1139     1
   1132   1140     1
   1132   1157     1
   1132   1158     1
   1133   1135     1
   1133   1138     1
   1133   1156     1
   1133   1145     1
   1133   1146     1
   1134   1135     1
   1134   1138     1
   1134   1156     1
   1134   1145     1
   1134   1146     1
   1135   1139     1
   1135   1140     1
   1135   1154     1
   1135   1155     1
   1136   1138     1
   1136   1153     1
   1136   1148     1
   1136   1149     1
   1137   1138     1
   1137   1153     1
   1137   1148     1
   1137   1149     1
   1138   1151     1
   1138   1152     1
   1139   1150     1
   1139   1142     1
   1139   1143     1
   1140   1150     1
   1140   1142     1
   1140   1143     1
   1142   1159     1
   1142   1151     1
   1142   1152     1
   1143   1159     1
   1143   1151     1
   1143   1152     1
   1145   2377     1
   1145   1157     1
   1145   1158     1
   1146   2377     1
   1146   1157     1
   1146   1158     1
   1148   2348     1
   1148   1154     1
   1148   1155     1
   1149   2348     1
   1149   1154     1
   1149   1155     1
   1153   2340     1
   1153   2341     1
   1154   2339     1
   1155   2339     1
   1156   2369     1
   1156   2370     1
   1157   2368     1
   1158   2368     1
   1160   1174     1
   1160   1175     1
   1160   1177     1
   1160   1178     1
   1160   1171     1
   1160   1172     1
   1161   1165     1
   1161   1166     1
   1161   1168     1
   1161   1169     1
   1161   1186     1
   1161   1187     1
   1162   1164     1
   1162   1167     1
   1162   1185     1
   1162   1174     1
   1162   1175     1
   1163   1164     1
   1163   1167     1
   1163   1185     1
   1163   1174     1
   1163   1175     1
   1164   1168     1
   1164   1169     1
   1164   1183     1
   1164   1184     1
   1165   1167     1
   1165   1182     1
   1165   1177     1
   1165   1178     1
   1166   1167     1
   1166   1182     1
   1166   1177     1
   1166   1178     1
   1167   1180     1
   1167   1181     1
   1168   1179     1
   1168   1171     1
   1168   1172     1
   1169   1179     1
   1169   1171     1
   1169   1172     1
   1171   1188     1
   1171   1180     1
   1171   1181     1
   1172   1188     1
   1172   1180     1
   1172   1181     1
   1174   2435     1
   1174   1186     1
   1174   1187     1
   1175   2435     1
   1175   1186     1
   1175   1187     1
   1177   2406     1
   1177   1183     1
   1177   1184     1
   1178   2406     1
   1178   1183     1
   1178   1184     1
   1182   2398     1
   1182   2399     1
   1183   2397     1
   1184   2397     1
   1185   2427     1
   1185   2428     1
   1186   2426     1
   1187   2426     1
   1189   1203     1
   1189   1204     1
   1189   1206     1
   1189   1207     1
   1189   1200     1
   1189   1201     1
   1190   1194     1
   1190   1195     1
   1190   1197     1
   1190   1198     1
   1190   1215     1
   1190   1216     1
   1191   1193     1
   1191   1196     1
   1191   1214     1
   1191   1203     1
   1191   1204     1
   1192   1193     1
   1192   1196     1
   1192   1214     1
   1192   1203     1
   1192   1204     1
   1193   1197     1
   1193   1198     1
   1193   1212     1
   1193   1213     1
   1194   1196     1
   1194   1211     1
   1194   1206     1
   1194   1207     1
   1195   1196     1
   1195   1211     1
   1195   1206     1
   1195   1207     1
   1196   1209     1
   1196   1210     1
   1197   1208     1
   1197   1200     1
   1197   1201     1
   1198   1208     1
   1198   1200     1
   1198   1201     1
   1200   1217     1
   1200   1209     1
   1200   1210     1
   1201   1217     1
   1201   1209     1
   1201   1210     1
   1203   2493     1
   1203   1215     1
   1203   1216     1
   1204   2493     1
   1204   1215     1
   1204   1216     1
   1206   2464     1
   1206   1212     1
   1206   1213     1
   1207   2464     1
   1207   1212     1
   1207   1213     1
   1211   2456     1
   1211   2457     1
   1212   2455     1
   1213   2455     1
   1214   2485     1
   1214   2486     1
   1215   2484     1
   1216   2484     1
   1218   1232     1
   1218   1233     1
   1218   1235     1
   1218   1236     1
   1218   1229     1
   1218   1230     1
   1219   1223     1
   1219   1224     1
   1219   1226     1
   1219   1227     1
   1219   1244     1
   1219   1245     1
   1220   1222     1
   1220   1225     1
   1220   1243     1
   1220   1232     1
   1220   1233     1
   1221   1222     1
   1221   1225     1
   1221   1243     1
   1221   1232     1
   1221   1233     1
   1222   1226     1
   1222   1227     1
   1222   1241     1
   1222   1242     1
   1223   1225     1
   1223   1240     1
   1223   1235     1
   1223   1236     1
   1224   1225     1
   1224   1240     1
   1224   1235     1
   1224   1236     1
   1225   1238     1
   1225   1239     1
   1226   1237     1
   1226   1229     1
   1226   1230     1
   1227   1237     1
   1227   1229     1
   1227   1230     1
   1229   1246     1
   1229   1238     1
   1229   1239     1
   1230   1246     1
   1230   1238     1
   1230   1239     1
   1232   2551     1
   1232   1244     1
   1232   1245     1
   1233   2551     1
   1233   1244     1
   1233   1245     1
   1235   2522     1
   1235   1241     1
   1235   1242     1
   1236   2522     1
   1236   1241     1
   1236   1242     1
   1240   2514     1
   1240   2515     1
   1241   2513     1
   1242   2513     1
   1243   2543     1
   1243   2544     1
   1244   2542     1
   1245   2542     1
   1247   1261     1
   1247   1262     1
   1247   1264     1
   1247   1265     1
   1247   1258     1
   1247   1259     1
   1248   1252     1
   1248   1253     1
   1248   1255     1
   1248   1256     1
   1248   1273     1
   1248   1274     1
   1249   1251     1
   1249   1254     1
   1249   1272     1
   1249   1261     1
   1249   1262     1
   1250   1251     1
   1250   1254     1
   1250   1272     1
   1250   1261     1
   1250   1262     1
   1251   1255     1
   1251   1256     1
   1251   1270     1
   1251   1271     1
   1252   1254     1
   1252   1269     1
   1252   1264     1
   1252   1265     1
   1253   1254     1
   1253   1269     1
   1253   1264     1
   1253   1265     1
   1254   1267     1
   1254   1268     1
   1255   1266     1
   1255   1258     1
   1255   1259     1
   1256   1266     1
   1256   1258     1
   1256   1259     1
   1258   1275     1
   1258   1267     1
   1258   1268     1
   1259   1275     1
   1259   1267     1
   1259   1268     1
   1261   2609     1
   1261   1273     1
   1261   1274     1
   1262   2609     1
   1262   1273     1
   1262   1274     1
   1264   2580     1
   1264   1270     1
   1264   1271     1
   1265   2580     1
   1265   1270     1
   1265   1271     1
   1269   2572     1
   1269   2573     1
   1270   2571     1
   1271   2571     1
   1272   2601     1
   1272   2602     1
   1273   2600     1
   1274   2600     1
   1276   1290     1
   1276   1291     1
   1276   1293     1
   1276   1294     1
   1276   1287     1
   1276   1288     1
   1277   1281     1
   1277   1282     1
   1277   1284     1
   1277   1285     1
   1277   1302     1
   1277   1303     1
   1278   1280     1
   1278   1283     1
   1278   1301     1
   1278   1290     1
   1278   1291     1
   1279   1280     1
   1279   1283     1
   1279   1301     1
   1279   1290     1
   1279   1291     1
   1280   1284     1
   1280   1285     1
   1280   1299     1
   1280   1300     1
   1281   1283     1
   1281   1298     1
   1281   1293     1
   1281   1294     1
   1282   1283     1
   1282   1298     1
   1282   1293     1
   1282   1294     1
   1283   1296     1
   1283   1297     1
   1284   1295     1
   1284   1287     1
   1284   1288     1
   1285   1295     1
   1285   1287     1
   1285   1288     1
   1287   1304     1
   1287   1296     1
   1287   1297     1
   1288   1304     1
   1288   1296     1
   1288   1297     1
   1290   2667     1
   1290   1302     1
   1290   1303     1
   1291   2667     1
   1291   1302     1
   1291   1303     1
   1293   2638     1
   1293   1299     1
   1293   1300     1
   1294   2638     1
   1294   1299     1
   1294   1300     1
   1298   2630     1
   1298   2631     1
   1299   2629     1
   1300   2629     1
   1301   2659     1
   1301   2660     1
   1302   2658     1
   1303   2658     1
   1305   1319     1
   1305   1320     1
   1305   1322     1
   1305   1323     1
   1305   1316     1
   1305   1317     1
   1306   1310     1
   1306   1311     1
   1306   1313     1
   1306   1314     1
   1306   1331     1
   1306   1332     1
   1307   1309     1
   1307   1312     1
   1307   1330     1
   1307   1319     1
   1307   1320     1
   1308   1309     1
   1308   1312     1
   1308   1330     1
   1308   1319     1
   1308   1320     1
   1309   1313     1
   1309   1314     1
   1309   1328     1
   1309   1329     1
   1310   1312     1
   1310   1327     1
   1310   1322     1
   1310   1323     1
   1311   1312     1
   1311   1327     1
   1311   1322     1
   1311   1323     1
   1312   1325     1
   1312   1326     1
   1313   1324     1
   1313   1316     1
   1313   1317     1
   1314   1324     1
   1314   1316     1
   1314   1317     1
   1316   1333     1
   1316   1325     1
   1316   1326     1
   1317   1333     1
   1317   1325     1
   1317   1326     1
   1319   2725     1
   1319   1331     1
   1319   1332     1
   1320   2725     1
   1320   1331     1
   1320   1332     1
   1322   2696     1
   1322   1328     1
   1322   1329     1
   1323   2696     1
   1323   1328     1
   1323   1329     1
   1327   2688     1
   1327   2689     1
   1328   2687     1
   1329   2687     1
   1330   2717     1
   1330   2718     1
   1331   2716     1
   1332   2716     1
   1334   1348     1
   1334   1349     1
   1334   1351     1
   1334   1352     1
   1334   1345     1
   1334   1346     1
   1335   1339     1
   1335   1340     1
   1335   1342     1
   1335   1343     1
   1335   1360     1
   1335   1361     1
   1336   1338     1
   1336   1341     1
   1336   1359     1
   1336   1348     1
   1336   1349     1
   1337   1338     1
   1337   1341     1
   1337   1359     1
   1337   1348     1
   1337   1349     1
   1338   1342     1
   1338   1343     1
   1338   1357     1
   1338   1358     1
   1339   1341     1
   1339   1356     1
   1339   1351     1
   1339   1352     1
   1340   1341     1
   1340   1356     1
   1340   1351     1
   1340   1352     1
   1341   1354     1
   1341   1355     1
   1342   1353     1
   1342   1345     1
   1342   1346     1
   1343   1353     1
   1343   1345     1
   1343   1346     1
   1345   1362     1
   1345   1354     1
   1345   1355     1
   1346   1362     1
   1346   1354     1
   1346   1355     1
   1348   2783     1
   1348   1360     1
   1348   1361     1
   1349   2783     1
   1349   1360     1
   1349   1361     1
   1351   2754     1
   1351   1357     1
   1351   1358     1
   1352   2754     1
   1352   1357     1
   1352   1358     1
   1356   2746     1
   1356   2747     1
   1357   2745     1
   1358   2745     1
   1359   2775     1
   1359   2776     1
   1360   2774     1
   1361   2774     1
   1363   1377     1
   1363   1378     1
   1363   1380     1
   1363   1381     1
   1363   1374     1
   1363   1375     1
   1364   1368     1
   1364   1369     1
   1364   1371     1
   1364   1372     1
   1364   1389     1
   1364   1390     1
   1365   1367     1
   1365   1370     1
   1365   1388     1
   1365   1377     1
   1365   1378     1
   1366   1367     1
   1366   1370     1
   1366   1388     1
   1366   1377     1
   1366   1378     1
   1367   1371     1
   1367   1372     1
   1367   1386     1
   1367   1387     1
   1368   1370     1
   1368   1385     1
   1368   1380     1
   1368   1381     1
   1369   1370     1
   1369   1385     1
   1369   1380     1
   1369   1381     1
   1370   1383     1
   1370   1384     1
   1371   1382     1
   1371   1374     1
   1371   1375     1
   1372   1382     1
   1372   1374     1
   1372   1375     1
   1374   1391     1
   1374   1383     1
   1374   1384     1
   1375   1391     1
   1375   1383     1
   1375   1384     1
   1377   2841     1
   1377   1389     1
   1377   1390     1
   1378   2841     1
   1378   1389     1
   1378   1390     1
   1380   2812     1
   1380   1386     1
   1380   1387     1
   1381   2812     1
   1381   1386     1
   1381   1387     1
   1385   2804     1
   1385   2805     1
   1386   2803     1
   1387   2803     1
   1388   2833     1
   1388   2834     1
   1389   2832     1
   1390   2832     1
   1392   1406     1
   1392   1407     1
   1392   1409     1
   1392   1410     1
   1392   1403     1
   1392   1404     1
   1393   1397     1
   1393   1398     1
   1393   1400     1
   1393   1401     1
   1393   1418     1
   1393   1419     1
   1394   1396     1
   1394   1399     1
   1394   1417     1
   1394   1406     1
   1394   1407     1
   1395   1396     1
   1395   1399     1
   1395   1417     1
   1395   1406     1
   1395   1407     1
   1396   1400     1
   1396   1401     1
   1396   1415     1
   1396   1416     1
   1397   1399     1
   1397   1414     1
   1397   1409     1
   1397   1410     1
   1398   1399     1
   1398   1414     1
   1398   1409     1
   1398   1410     1
   1399   1412     1
   1399   1413     1
   1400   1411     1
   1400   1403     1
   1400   1404     1
   1401   1411     1
   1401   1403     1
   1401   1404     1
   1403   1420     1
   1403   1412     1
   1403   1413     1
   1404   1420     1
   1404   1412     1
   1404   1413     1
   1406   2899     1
   1406   1418     1
   1406   1419     1
   1407   2899     1
   1407   1418     1
   1407   1419     1
   1409   2870     1
   1409   1415     1
   1409   1416     1
   1410   2870     1
   1410   1415     1
   1410   1416     1
   1414   2862     1
   1414   2863     1
   1415   2861     1
   1416   2861     1
   1417   2891     1
   1417   2892     1
   1418   2890     1
   1419   2890     1
   1421   1435     1
   1421   1436     1
   1421   1438     1
   1421   1439     1
   1421   1432     1
   1421   1433     1
   1422   1426     1
   1422   1427     1
   1422   1429     1
   1422   1430     1
   1422   1447     1
   1422   1448     1
   1423   1425     1
   1423   1428     1
   1423   1446     1
   1423   1435     1
   1423   1436     1
   1424   1425     1
   1424   1428     1
   1424   1446     1
   1424   1435     1
   1424   1436     1
   1425   1429     1
   1425   1430     1
   1425   1444     1
   1425   1445     1
   1426   1428     1
   1426   1443     1
   1426   1438     1
   1426   1439     1
   1427   1428     1
   1427   1443     1
   1427   1438     1
   1427   1439     1
   1428   1441     1
   1428   1442     1
   1429   1440     1
   1429   1432     1
   1429   1433     1
   1430   1440     1
   1430   1432     1
   1430   1433     1
   1432   1449     1
   1432   1441     1
   1432   1442     1
   1433   1449     1
   1433   1441     1
   1433   1442     1
   1435   2957     1
   1435   1447     1
   1435   1448     1
   1436   2957     1
   1436   1447     1
   1436   1448     1
   1438   2928     1
   1438   1444     1
   1438   1445     1
   1439   2928     1
   1439   1444     1
   1439   1445     1
   1443   2920     1
   1443   2921     1
   1444   2919     1
   1445   2919     1
   1446   2949     1
   1446   2950     1
   1447   2948     1
   1448   2948     1
   1450   1464     1
   1450   1465     1
   1450   1467     1
   1450   1468     1
   1450   1461     1
   1450   1462     1
   1451   1455     1
   1451   1456     1
   1451   1458     1
   1451   1459     1
   1451   1476     1
   1451   1477     1
   1452   1454     1
   1452   1457     1
   1452   1475     1
   1452   1464     1
   1452   1465     1
   1453   1454     1
   1453   1457     1
   1453   1475     1
   1453   1464     1
   1453   1465     1
   1454   1458     1
   1454   1459     1
   1454   1473     1
   1454   1474     1
   1455   1457     1
   1455   1472     1
   1455   1467     1
   1455   1468     1
   1456   1457     1
   1456   1472     1
   1456   1467     1
   1456   1468     1
   1457   1470     1
   1457   1471     1
   1458   1469     1
   1458   1461     1
   1458   1462     1
   1459   1469     1
   1459   1461     1
   1459   1462     1
   1461   1478     1
   1461   1470     1
   1461   1471     1
   1462   1478     1
   1462   1470     1
   1462   1471     1
   1464   3015     1
   1464   1476     1
   1464   1477     1
   1465   3015     1
   1465   1476     1
   1465   1477     1
   1467   2986     1
   1467   1473     1
   1467   1474     1
   1468   2986     1
   1468   1473     1
   1468   1474     1
   1472   2978     1
   1472   2979     1
   1473   2977     1
   1474   2977     1
   1475   3007     1
   1475   3008     1
   1476   3006     1
   1477   3006     1
   1479   1493     1
   1479   1494     1
   1479   1496     1
   1479   1497     1
   1479   1490     1
   1479   1491     1
   1480   1484     1
   1480   1485     1
   1480   1487     1
   1480   1488     1
   1480   1505     1
   1480   1506     1
   1481   1483     1
   1481   1486     1
   1481   1504     1
   1481   1493     1
   1481   1494     1
   1482   1483     1
   1482   1486     1
   1482   1504     1
   1482   1493     1
   1482   1494     1
   1483   1487     1
   1483   1488     1
   1483   1502     1
   1483   1503     1
   1484   1486     1
   1484   1501     1
   1484   1496     1
   1484   1497     1
   1485   1486     1
   1485   1501     1
   1485   1496     1
   1485   1497     1
   1486   1499     1
   1486   1500     1
   1487   1498     1
   1487   1490     1
   1487   1491     1
   1488   1498     1
   1488   1490     1
   1488   1491     1
   1490   1507     1
   1490   1499     1
   1490   1500     1
   1491   1507     1
   1491   1499     1
   1491   1500     1
   1493   3073     1
   1493   1505     1
   1493   1506     1
   1494   3073     1
   1494   1505     1
   1494   1506     1
   1496   3044     1
   1496   1502     1
   1496   1503     1
   1497   3044     1
   1497   1502     1
   1497   1503     1
   1501   3036     1
   1501   3037     1
   1502   3035     1
   1503   3035     1
   1504   3065     1
   1504   3066     1
   1505   3064     1
   1506   3064     1
   1508   1522     1
   1508   1523     1
   1508   1525     1
   1508   1526     1
   1508   1519     1
   1508   1520     1
   1509   1513     1
   1509   1514     1
   1509   1516     1
   1509   1517     1
   1509   1534     1
   1509   1535     1
   1510   1512     1
   1510   1515     1
   1510   1533     1
   1510   1522     1
   1510   1523     1
   1511   1512     1
   1511   1515     1
   1511   1533     1
   1511   1522     1
   1511   1523     1
   1512   1516     1
   1512   1517     1
   1512   1531     1
   1512   1532     1
   1513   1515     1
   1513   1530     1
   1513   1525     1
   1513   1526     1
   1514   1515     1
   1514   1530     1
   1514   1525     1
   1514   1526     1
   1515   1528     1
   1515   1529     1
   1516   1527     1
   1516   1519     1
   1516   1520     1
   1517   1527     1
   1517   1519     1
   1517   1520     1
   1519   1536     1
   1519   1528     1
   1519   1529     1
   1520   1536     1
   1520   1528     1
   1520   1529     1
   1522   3131     1
   1522   1534     1
   1522   1535     1
   1523   3131     1
   1523   1534     1
   1523   1535     1
   1525   3102     1
   1525   1531     1
   1525   1532     1
   1526   3102     1
   1526   1531     1
   1526   1532     1
   1530   3094     1
   1530   3095     1
   1531   3093     1
   1532   3093     1
   1533   3123     1
   1533   3124     1
   1534   3122     1
   1535   3122     1
   1537   1551     1
   1537   1552     1
   1537   1554     1
   1537   1555     1
   1537   1548     1
   1537   1549     1
   1538   1542     1
   1538   1543     1
   1538   1545     1
   1538   1546     1
   1538   1563     1
   1538   1564     1
   1539   1541     1
   1539   1544     1
   1539   1562     1
   1539   1551     1
   1539   1552     1
   1540   1541     1
   1540   1544     1
   1540   1562     1
   1540   1551     1
   1540   1552     1
   1541   1545     1
   1541   1546     1
   1541   1560     1
   1541   1561     1
   1542   1544     1
   1542   1559     1
   1542   1554     1
   1542   1555     1
   1543   1544     1
   1543   1559     1
   1543   1554     1
   1543   1555     1
   1544   1557     1
   1544   1558     1
   1545   1556     1
   1545   1548     1
   1545   1549     1
   1546   1556     1
   1546   1548     1
   1546   1549     1
   1548   1565     1
   1548   1557     1
   1548   1558     1
   1549   1565     1
   1549   1557     1
   1549   1558     1
   1551   3189     1
   1551   1563     1
   1551   1564     1
   1552   3189     1
   1552   1563     1
   1552   1564     1
   1554   3160     1
   1554   1560     1
   1554   1561     1
   1555   3160     1
   1555   1560     1
   1555   1561     1
   1559   3152     1
   1559   3153     1
   1560   3151     1
   1561   3151     1
   1562   3181     1
   1562   3182     1
   1563   3180     1
   1564   3180     1
   1566   1580     1
   1566   1581     1
   1566   1583     1
   1566   1584     1
   1566   1577     1
   1566   1578     1
   1567   1571     1
   1567   1572     1
   1567   1574     1
   1567   1575     1
   1567   1592     1
   1567   1593     1
   1568   1570     1
   1568   1573     1
   1568   1591     1
   1568   1580     1
   1568   1581     1
   1569   1570     1
   1569   1573     1
   1569   1591     1
   1569   1580     1
   1569   1581     1
   1570   1574     1
   1570   1575     1
   1570   1589     1
   1570   1590     1
   1571   1573     1
   1571   1588     1
   1571   1583     1
   1571   1584     1
   1572   1573     1
   1572   1588     1
   1572   1583     1
   1572   1584     1
   1573   1586     1
   1573   1587     1
   1574   1585     1
   1574   1577     1
   1574   1578     1
   1575   1585     1
   1575   1577     1
   1575   1578     1
   1577   1594     1
   1577   1586     1
   1577   1587     1
   1578   1594     1
   1578   1586     1
   1578   1587     1
   1580   3247     1
   1580   1592     1
   1580   1593     1
   1581   3247     1
   1581   1592     1
   1581   1593     1
   1583   3218     1
   1583   1589     1
   1583   1590     1
   1584   3218     1
   1584   1589     1
   1584   1590     1
   1588   3210     1
   1588   3211     1
   1589   3209     1
   1590   3209     1
   1591   3239     1
   1591   3240     1
   1592   3238     1
   1593   3238     1
   1595   1609     1
   1595   1610     1
   1595   1612     1
   1595   1613     1
   1595   1606     1
   1595   1607     1
   1596   1600     1
   1596   1601     1
   1596   1603     1
   1596   1604     1
   1596   1621     1
   1596   1622     1
   1597   1599     1
   1597   1602     1
   1597   1620     1
   1597   1609     1
   1597   1610     1
   1598   1599     1
   1598   1602     1
   1598   1620     1
   1598   1609     1
   1598   1610     1
   1599   1603     1
   1599   1604     1
   1599   1618     1
   1599   1619     1
   1600   1602     1
   1600   1617     1
   1600   1612     1
   1600   1613     1
   1601   1602     1
   1601   1617     1
   1601   1612     1
   1601   1613     1
   1602   1615     1
   1602   1616     1
   1603   1614     1
   1603   1606     1
   1603   1607     1
   1604   1614     1
   1604   1606     1
   1604   1607     1
   1606   1623     1
   1606   1615     1
   1606   1616     1
   1607   1623     1
   1607   1615     1
   1607   1616     1
   1609   3305     1
   1609   1621     1
   1609   1622     1
   1610   3305     1
   1610   1621     1
   1610   1622     1
   1612   3276     1
   1612   1618     1
   1612   1619     1
   1613   3276     1
   1613   1618     1
   1613   1619     1
   1617   3268     1
   1617   3269     1
   1618   3267     1
   1619   3267     1
   1620   3297     1
   1620   3298     1
   1621   3296     1
   1622   3296     1
   1624   1638     1
   1624   1639     1
   1624   1641     1
   1624   1642     1
   1624   1635     1
   1624   1636     1
   1625   1629     1
   1625   1630     1
   1625   1632     1
   1625   1633     1
   1625   1650     1
   1625   1651     1
   1626   1628     1
   1626   1631     1
   1626   1649     1
   1626   1638     1
   1626   1639     1
   1627   1628     1
   1627   1631     1
   1627   1649     1
   1627   1638     1
   1627   1639     1
   1628   1632     1
   1628   1633     1
   1628   1647     1
   1628   1648     1
   1629   1631     1
   1629   1646     1
   1629   1641     1
   1629   1642     1
   1630   1631     1
   1630   1646     1
   1630   1641     1
   1630   1642     1
   1631   1644     1
   1631   1645     1
   1632   1643     1
   1632   1635     1
   1632   1636     1
   1633   1643     1
   1633   1635     1
   1633   1636     1
   1635   1652     1
   1635   1644     1
   1635   1645     1
   1636   1652     1
   1636   1644     1
   1636   1645     1
   1638   3363     1
   1638   1650     1
   1638   1651     1
   1639   3363     1
   1639   1650     1
   1639   1651     1
   1641   3334     1
   1641   1647     1
   1641   1648     1
   1642   3334     1
   1642   1647     1
   1642   1648     1
   1646   3326     1
   1646   3327     1
   1647   3325     1
   1648   3325     1
   1649   3355     1
   1649   3356     1
   1650   3354     1
   1651   3354     1
   1653   1667     1
   1653   1668     1
   1653   1670     1
   1653   1671     1
   1653   1664     1
   1653   1665     1
   1654   1658     1
   1654   1659     1
   1654   1661     1
   1654   1662     1
   1654   1679     1
   1654   1680     1
   1655   1657     1
   1655   1660     1
   1655   1678     1
   1655   1667     1
   1655   1668     1
   1656   1657     1
   1656   1660     1
   1656   1678     1
   1656   1667     1
   1656   1668     1
   1657   1661     1
   1657   1662     1
   1657   1676     1
   1657   1677     1
   1658   1660     1
   1658   1675     1
   1658   1670     1
   1658   1671     1
   1659   1660     1
   1659   1675     1
   1659   1670     1
   1659   1671     1
   1660   1673     1
   1660   1674     1
   1661   1672     1
   1661   1664     1
   1661   1665     1
   1662   1672     1
   1662   1664     1
   1662   1665     1
   1664   1681     1
   1664   1673     1
   1664   1674     1
   1665   1681     1
   1665   1673     1
   1665   1674     1
   1667   3421     1
   1667   1679     1
   1667   1680     1
   1668   3421     1
   1668   1679     1
   1668   1680     1
   1670   3392     1
   1670   1676     1
   1670   1677     1
   1671   3392     1
   1671   1676     1
   1671   1677     1
   1675   3384     1
   1675   3385     1
   1676   3383     1
   1677   3383     1
   1678   3413     1
   1678   3414     1
   1679   3412     1
   1680   3412     1
   1682   1696     1
   1682   1697     1
   1682   1699     1
   1682   1700     1
   1682   1693     1
   1682   1694     1
   1683   1687     1
   1683   1688     1
   1683   1690     1
   1683   1691     1
   1683   1708     1
   1683   1709     1
   1684   1686     1
   1684   1689     1
   1684   1707     1
   1684   1696     1
   1684   1697     1
   1685   1686     1
   1685   1689     1
   1685   1707     1
   1685   1696     1
   1685   1697     1
   1686   1690     1
   1686   1691     1
   1686   1705     1
   1686   1706     1
   1687   1689     1
   1687   1704     1
   1687   1699     1
   1687   1700     1
   1688   1689     1
   1688   1704     1
   1688   1699     1
   1688   1700     1
   1689   1702     1
   1689   1703     1
   1690   1701     1
   1690   1693     1
   1690   1694     1
   1691   1701     1
   1691   1693     1
   1691   1694     1
   1693   1710     1
   1693   1702     1
   1693   1703     1
   1694   1710     1
   1694   1702     1
   1694   1703     1
   1696   3479     1
   1696   1708     1
   1696   1709     1
   1697   3479     1
   1697   1708     1
   1697   1709     1
   1699   3450     1
   1699   1705     1
   1699   1706     1
   1700   3450     1
   1700   1705     1
   1700   1706     1
   1704   3442     1
   1704   3443     1
   1705   3441     1
   1706   3441     1
   1707   3471     1
   1707   3472     1
   1708   3470     1
   1709   3470     1
   1711   1725     1
   1711   1726     1
   1711   1728     1
   1711   1729     1
   1711   1722     1
   1711   1723     1
   1712   1716     1
   1712   1717     1
   1712   1719     1
   1712   1720     1
   1712   1737     1
   1712   1738     1
   1713   1715     1
   1713   1718     1
   1713   1736     1
   1713   1725     1
   1713   1726     1
   1714   1715     1
   1714   1718     1
   1714   1736     1
   1714   1725     1
   1714   1726     1
   1715   1719     1
   1715   1720     1
   1715   1734     1
   1715   1735     1
   1716   1718     1
   1716   1733     1
   1716   1728     1
   1716   1729     1
   1717   1718     1
   1717   1733     1
   1717   1728     1
   1717   1729     1
   1718   1731     1
   1718   1732     1
   1719   1730     1
   1719   1722     1
   1719   1723     1
   1720   1730     1
   1720   1722     1
   1720   1723     1
   1722   1739     1
   1722   1731     1
   1722   1732     1
   1723   1739     1
   1723   1731     1
   1723   1732     1
   1725   3537     1
   1725   1737     1
   1725   1738     1
   1726   3537     1
   1726   1737     1
   1726   1738     1
   1728   3508     1
   1728   1734     1
   1728   1735     1
   1729   3508     1
   1729   1734     1
   1729   1735     1
   1733   3500     1
   1733   3501     1
   1734   3499     1
   1735   3499     1
   1736   3529     1
   1736   3530     1
   1737   3528     1
   1738   3528     1
   1740   1754     1
   1740   1755     1
   1740   1757     1
   1740   1758     1
   1740   1751     1
   1740   1752     1
   1741   1745     1
   1741   1746     1
   1741   1748     1
   1741   1749     1
   1741   1766     1
   1741   1767     1
   1742   1744     1
   1742   1747     1
   1742   1765     1
   1742   1754     1
   1742   1755     1
   1743   1744     1
   1743   1747     1
   1743   1765     1
   1743   1754     1
   1743   1755     1
   1744   1748     1
   1744   1749     1
   1744   1763     1
   1744   1764     1
   1745   1747     1
   1745   1762     1
   1745   1757     1
   1745   1758     1
   1746   1747     1
   1746   1762     1
   1746   1757     1
   1746   1758     1
   1747   1760     1
   1747   1761     1
   1748   1759     1
   1748   1751     1
   1748   1752     1
   1749   1759     1
   1749   1751     1
   1749   1752     1
   1751   1768     1
   1751   1760     1
   1751   1761     1
   1752   1768     1
   1752   1760     1
   1752   1761     1
   1754   3595     1
   1754   1766     1
   1754   1767     1
   1755   3595     1
   1755   1766     1
   1755   1767     1
   1757   3566     1
   1757   1763     1
   1757   1764     1
   1758   3566     1
   1758   1763     1
   1758   1764     1
   1762   3558     1
   1762   3559     1
   1763   3557     1
   1764   3557     1
   1765   3587     1
   1765   3588     1
   1766   3586     1
   1767   3586     1
   1769   1783     1
   1769   1784     1
   1769   1786     1
   1769   1787     1
   1769   1780     1
   1769   1781     1
   1770   1774     1
   1770   1775     1
   1770   1777     1
   1770   1778     1
   1770   1795     1
   1770   1796     1
   1771   1773     1
   1771   1776     1
   1771   1794     1
   1771   1783     1
   1771   1784     1
   1772   1773     1
   1772   1776     1
   1772   1794     1
   1772   1783     1
   1772   1784     1
   1773   1777     1
   1773   1778     1
   1773   1792     1
   1773   1793     1
   1774   1776     1
   1774   1791     1
   1774   1786     1
   1774   1787     1
   1775   1776     1
   1775   1791     1
   1775   1786     1
   1775   1787     1
   1776   1789     1
   1776   1790     1
   1777   1788     1
   1777   1780     1
   1777   1781     1
   1778   1788     1
   1778   1780     1
   1778   1781     1
   1780   1797     1
   1780   1789     1
   1780   1790     1
   1781   1797     1
   1781   1789     1
   1781   1790     1
   1783   3653     1
   1783   1795     1
   1783   1796     1
   1784   3653     1
   1784   1795     1
   1784   1796     1
   1786   3624     1
   1786   1792     1
   1786   1793     1
   1787   3624     1
   1787   1792     1
   1787   1793     1
   1791   3616     1
   1791   3617     1
   1792   3615     1
   1793   3615     1
   1794   3645     1
   1794   3646     1
   1795   3644     1
   1796   3644     1
   1798   1812     1
   1798   1813     1
   1798   1815     1
   1798   1816     1
   1798   1809     1
   1798   1810     1
   1799   1803     1
   1799   1804     1
   1799   1806     1
   1799   1807     1
   1799   1824     1
   1799   1825     1
   1800   1802     1
   1800   1805     1
   1800   1823     1
   1800   1812     1
   1800   1813     1
   1801   1802     1
   1801   1805     1
   1801   1823     1
   1801   1812     1
   1801   1813     1
   1802   1806     1
   1802   1807     1
   1802   1821     1
   1802   1822     1
   1803   1805     1
   1803   1820     1
   1803   1815     1
   1803   1816     1
   1804   1805     1
   1804   1820     1
   1804   1815     1
   1804   1816     1
   1805   1818     1
   1805   1819     1
   1806   1817     1
   1806   1809     1
   1806   1810     1
   1807   1817     1
   1807   1809     1
   1807   1810     1
   1809   1826     1
   1809   1818     1
   1809   1819     1
   1810   1826     1
   1810   1818     1
   1810   1819     1
   1812   3711     1
   1812   1824     1
   1812   1825     1
   1813   3711     1
   1813   1824     1
   1813   1825     1
   1815   3682     1
   1815   1821     1
   1815   1822     1
   1816   3682     1
   1816   1821     1
   1816   1822     1
   1820   3674     1
   1820   3675     1
   1821   3673     1
   1822   3673     1
   1823   3703     1
   1823   3704     1
   1824   3702     1
   1825   3702     1
   1827   1841     1
   1827   1842     1
   1827   1844     1
   1827   1845     1
   1827   1838     1
   1827   1839     1
   1828   1832     1
   1828   1833     1
   1828   1835     1
   1828   1836     1
   1828   1853     1
   1828   1854     1
   1829   1831     1
   1829   1834     1
   1829   1852     1
   1829   1841     1
   1829   1842     1
   1830   1831     1
   1830   1834     1
   1830   1852     1
   1830   1841     1
   1830   1842     1
   1831   1835     1
   1831   1836     1
   1831   1850     1
   1831   1851     1
   1832   1834     1
   1832   1849     1
   1832   1844     1
   1832   1845     1
   1833   1834     1
   1833   1849     1
   1833   1844     1
   1833   1845     1
   1834   1847     1
   1834   1848     1
   1835   1846     1
   1835   1838     1
   1835   1839     1
   1836   1846     1
   1836   1838     1
   1836   1839     1
   1838   1855     1
   1838   1847     1
   1838   1848     1
   1839   1855     1
   1839   1847     1
   1839   1848     1
   1841   3769     1
   1841   1853     1
   1841   1854     1
   1842   3769     1
   1842   1853     1
   1842   1854     1
   1844   3740     1
   1844   1850     1
   1844   1851     1
   1845   3740     1
   1845   1850     1
   1845   1851     1
   1849   3732     1
   1849   3733     1
   1850   3731     1
   1851   3731     1
   1852   3761     1
   1852   3762     1
   1853   3760     1
   1854   3760     1
   1856   1870     1
   1856   1871     1
   1856   1873     1
   1856   1874     1
   1856   1867     1
   1856   1868     1
   1857   1861     1
   1857   1862     1
   1857   1864     1
   1857   1865     1
   1857   1882     1
   1857   1883     1
   1858   1860     1
   1858   1863     1
   1858   1881     1
   1858   1870     1
   1858   1871     1
   1859   1860     1
   1859   1863     1
   1859   1881     1
   1859   1870     1
   1859   1871     1
   1860   1864     1
   1860   1865     1
   1860   1879     1
   1860   1880     1
   1861   1863     1
   1861   1878     1
   1861   1873     1
   1861   1874     1
   1862   1863     1
   1862   1878     1
   1862   1873     1
   1862   1874     1
   1863   1876     1
   1863   1877     1
   1864   1875     1
   1864   1867     1
   1864   1868     1
   1865   1875     1
   1865   1867     1
   1865   1868     1
   1867   1884     1
   1867   1876     1
   1867   1877     1
   1868   1884     1
   1868   1876     1
   1868   1877     1
   1870   3827     1
   1870   1882     1
   1870   1883     1
   1871   3827     1
   1871   1882     1
   1871   1883     1
   1873   3798     1
   1873   1879     1
   1873   1880     1
   1874   3798     1
   1874   1879     1
   1874   1880     1
   1878   3790     1
   1878   3791     1
   1879   3789     1
   1880   3789     1
   1881   3819     1
   1881   3820     1
   1882   3818     1
   1883   3818     1
   1885   1899     1
   1885   1900     1
   1885   1902     1
   1885   1903     1
   1885   1896     1
   1885   1897     1
   1886   1890     1
   1886   1891     1
   1886   1893     1
   1886   1894     1
   1886   1911     1
   1886   1912     1
   1887   1889     1
   1887   1892     1
   1887   1910     1
   1887   1899     1
   1887   1900     1
   1888   1889     1
   1888   1892     1
   1888   1910     1
   1888   1899     1
   1888   1900     1
   1889   1893     1
   1889   1894     1
   1889   1908     1
   1889   1909     1
   1890   1892     1
   1890   1907     1
   1890   1902     1
   1890   1903     1
   1891   1892     1
   1891   1907     1
   1891   1902     1
   1891   1903     1
   1892   1905     1
   1892   1906     1
   1893   1904     1
   1893   1896     1
   1893   1897     1
   1894   1904     1
   1894   1896     1
   1894   1897     1
   1896   1913     1
   1896   1905     1
   1896   1906     1
   1897   1913     1
   1897   1905     1
   1897   1906     1
   1899   3885     1
   1899   1911     1
   1899   1912     1
   1900   3885     1
   1900   1911     1
   1900   1912     1
   1902   3856     1
   1902   1908     1
   1902   1909     1
   1903   3856     1
   1903   1908     1
   1903   1909     1
   1907   3848     1
   1907   3849     1
   1908   3847     1
   1909   3847     1
   1910   3877     1
   1910   3878     1
   1911   3876     1
   1912   3876     1
   1914   1928     1
   1914   1929     1
   1914   1931     1
   1914   1932     1
   1914   1925     1
   1914   1926     1
   1915   1919     1
   1915   1920     1
   1915   1922     1
   1915   1923     1
   1915   1940     1
   1915   1941     1
   1916   1918     1
   1916   1921     1
   1916   1939     1
   1916   1928     1
   1916   1929     1
   1917   1918     1
   1917   1921     1
   1917   1939     1
   1917   1928     1
   1917   1929     1
   1918   1922     1
   1918   1923     1
   1918   1937     1
   1918   1938     1
   1919   1921     1
   1919   1936     1
   1919   1931     1
   1919   1932     1
   1920   1921     1
   1920   1936     1
   1920   1931     1
   1920   1932     1
   1921   1934     1
   1921   1935     1
   1922   1933     1
   1922   1925     1
   1922   1926     1
   1923   1933     1
   1923   1925     1
   1923   1926     1
   1925   1942     1
   1925   1934     1
   1925   1935     1
   1926   1942     1
   1926   1934     1
   1926   1935     1
   1928   3943     1
   1928   1940     1
   1928   1941     1
   1929   3943     1
   1929   1940     1
   1929   1941     1
   1931   3914     1
   1931   1937     1
   1931   1938     1
   1932   3914     1
   1932   1937     1
   1932   1938     1
   1936   3906     1
   1936   3907     1
   1937   3905     1
   1938   3905     1
   1939   3935     1
   1939   3936     1
   1940   3934     1
   1941   3934     1
   1943   1957     1
   1943   1958     1
   1943   1960     1
   1943   1961     1
   1943   1954     1
   1943   1955     1
   1944   1948     1
   1944   1949     1
   1944   1951     1
   1944   1952     1
   1944   1969     1
   1944   1970     1
   1945   1947     1
   1945   1950     1
   1945   1968     1
   1945   1957     1
   1945   1958     1
   1946   1947     1
   1946   1950     1
   1946   1968     1
   1946   1957     1
   1946   1958     1
   1947   1951     1
   1947   1952     1
   1947   1966     1
   1947   1967     1
   1948   1950     1
   1948   1965     1
   1948   1960     1
   1948   1961     1
   1949   1950     1
   1949   1965     1
   1949   1960     1
   1949   1961     1
   1950   1963     1
   1950   1964     1
   1951   1962     1
   1951   1954     1
   1951   1955     1
   1952   1962     1
   1952   1954     1
   1952   1955     1
   1954   1971     1
   1954   1963     1
   1954   1964     1
   1955   1971     1
   1955   1963     1
   1955   1964     1
   1957   4001     1
   1957   1969     1
   1957   1970     1
   1958   4001     1
   1958   1969     1
   1958   1970     1
   1960   3972     1
   1960   1966     1
   1960   1967     1
   1961   3972     1
   1961   1966     1
   1961   1967     1
   1965   3964     1
   1965   3965     1
   1966   3963     1
   1967   3963     1
   1968   3993     1
   1968   3994     1
   1969   3992     1
   1970   3992     1
   1972   1986     1
   1972   1987     1
   1972   1989     1
   1972   1990     1
   1972   1983     1
   1972   1984     1
   1973   1977     1
   1973   1978     1
   1973   1980     1
   1973   1981     1
   1973   1998     1
   1973   1999     1
   1974   1976     1
   1974   1979     1
   1974   1997     1
   1974   1986     1
   1974   1987     1
   1975   1976     1
   1975   1979     1
   1975   1997     1
   1975   1986     1
   1975   1987     1
   1976   1980     1
   1976   1981     1
   1976   1995     1
   1976   1996     1
   1977   1979     1
   1977   1994     1
   1977   1989     1
   1977   1990     1
   1978   1979     1
   1978   1994     1
   1978   1989     1
   1978   1990     1
   1979   1992     1
   1979   1993     1
   1980   1991     1
   1980   1983     1
   1980   1984     1
   1981   1991     1
   1981   1983     1
   1981   1984     1
   1983   2000     1
   1983   1992     1
   1983   1993     1
   1984   2000     1
   1984   1992     1
   1984   1993     1
   1986   4059     1
   1986   1998     1
   1986   1999     1
   1987   4059     1
   1987   1998     1
   1987   1999     1
   1989   4030     1
   1989   1995     1
   1989   1996     1
   1990   4030     1
   1990   1995     1
   1990   1996     1
   1994   4022     1
   1994   4023     1
   1995   4021     1
   1996   4021     1
   1997   4051     1
   1997   4052     1
   1998   4050     1
   1999   4050     1
   2001   2015     1
   2001   2016     1
   2001   2018     1
   2001   2019     1
   2001   2012     1
   2001   2013     1
   2002   2006     1
   2002   2007     1
   2002   2009     1
   2002   2010     1
   2002   2027     1
   2002   2028     1
   2003   2005     1
   2003   2008     1
   2003   2026     1
   2003   2015     1
   2003   2016     1
   2004   2005     1
   2004   2008     1
   2004   2026     1
   2004   2015     1
   2004   2016     1
   2005   2009     1
   2005   2010     1
   2005   2024     1
   2005   2025     1
   2006   2008     1
   2006   2023     1
   2006   2018     1
   2006   2019     1
   2007   2008     1
   2007   2023     1
   2007   2018     1
   2007   2019     1
   2008   2021     1
   2008   2022     1
   2009   2020     1
   2009   2012     1
   2009   2013     1
   2010   2020     1
   2010   2012     1
   2010   2013     1
   2012   2029     1
   2012   2021     1
   2012   2022     1
   2013   2029     1
   2013   2021     1
   2013   2022     1
   2015   4117     1
   2015   2027     1
   2015   2028     1
   2016   4117     1
   2016   2027     1
   2016   2028     1
   2018   4088     1
   2018   2024     1
   2018   2025     1
   2019   4088     1
   2019   2024     1
   2019   2025     1
   2023   4080     1
   2023   4081     1
   2024   4079     1
   2025   4079     1
   2026   4109     1
   2026   4110     1
   2027   4108     1
   2028   4108     1
   2030   2044     1
   2030   2045     1
   2030   2047     1
   2030   2048     1
   2030   2041     1
   2030   2042     1
   2031   2035     1
   2031   2036     1
   2031   2038     1
   2031   2039     1
   2031   2056     1
   2031   2057     1
   2032   2034     1
   2032   2037     1
   2032   2055     1
   2032   2044     1
   2032   2045     1
   2033   2034     1
   2033   2037     1
   2033   2055     1
   2033   2044     1
   2033   2045     1
   2034   2038     1
   2034   2039     1
   2034   2053     1
   2034   2054     1
   2035   2037     1
   2035   2052     1
   2035   2047     1
   2035   2048     1
   2036   2037     1
   2036   2052     1
   2036   2047     1
   2036   2048     1
   2037   2050     1
   2037   2051     1
   2038   2049     1
   2038   2041     1
   2038   2042     1
   2039   2049     1
   2039   2041     1
   2039   2042     1
   2041   2058     1
   2041   2050     1
   2041   2051     1
   2042   2058     1
   2042   2050     1
   2042   2051     1
   2044   4175     1
   2044   2056     1
   2044   2057     1
   2045   4175     1
   2045   2056     1
   2045   2057     1
   2047   4146     1
   2047   2053     1
   2047   2054     1
   2048   4146     1
   2048   2053     1
   2048   2054     1
   2052   4138     1
   2052   4139     1
   2053   4137     1
   2054   4137     1
   2055   4167     1
   2055   4168     1
   2056   4166     1
   2057   4166     1
   2059   2073     1
   2059   2074     1
   2059   2076     1
   2059   2077     1
   2059   2070     1
   2059   2071     1
   2060   2064     1
   2060   2065     1
   2060   2067     1
   2060   2068     1
   2060   2085     1
   2060   2086     1
   2061   2063     1
   2061   2066     1
   2061   2084     1
   2061   2073     1
   2061   2074     1
   2062   2063     1
   2062   2066     1
   2062   2084     1
   2062   2073     1
   2062   2074     1
   2063   2067     1
   2063   2068     1
   2063   2082     1
   2063   2083     1
   2064   2066     1
   2064   2081     1
   2064   2076     1
   2064   2077     1
   2065   2066     1
   2065   2081     1
   2065   2076     1
   2065   2077     1
   2066   2079     1
   2066   2080     1
   2067   2078     1
   2067   2070     1
   2067   2071     1
   2068   2078     1
   2068   2070     1
   2068   2071     1
   2070   2087     1
   2070   2079     1
   2070   2080     1
   2071   2087     1
   2071   2079     1
   2071   2080     1
   2073   4233     1
   2073   2085     1
   2073   2086     1
   2074   4233     1
   2074   2085     1
   2074   2086     1
   2076   4204     1
   2076   2082     1
   2076   2083     1
   2077   4204     1
   2077   2082     1
   2077   2083     1
   2081   4196     1
   2081   4197     1
   2082   4195     1
   2083   4195     1
   2084   4225     1
   2084   4226     1
   2085   4224     1
   2086   4224     1
   2088   2102     1
   2088   2103     1
   2088   2105     1
   2088   2106     1
   2088   2099     1
   2088   2100     1
   2089   2093     1
   2089   2094     1
   2089   2096     1
   2089   2097     1
   2089   2114     1
   2089   2115     1
   2090   2092     1
   2090   2095     1
   2090   2113     1
   2090   2102     1
   2090   2103     1
   2091   2092     1
   2091   2095     1
   2091   2113     1
   2091   2102     1
   2091   2103     1
   2092   2096     1
   2092   2097     1
   2092   2111     1
   2092   2112     1
   2093   2095     1
   2093   2110     1
   2093   2105     1
   2093   2106     1
   2094   2095     1
   2094   2110     1
   2094   2105     1
   2094   2106     1
   2095   2108     1
   2095   2109     1
   2096   2107     1
   2096   2099     1
   2096   2100     1
   2097   2107     1
   2097   2099     1
   2097   2100     1
   2099   2116     1
   2099   2108     1
   2099   2109     1
   2100   2116     1
   2100   2108     1
   2100   2109     1
   2102   4291     1
   2102   2114     1
   2102   2115     1
   2103   4291     1
   2103   2114     1
   2103   2115     1
   2105   4262     1
   2105   2111     1
   2105   2112     1
   2106   4262     1
   2106   2111     1
   2106   2112     1
   2110   4254     1
   2110   4255     1
   2111   4253     1
   2112   4253     1
   2113   4283     1
   2113   4284     1
   2114   4282     1
   2115   4282     1
   2117   2131     1
   2117   2132     1
   2117   2134     1
   2117   2135     1
   2117   2128     1
   2117   2129     1
   2118   2122     1
   2118   2123     1
   2118   2125     1
   2118   2126     1
   2118   2143     1
   2118   2144     1
   2119   2121     1
   2119   2124     1
   2119   2142     1
   2119   2131     1
   2119   2132     1
   2120   2121     1
   2120   2124     1
   2120   2142     1
   2120   2131     1
   2120   2132     1
   2121   2125     1
   2121   2126     1
   2121   2140     1
   2121   2141     1
   2122   2124     1
   2122   2139     1
   2122   2134     1
   2122   2135     1
   2123   2124     1
   2123   2139     1
   2123   2134     1
   2123   2135     1
   2124   2137     1
   2124   2138     1
   2125   2136     1
   2125   2128     1
   2125   2129     1
   2126   2136     1
   2126   2128     1
   2126   2129     1
   2128   2145     1
   2128   2137     1
   2128   2138     1
   2129   2145     1
   2129   2137     1
   2129   2138     1
   2131   4349     1
   2131   2143     1
   2131   2144     1
   2132   4349     1
   2132   2143     1
   2132   2144     1
   2134   4320     1
   2134   2140     1
   2134   2141     1
   2135   4320     1
   2135   2140     1
   2135   2141     1
   2139   4312     1
   2139   4313     1
   2140   4311     1
   2141   4311     1
   2142   4341     1
   2142   4342     1
   2143   4340     1
   2144   4340     1
   2146   2160     1
   2146   2161     1
   2146   2163     1
   2146   2164     1
   2146   2157     1
   2146   2158     1
   2147   2151     1
   2147   2152     1
   2147   2154     1
   2147   2155     1
   2147   2172     1
   2147   2173     1
   2148   2150     1
   2148   2153     1
   2148   2171     1
   2148   2160     1
   2148   2161     1
   2149   2150     1
   2149   2153     1
   2149   2171     1
   2149   2160     1
   2149   2161     1
   2150   2154     1
   2150   2155     1
   2150   2169     1
   2150   2170     1
   2151   2153     1
   2151   2168     1
   2151   2163     1
   2151   2164     1
   2152   2153     1
   2152   2168     1
   2152   2163     1
   2152   2164     1
   2153   2166     1
   2153   2167     1
   2154   2165     1
   2154   2157     1
   2154   2158     1
   2155   2165     1
   2155   2157     1
   2155   2158     1
   2157   2174     1
   2157   2166     1
   2157   2167     1
   2158   2174     1
   2158   2166     1
   2158   2167     1
   2160   4407     1
   2160   2172     1
   2160   2173     1
   2161   4407     1
   2161   2172     1
   2161   2173     1
   2163   4378     1
   2163   2169     1
   2163   2170     1
   2164   4378     1
   2164   2169     1
   2164   2170     1
   2168   4370     1
   2168   4371     1
   2169   4369     1
   2170   4369     1
   2171   4399     1
   2171   4400     1
   2172   4398     1
   2173   4398     1
   2175   2189     1
   2175   2190     1
   2175   2192     1
   2175   2193     1
   2175   2186     1
   2175   2187     1
   2176   2180     1
   2176   2181     1
   2176   2183     1
   2176   2184     1
   2176   2201     1
   2176   2202     1
   2177   2179     1
   2177   2182     1
   2177   2200     1
   2177   2189     1
   2177   2190     1
   2178   2179     1
   2178   2182     1
   2178   2200     1
   2178   2189     1
   2178   2190     1
   2179   2183     1
   2179   2184     1
   2179   2198     1
   2179   2199     1
   2180   2182     1
   2180   2197     1
   2180   2192     1
   2180   2193     1
   2181   2182     1
   2181   2197     1
   2181   2192     1
   2181   2193     1
   2182   2195     1
   2182   2196     1
   2183   2194     1
   2183   2186     1
   2183   2187     1
   2184   2194     1
   2184   2186     1
   2184   2187     1
   2186   2203     1
   2186   2195     1
   2186   2196     1
   2187   2203     1
   2187   2195     1
   2187   2196     1
   2189   4465     1
   2189   2201     1
   2189   2202     1
   2190   4465     1
   2190   2201     1
   2190   2202     1
   2192   4436     1
   2192   2198     1
   2192   2199     1
   2193   4436     1
   2193   2198     1
   2193   2199     1
   2197   4428     1
   2197   4429     1
   2198   4427     1
   2199   4427     1
   2200   4457     1
   2200   4458     1
   2201   4456     1
   2202   4456     1
   2204   2218     1
   2204   2219     1
   2204   2221     1
   2204   2222     1
   2204   2215     1
   2204   2216     1
   2205   2209     1
   2205   2210     1
   2205   2212     1
   2205   2213     1
   2205   2230     1
   2205   2231     1
   2206   2208     1
   2206   2211     1
   2206   2229     1
   2206   2218     1
   2206   2219     1
   2207   2208     1
   2207   2211     1
   2207   2229     1
   2207   2218     1
   2207   2219     1
   2208   2212     1
   2208   2213     1
   2208   2227     1
   2208   2228     1
   2209   2211     1
   2209   2226     1
   2209   2221     1
   2209   2222     1
   2210   2211     1
   2210   2226     1
   2210   2221     1
   2210   2222     1
   2211   2224     1
   2211   2225     1
   2212   2223     1
   2212   2215     1
   2212   2216     1
   2213   2223     1
   2213   2215     1
   2213   2216     1
   2215   2232     1
   2215   2224     1
   2215   2225     1
   2216   2232     1
   2216   2224     1
   2216   2225     1
   2218   4523     1
   2218   2230     1
   2218   2231     1
   2219   4523     1
   2219   2230     1
   2219   2231     1
   2221   4494     1
   2221   2227     1
   2221   2228     1
   2222   4494     1
   2222   2227     1
   2222   2228     1
   2226   4486     1
   2226   4487     1
   2227   4485     1
   2228   4485     1
   2229   4515     1
   2229   4516     1
   2230   4514     1
   2231   4514     1
   2233   2247     1
   2233   2248     1
   2233   2250     1
   2233   2251     1
   2233   2244     1
   2233   2245     1
   2234   2238     1
   2234   2239     1
   2234   2241     1
   2234   2242     1
   2234   2259     1
   2234   2260     1
   2235   2237     1
   2235   2240     1
   2235   2258     1
   2235   2247     1
   2235   2248     1
   2236   2237     1
   2236   2240     1
   2236   2258     1
   2236   2247     1
   2236   2248     1
   2237   2241     1
   2237   2242     1
   2237   2256     1
   2237   2257     1
   2238   2240     1
   2238   2255     1
   2238   2250     1
   2238   2251     1
   2239   2240     1
   2239   2255     1
   2239   2250     1
   2239   2251     1
   2240   2253     1
   2240   2254     1
   2241   2252     1
   2241   2244     1
   2241   2245     1
   2242   2252     1
   2242   2244     1
   2242   2245     1
   2244   2261     1
   2244   2253     1
   2244   2254     1
   2245   2261     1
   2245   2253     1
   2245   2254     1
   2247   4581     1
   2247   2259     1
   2247   2260     1
   2248   4581     1
   2248   2259     1
   2248   2260     1
   2250   4552     1
   2250   2256     1
   2250   2257     1
   2251   4552     1
   2251   2256     1
   2251   2257     1
   2255   4544     1
   2255   4545     1
   2256   4543     1
   2257   4543     1
   2258   4573     1
   2258   4574     1
   2259   4572     1
   2260   4572     1
   2262   2276     1
   2262   2277     1
   2262   2279     1
   2262   2280     1
   2262   2273     1
   2262   2274     1
   2263   2267     1
   2263   2268     1
   2263   2270     1
   2263   2271     1
   2263   2288     1
   2263   2289     1
   2264   2266     1
   2264   2269     1
   2264   2287     1
   2264   2276     1
   2264   2277     1
   2265   2266     1
   2265   2269     1
   2265   2287     1
   2265   2276     1
   2265   2277     1
   2266   2270     1
   2266   2271     1
   2266   2285     1
   2266   2286     1
   2267   2269     1
   2267   2284     1
   2267   2279     1
   2267   2280     1
   2268   2269     1
   2268   2284     1
   2268   2279     1
   2268   2280     1
   2269   2282     1
   2269   2283     1
   2270   2281     1
   2270   2273     1
   2270   2274     1
   2271   2281     1
   2271   2273     1
   2271   2274     1
   2273   2290     1
   2273   2282     1
   2273   2283     1
   2274   2290     1
   2274   2282     1
   2274   2283     1
   2276   4639     1
   2276   2288     1
   2276   2289     1
   2277   4639     1
   2277   2288     1
   2277   2289     1
   2279   4610     1
   2279   2285     1
   2279   2286     1
   2280   4610     1
   2280   2285     1
   2280   2286     1
   2284   4602     1
   2284   4603     1
   2285   4601     1
   2286   4601     1
   2287   4631     1
   2287   4632     1
   2288   4630     1
   2289   4630     1
   2291   2305     1
   2291   2306     1
   2291   2308     1
   2291   2309     1
   2291   2302     1
   2291   2303     1
   2292   2296     1
   2292   2297     1
   2292   2299     1
   2292   2300     1
   2292   2317     1
   2292   2318     1
   2293   2295     1
   2293   2298     1
   2293   2316     1
   2293   2305     1
   2293   2306     1
   2294   2295     1
   2294   2298     1
   2294   2316     1
   2294   2305     1
   2294   2306     1
   2295   2299     1
   2295   2300     1
   2295   2314     1
   2295   2315     1
   2296   2298     1
   2296   2313     1
   2296   2308     1
   2296   2309     1
   2297   2298     1
   2297   2313     1
   2297   2308     1
   2297   2309     1
   2298   2311     1
   2298   2312     1
   2299   2310     1
   2299   2302     1
   2299   2303     1
   2300   2310     1
   2300   2302     1
   2300   2303     1
   2302   2319     1
   2302   2311     1
   2302   2312     1
   2303   2319     1
   2303   2311     1
   2303   2312     1
   2305   4697     1
   2305   2317     1
   2305   2318     1
   2306   4697     1
   2306   2317     1
   2306   2318     1
   2308   4668     1
   2308   2314     1
   2308   2315     1
   2309   4668     1
   2309   2314     1
   2309   2315     1
   2313   4660     1
   2313   4661     1
   2314   4659     1
   2315   4659     1
   2316   4689     1
   2316   4690     1
   2317   4688     1
   2318   4688     1
   2320   2334     1
   2320   2335     1
   2320   2337     1
   2320   2338     1
   2320   2331     1
   2320   2332     1
   2321   2325     1
   2321   2326     1
   2321   2328     1
   2321   2329     1
   2321   2346     1
   2321   2347     1
   2322   2324     1
   2322   2327     1
   2322   2345     1
   2322   2334     1
   2322   2335     1
   2323   2324     1
   2323   2327     1
   2323   2345     1
   2323   2334     1
   2323   2335     1
   2324   2328     1
   2324   2329     1
   2324   2343     1
   2324   2344     1
   2325   2327     1
   2325   2342     1
   2325   2337     1
   2325   2338     1
   2326   2327     1
   2326   2342     1
   2326   2337     1
   2326   2338     1
   2327   2340     1
   2327   2341     1
   2328   2339     1
   2328   2331     1
   2328   2332     1
   2329   2339     1
   2329   2331     1
   2329   2332     1
   2331   2348     1
   2331   2340     1
   2331   2341     1
   2332   2348     1
   2332   2340     1
   2332   2341     1
   2334   4755     1
   2334   2346     1
   2334   2347     1
   2335   4755     1
   2335   2346     1
   2335   2347     1
   2337   4726     1
   2337   2343     1
   2337   2344     1
   2338   4726     1
   2338   2343     1
   2338   2344     1
   2342   4718     1
   2342   4719     1
   2343   4717     1
   2344   4717     1
   2345   4747     1
   2345   4748     1
   2346   4746     1
   2347   4746     1
   2349   2363     1
   2349   2364     1
   2349   2366     1
   2349   2367     1
   2349   2360     1
   2349   2361     1
   2350   2354     1
   2350   2355     1
   2350   2357     1
   2350   2358     1
   2350   2375     1
   2350   2376     1
   2351   2353     1
   2351   2356     1
   2351   2374     1
   2351   2363     1
   2351   2364     1
   2352   2353     1
   2352   2356     1
   2352   2374     1
   2352   2363     1
   2352   2364     1
   2353   2357     1
   2353   2358     1
   2353   2372     1
   2353   2373     1
   2354   2356     1
   2354   2371     1
   2354   2366     1
   2354   2367     1
   2355   2356     1
   2355   2371     1
   2355   2366     1
   2355   2367     1
   2356   2369     1
   2356   2370     1
   2357   2368     1
   2357   2360     1
   2357   2361     1
   2358   2368     1
   2358   2360     1
   2358   2361     1
   2360   2377     1
   2360   2369     1
   2360   2370     1
   2361   2377     1
   2361   2369     1
   2361   2370     1
   2363   4813     1
   2363   2375     1
   2363   2376     1
   2364   4813     1
   2364   2375     1
   2364   2376     1
   2366   4784     1
   2366   2372     1
   2366   2373     1
   2367   4784     1
   2367   2372     1
   2367   2373     1
   2371   4776     1
   2371   4777     1
   2372   4775     1
   2373   4775     1
   2374   4805     1
   2374   4806     1
   2375   4804     1
   2376   4804     1
   2378   2392     1
   2378   2393     1
   2378   2395     1
   2378   2396     1
   2378   2389     1
   2378   2390     1
   2379   2383     1
   2379   2384     1
   2379   2386     1
   2379   2387     1
   2379   2404     1
   2379   2405     1
   2380   2382     1
   2380   2385     1
   2380   2403     1
   2380   2392     1
   2380   2393     1
   2381   2382     1
   2381   2385     1
   2381   2403     1
   2381   2392     1
   2381   2393     1
   2382   2386     1
   2382   2387     1
   2382   2401     1
   2382   2402     1
   2383   2385     1
   2383   2400     1
   2383   2395     1
   2383   2396     1
   2384   2385     1
   2384   2400     1
   2384   2395     1
   2384   2396     1
   2385   2398     1
   2385   2399     1
   2386   2397     1
   2386   2389     1
   2386   2390     1
   2387   2397     1
   2387   2389     1
   2387   2390     1
   2389   2406     1
   2389   2398     1
   2389   2399     1
   2390   2406     1
   2390   2398     1
   2390   2399     1
   2392   4871     1
   2392   2404     1
   2392   2405     1
   2393   4871     1
   2393   2404     1
   2393   2405     1
   2395   4842     1
   2395   2401     1
   2395   2402     1
   2396   4842     1
   2396   2401     1
   2396   2402     1
   2400   4834     1
   2400   4835     1
   2401   4833     1
   2402   4833     1
   2403   4863     1
   2403   4864     1
   2404   4862     1
   2405   4862     1
   2407   2421     1
   2407   2422     1
   2407   2424     1
   2407   2425     1
   2407   2418     1
   2407   2419     1
   2408   2412     1
   2408   2413     1
   2408   2415     1
   2408   2416     1
   2408   2433     1
   2408   2434     1
   2409   2411     1
   2409   2414     1
   2409   2432     1
   2409   2421     1
   2409   2422     1
   2410   2411     1
   2410   2414     1
   2410   2432     1
   2410   2421     1
   2410   2422     1
   2411   2415     1
   2411   2416     1
   2411   2430     1
   2411   2431     1
   2412   2414     1
   2412   2429     1
   2412   2424     1
   2412   2425     1
   2413   2414     1
   2413   2429     1
   2413   2424     1
   2413   2425     1
   2414   2427     1
   2414   2428     1
   2415   2426     1
   2415   2418     1
   2415   2419     1
   2416   2426     1
   2416   2418     1
   2416   2419     1
   2418   2435     1
   2418   2427     1
   2418   2428     1
   2419   2435     1
   2419   2427     1
   2419   2428     1
   2421   4929     1
   2421   2433     1
   2421   2434     1
   2422   4929     1
   2422   2433     1
   2422   2434     1
   2424   4900     1
   2424   2430     1
   2424   2431     1
   2425   4900     1
   2425   2430     1
   2425   2431     1
   2429   4892     1
   2429   4893     1
   2430   4891     1
   2431   4891     1
   2432   4921     1
   2432   4922     1
   2433   4920     1
   2434   4920     1
   2436   2450     1
   2436   2451     1
   2436   2453     1
   2436   2454     1
   2436   2447     1
   2436   2448     1
   2437   2441     1
   2437   2442     1
   2437   2444     1
   2437   2445     1
   2437   2462     1
   2437   2463     1
   2438   2440     1
   2438   2443     1
   2438   2461     1
   2438   2450     1
   2438   2451     1
   2439   2440     1
   2439   2443     1
   2439   2461     1
   2439   2450     1
   2439   2451     1
   2440   2444     1
   2440   2445     1
   2440   2459     1
   2440   2460     1
   2441   2443     1
   2441   2458     1
   2441   2453     1
   2441   2454     1
   2442   2443     1
   2442   2458     1
   2442   2453     1
   2442   2454     1
   2443   2456     1
   2443   2457     1
   2444   2455     1
   2444   2447     1
   2444   2448     1
   2445   2455     1
   2445   2447     1
   2445   2448     1
   2447   2464     1
   2447   2456     1
   2447   2457     1
   2448   2464     1
   2448   2456     1
   2448   2457     1
   2450   4987     1
   2450   2462     1
   2450   2463     1
   2451   4987     1
   2451   2462     1
   2451   2463     1
   2453   4958     1
   2453   2459     1
   2453   2460     1
   2454   4958     1
   2454   2459     1
   2454   2460     1
   2458   4950     1
   2458   4951     1
   2459   4949     1
   2460   4949     1
   2461   4979     1
   2461   4980     1
   2462   4978     1
   2463   4978     1
   2465   2479     1
   2465   2480     1
   2465   2482     1
   2465   2483     1
   2465   2476     1
   2465   2477     1
   2466   2470     1
   2466   2471     1
   2466   2473     1
   2466   2474     1
   2466   2491     1
   2466   2492     1
   2467   2469     1
   2467   2472     1
   2467   2490     1
   2467   2479     1
   2467   2480     1
   2468   2469     1
   2468   2472     1
   2468   2490     1
   2468   2479     1
   2468   2480     1
   2469   2473     1
   2469   2474     1
   2469   2488     1
   2469   2489     1
   2470   2472     1
   2470   2487     1
   2470   2482     1
   2470   2483     1
   2471   2472     1
   2471   2487     1
   2471   2482     1
   2471   2483     1
   2472   2485     1
   2472   2486     1
   2473   2484     1
   2473   2476     1
   2473   2477     1
   2474   2484     1
   2474   2476     1
   2474   2477     1
   2476   2493     1
   2476   2485     1
   2476   2486     1
   2477   2493     1
   2477   2485     1
   2477   2486     1
   2479   5045     1
   2479   2491     1
   2479   2492     1
   2480   5045     1
   2480   2491     1
   2480   2492     1
   2482   5016     1
   2482   2488     1
   2482   2489     1
   2483   5016     1
   2483   2488     1
   2483   2489     1
   2487   5008     1
   2487   5009     1
   2488   5007     1
   2489   5007     1
   2490   5037     1
   2490   5038     1
   2491   5036     1
   2492   5036     1
   2494   2508     1
   2494   2509     1
   2494   2511     1
   2494   2512     1
   2494   2505     1
   2494   2506     1
   2495   2499     1
   2495   2500     1
   2495   2502     1
   2495   2503     1
   2495   2520     1
   2495   2521     1
   2496   2498     1
   2496   2501     1
   2496   2519     1
   2496   2508     1
   2496   2509     1
   2497   2498     1
   2497   2501     1
   2497   2519     1
   2497   2508     1
   2497   2509     1
   2498   2502     1
   2498   2503     1
   2498   2517     1
   2498   2518     1
   2499   2501     1
   2499   2516     1
   2499   2511     1
   2499   2512     1
   2500   2501     1
   2500   2516     1
   2500   2511     1
   2500   2512     1
   2501   2514     1
   2501   2515     1
   2502   2513     1
   2502   2505     1
   2502   2506     1
   2503   2513     1
   2503   2505     1
   2503   2506     1
   2505   2522     1
   2505   2514     1
   2505   2515     1
   2506   2522     1
   2506   2514     1
   2506   2515     1
   2508   5103     1
   2508   2520     1
   2508   2521     1
   2509   5103     1
   2509   2520     1
   2509   2521     1
   2511   5074     1
   2511   2517     1
   2511   2518     1
   2512   5074     1
   2512   2517     1
   2512   2518     1
   2516   5066     1
   2516   5067     1
   2517   5065     1
   2518   5065     1
   2519   5095     1
   2519   5096     1
   2520   5094     1
   2521   5094     1
   2523   2537     1
   2523   2538     1
   2523   2540     1
   2523   2541     1
   2523   2534     1
   2523   2535     1
   2524   2528     1
   2524   2529     1
   2524   2531     1
   2524   2532     1
   2524   2549     1
   2524   2550     1
   2525   2527     1
   2525   2530     1
   2525   2548     1
   2525   2537     1
   2525   2538     1
   2526   2527     1
   2526   2530     1
   2526   2548     1
   2526   2537     1
   2526   2538     1
   2527   2531     1
   2527   2532     1
   2527   2546     1
   2527   2547     1
   2528   2530     1
   2528   2545     1
   2528   2540     1
   2528   2541     1
   2529   2530     1
   2529   2545     1
   2529   2540     1
   2529   2541     1
   2530   2543     1
   2530   2544     1
   2531   2542     1
   2531   2534     1
   2531   2535     1
   2532   2542     1
   2532   2534     1
   2532   2535     1
   2534   2551     1
   2534   2543     1
   2534   2544     1
   2535   2551     1
   2535   2543     1
   2535   2544     1
   2537   5161     1
   2537   2549     1
   2537   2550     1
   2538   5161     1
   2538   2549     1
   2538   2550     1
   2540   5132     1
   2540   2546     1
   2540   2547     1
   2541   5132     1
   2541   2546     1
   2541   2547     1
   2545   5124     1
   2545   5125     1
   2546   5123     1
   2547   5123     1
   2548   5153     1
   2548   5154     1
   2549   5152     1
   2550   5152     1
   2552   2566     1
   2552   2567     1
   2552   2569     1
   2552   2570     1
   2552   2563     1
   2552   2564     1
   2553   2557     1
   2553   2558     1
   2553   2560     1
   2553   2561     1
   2553   2578     1
   2553   2579     1
   2554   2556     1
   2554   2559     1
   2554   2577     1
   2554   2566     1
   2554   2567     1
   2555   2556     1
   2555   2559     1
   2555   2577     1
   2555   2566     1
   2555   2567     1
   2556   2560     1
   2556   2561     1
   2556   2575     1
   2556   2576     1
   2557   2559     1
   2557   2574     1
   2557   2569     1
   2557   2570     1
   2558   2559     1
   2558   2574     1
   2558   2569     1
   2558   2570     1
   2559   2572     1
   2559   2573     1
   2560   2571     1
   2560   2563     1
   2560   2564     1
   2561   2571     1
   2561   2563     1
   2561   2564     1
   2563   2580     1
   2563   2572     1
   2563   2573     1
   2564   2580     1
   2564   2572     1
   2564   2573     1
   2566   5219     1
   2566   2578     1
   2566   2579     1
   2567   5219     1
   2567   2578     1
   2567   2579     1
   2569   5190     1
   2569   2575     1
   2569   2576     1
   2570   5190     1
   2570   2575     1
   2570   2576     1
   2574   5182     1
   2574   5183     1
   2575   5181     1
   2576   5181     1
   2577   5211     1
   2577   5212     1
   2578   5210     1
   2579   5210     1
   2581   2595     1
   2581   2596     1
   2581   2598     1
   2581   2599     1
   2581   2592     1
   2581   2593     1
   2582   2586     1
   2582   2587     1
   2582   2589     1
   2582   2590     1
   2582   2607     1
   2582   2608     1
   2583   2585     1
   2583   2588     1
   2583   2606     1
   2583   2595     1
   2583   2596     1
   2584   2585     1
   2584   2588     1
   2584   2606     1
   2584   2595     1
   2584   2596     1
   2585   2589     1
   2585   2590     1
   2585   2604     1
   2585   2605     1
   2586   2588     1
   2586   2603     1
   2586   2598     1
   2586   2599     1
   2587   2588     1
   2587   2603     1
   2587   2598     1
   2587   2599     1
   2588   2601     1
   2588   2602     1
   2589   2600     1
   2589   2592     1
   2589   2593     1
   2590   2600     1
   2590   2592     1
   2590   2593     1
   2592   2609     1
   2592   2601     1
   2592   2602     1
   2593   2609     1
   2593   2601     1
   2593   2602     1
   2595   5277     1
   2595   2607     1
   2595   2608     1
   2596   5277     1
   2596   2607     1
   2596   2608     1
   2598   5248     1
   2598   2604     1
   2598   2605     1
   2599   5248     1
   2599   2604     1
   2599   2605     1
   2603   5240     1
   2603   5241     1
   2604   5239     1
   2605   5239     1
   2606   5269     1
   2606   5270     1
   2607   5268     1
   2608   5268     1
   2610   2624     1
   2610   2625     1
   2610   2627     1
   2610   2628     1
   2610   2621     1
   2610   2622     1
   2611   2615     1
   2611   2616     1
   2611   2618     1
   2611   2619     1
   2611   2636     1
   2611   2637     1
   2612   2614     1
   2612   2617     1
   2612   2635     1
   2612   2624     1
   2612   2625     1
   2613   2614     1
   2613   2617     1
   2613   2635     1
   2613   2624     1
   2613   2625     1
   2614   2618     1
   2614   2619     1
   2614   2633     1
   2614   2634     1
   2615   2617     1
   2615   2632     1
   2615   2627     1
   2615   2628     1
   2616   2617     1
   2616   2632     1
   2616   2627     1
   2616   2628     1
   2617   2630     1
   2617   2631     1
   2618   2629     1
   2618   2621     1
   2618   2622     1
   2619   2629     1
   2619   2621     1
   2619   2622     1
   2621   2638     1
   2621   2630     1
   2621   2631     1
   2622   2638     1
   2622   2630     1
   2622   2631     1
   2624   5335     1
   2624   2636     1
   2624   2637     1
   2625   5335     1
   2625   2636     1
   2625   2637     1
   2627   5306     1
   2627   2633     1
   2627   2634     1
   2628   5306     1
   2628   2633     1
   2628   2634     1
   2632   5298     1
   2632   5299     1
   2633   5297     1
   2634   5297     1
   2635   5327     1
   2635   5328     1
   2636   5326     1
   2637   5326     1
   2639   2653     1
   2639   2654     1
   2639   2656     1
   2639   2657     1
   2639   2650     1
   2639   2651     1
   2640   2644     1
   2640   2645     1
   2640   2647     1
   2640   2648     1
   2640   2665     1
   2640   2666     1
   2641   2643     1
   2641   2646     1
   2641   2664     1
   2641   2653     1
   2641   2654     1
   2642   2643     1
   2642   2646     1
   2642   2664     1
   2642   2653     1
   2642   2654     1
   2643   2647     1
   2643   2648     1
   2643   2662     1
   2643   2663     1
   2644   2646     1
   2644   2661     1
   2644   2656     1
   2644   2657     1
   2645   2646     1
   2645   2661     1
   2645   2656     1
   2645   2657     1
   2646   2659     1
   2646   2660     1
   2647   2658     1
   2647   2650     1
   2647   2651     1
   2648   2658     1
   2648   2650     1
   2648   2651     1
   2650   2667     1
   2650   2659     1
   2650   2660     1
   2651   2667     1
   2651   2659     1
   2651   2660     1
   2653   5393     1
   2653   2665     1
   2653   2666     1
   2654   5393     1
   2654   2665     1
   2654   2666     1
   2656   5364     1
   2656   2662     1
   2656   2663     1
   2657   5364     1
   2657   2662     1
   2657   2663     1
   2661   5356     1
   2661   5357     1
   2662   5355     1
   2663   5355     1
   2664   5385     1
   2664   5386     1
   2665   5384     1
   2666   5384     1
   2668   2682     1
   2668   2683     1
   2668   2685     1
   2668   2686     1
   2668   2679     1
   2668   2680     1
   2669   2673     1
   2669   2674     1
   2669   2676     1
   2669   2677     1
   2669   2694     1
   2669   2695     1
   2670   2672     1
   2670   2675     1
   2670   2693     1
   2670   2682     1
   2670   2683     1
   2671   2672     1
   2671   2675     1
   2671   2693     1
   2671   2682     1
   2671   2683     1
   2672   2676     1
   2672   2677     1
   2672   2691     1
   2672   2692     1
   2673   2675     1
   2673   2690     1
   2673   2685     1
   2673   2686     1
   2674   2675     1
   2674   2690     1
   2674   2685     1
   2674   2686     1
   2675   2688     1
   2675   2689     1
   2676   2687     1
   2676   2679     1
   2676   2680     1
   2677   2687     1
   2677   2679     1
   2677   2680     1
   2679   2696     1
   2679   2688     1
   2679   2689     1
   2680   2696     1
   2680   2688     1
   2680   2689     1
   2682   5451     1
   2682   2694     1
   2682   2695     1
   2683   5451     1
   2683   2694     1
   2683   2695     1
   2685   5422     1
   2685   2691     1
   2685   2692     1
   2686   5422     1
   2686   2691     1
   2686   2692     1
   2690   5414     1
   2690   5415     1
   2691   5413     1
   2692   5413     1
   2693   5443     1
   2693   5444     1
   2694   5442     1
   2695   5442     1
   2697   2711     1
   2697   2712     1
   2697   2714     1
   2697   2715     1
   2697   2708     1
   2697   2709     1
   2698   2702     1
   2698   2703     1
   2698   2705     1
   2698   2706     1
   2698   2723     1
   2698   2724     1
   2699   2701     1
   2699   2704     1
   2699   2722     1
   2699   2711     1
   2699   2712     1
   2700   2701     1
   2700   2704     1
   2700   2722     1
   2700   2711     1
   2700   2712     1
   2701   2705     1
   2701   2706     1
   2701   2720     1
   2701   2721     1
   2702   2704     1
   2702   2719     1
   2702   2714     1
   2702   2715     1
   2703   2704     1
   2703   2719     1
   2703   2714     1
   2703   2715     1
   2704   2717     1
   2704   2718     1
   2705   2716     1
   2705   2708     1
   2705   2709     1
   2706   2716     1
   2706   2708     1
   2706   2709     1
   2708   2725     1
   2708   2717     1
   2708   2718     1
   2709   2725     1
   2709   2717     1
   2709   2718     1
   2711   5509     1
   2711   2723     1
   2711   2724     1
   2712   5509     1
   2712   2723     1
   2712   2724     1
   2714   5480     1
   2714   2720     1
   2714   2721     1
   2715   5480     1
   2715   2720     1
   2715   2721     1
   2719   5472     1
   2719   5473     1
   2720   5471     1
   2721   5471     1
   2722   5501     1
   2722   5502     1
   2723   5500     1
   2724   5500     1
   2726   2740     1
   2726   2741     1
   2726   2743     1
   2726   2744     1
   2726   2737     1
   2726   2738     1
   2727   2731     1
   2727   2732     1
   2727   2734     1
   2727   2735     1
   2727   2752     1
   2727   2753     1
   2728   2730     1
   2728   2733     1
   2728   2751     1
   2728   2740     1
   2728   2741     1
   2729   2730     1
   2729   2733     1
   2729   2751     1
   2729   2740     1
   2729   2741     1
   2730   2734     1
   2730   2735     1
   2730   2749     1
   2730   2750     1
   2731   2733     1
   2731   2748     1
   2731   2743     1
   2731   2744     1
   2732   2733     1
   2732   2748     1
   2732   2743     1
   2732   2744     1
   2733   2746     1
   2733   2747     1
   2734   2745     1
   2734   2737     1
   2734   2738     1
   2735   2745     1
   2735   2737     1
   2735   2738     1
   2737   2754     1
   2737   2746     1
   2737   2747     1
   2738   2754     1
   2738   2746     1
   2738   2747     1
   2740   5543     1
   2740   2752     1
   2740   2753     1
   2741   5543     1
   2741   2752     1
   2741   2753     1
   2743   5520     1
   2743   2749     1
   2743   2750     1
   2744   5520     1
   2744   2749     1
   2744   2750     1
   2748   5519     1
   2749   5516     1
   2750   5516     1
   2751   5542     1
   2752   5539     1
   2753   5539     1
   2755   2769     1
   2755   2770     1
   2755   2772     1
   2755   2773     1
   2755   2766     1
   2755   2767     1
   2756   2760     1
   2756   2761     1
   2756   2763     1
   2756   2764     1
   2756   2781     1
   2756   2782     1
   2757   2759     1
   2757   2762     1
   2757   2780     1
   2757   2769     1
   2757   2770     1
   2758   2759     1
   2758   2762     1
   2758   2780     1
   2758   2769     1
   2758   2770     1
   2759   2763     1
   2759   2764     1
   2759   2778     1
   2759   2779     1
   2760   2762     1
   2760   2777     1
   2760   2772     1
   2760   2773     1
   2761   2762     1
   2761   2777     1
   2761   2772     1
   2761   2773     1
   2762   2775     1
   2762   2776     1
   2763   2774     1
   2763   2766     1
   2763   2767     1
   2764   2774     1
   2764   2766     1
   2764   2767     1
   2766   2783     1
   2766   2775     1
   2766   2776     1
   2767   2783     1
   2767   2775     1
   2767   2776     1
   2769   5589     1
   2769   2781     1
   2769   2782     1
   2770   5589     1
   2770   2781     1
   2770   2782     1
   2772   5566     1
   2772   2778     1
   2772   2779     1
   2773   5566     1
   2773   2778     1
   2773   2779     1
   2777   5565     1
   2778   5562     1
   2779   5562     1
   2780   5588     1
   2781   5585     1
   2782   5585     1
   2784   2798     1
   2784   2799     1
   2784   2801     1
   2784   2802     1
   2784   2795     1
   2784   2796     1
   2785   2789     1
   2785   2790     1
   2785   2792     1
   2785   2793     1
   2785   2810     1
   2785   2811     1
   2786   2788     1
   2786   2791     1
   2786   2809     1
   2786   2798     1
   2786   2799     1
   2787   2788     1
   2787   2791     1
   2787   2809     1
   2787   2798     1
   2787   2799     1
   2788   2792     1
   2788   2793     1
   2788   2807     1
   2788   2808     1
   2789   2791     1
   2789   2806     1
   2789   2801     1
   2789   2802     1
   2790   2791     1
   2790   2806     1
   2790   2801     1
   2790   2802     1
   2791   2804     1
   2791   2805     1
   2792   2803     1
   2792   2795     1
   2792   2796     1
   2793   2803     1
   2793   2795     1
   2793   2796     1
   2795   2812     1
   2795   2804     1
   2795   2805     1
   2796   2812     1
   2796   2804     1
   2796   2805     1
   2798   5635     1
   2798   2810     1
   2798   2811     1
   2799   5635     1
   2799   2810     1
   2799   2811     1
   2801   5612     1
   2801   2807     1
   2801   2808     1
   2802   5612     1
   2802   2807     1
   2802   2808     1
   2806   5611     1
   2807   5608     1
   2808   5608     1
   2809   5634     1
   2810   5631     1
   2811   5631     1
   2813   2827     1
   2813   2828     1
   2813   2830     1
   2813   2831     1
   2813   2824     1
   2813   2825     1
   2814   2818     1
   2814   2819     1
   2814   2821     1
   2814   2822     1
   2814   2839     1
   2814   2840     1
   2815   2817     1
   2815   2820     1
   2815   2838     1
   2815   2827     1
   2815   2828     1
   2816   2817     1
   2816   2820     1
   2816   2838     1
   2816   2827     1
   2816   2828     1
   2817   2821     1
   2817   2822     1
   2817   2836     1
   2817   2837     1
   2818   2820     1
   2818   2835     1
   2818   2830     1
   2818   2831     1
   2819   2820     1
   2819   2835     1
   2819   2830     1
   2819   2831     1
   2820   2833     1
   2820   2834     1
   2821   2832     1
   2821   2824     1
   2821   2825     1
   2822   2832     1
   2822   2824     1
   2822   2825     1
   2824   2841     1
   2824   2833     1
   2824   2834     1
   2825   2841     1
   2825   2833     1
   2825   2834     1
   2827   5681     1
   2827   2839     1
   2827   2840     1
   2828   5681     1
   2828   2839     1
   2828   2840     1
   2830   5658     1
   2830   2836     1
   2830   2837     1
   2831   5658     1
   2831   2836     1
   2831   2837     1
   2835   5657     1
   2836   5654     1
   2837   5654     1
   2838   5680     1
   2839   5677     1
   2840   5677     1
   2842   2856     1
   2842   2857     1
   2842   2859     1
   2842   2860     1
   2842   2853     1
   2842   2854     1
   2843   2847     1
   2843   2848     1
   2843   2850     1
   2843   2851     1
   2843   2868     1
   2843   2869     1
   2844   2846     1
   2844   2849     1
   2844   2867     1
   2844   2856     1
   2844   2857     1
   2845   2846     1
   2845   2849     1
   2845   2867     1
   2845   2856     1
   2845   2857     1
   2846   2850     1
   2846   2851     1
   2846   2865     1
   2846   2866     1
   2847   2849     1
   2847   2864     1
   2847   2859     1
   2847   2860     1
   2848   2849     1
   2848   2864     1
   2848   2859     1
   2848   2860     1
   2849   2862     1
   2849   2863     1
   2850   2861     1
   2850   2853     1
   2850   2854     1
   2851   2861     1
   2851   2853     1
   2851   2854     1
   2853   2870     1
   2853   2862     1
   2853   2863     1
   2854   2870     1
   2854   2862     1
   2854   2863     1
   2856   5727     1
   2856   2868     1
   2856   2869     1
   2857   5727     1
   2857   2868     1
   2857   2869     1
   2859   5704     1
   2859   2865     1
   2859   2866     1
   2860   5704     1
   2860   2865     1
   2860   2866     1
   2864   5703     1
   2865   5700     1
   2866   5700     1
   2867   5726     1
   2868   5723     1
   2869   5723     1
   2871   2885     1
   2871   2886     1
   2871   2888     1
   2871   2889     1
   2871   2882     1
   2871   2883     1
   2872   2876     1
   2872   2877     1
   2872   2879     1
   2872   2880     1
   2872   2897     1
   2872   2898     1
   2873   2875     1
   2873   2878     1
   2873   2896     1
   2873   2885     1
   2873   2886     1
   2874   2875     1
   2874   2878     1
   2874   2896     1
   2874   2885     1
   2874   2886     1
   2875   2879     1
   2875   2880     1
   2875   2894     1
   2875   2895     1
   2876   2878     1
   2876   2893     1
   2876   2888     1
   2876   2889     1
   2877   2878     1
   2877   2893     1
   2877   2888     1
   2877   2889     1
   2878   2891     1
   2878   2892     1
   2879   2890     1
   2879   2882     1
   2879   2883     1
   2880   2890     1
   2880   2882     1
   2880   2883     1
   2882   2899     1
   2882   2891     1
   2882   2892     1
   2883   2899     1
   2883   2891     1
   2883   2892     1
   2885   5773     1
   2885   2897     1
   2885   2898     1
   2886   5773     1
   2886   2897     1
   2886   2898     1
   2888   5750     1
   2888   2894     1
   2888   2895     1
   2889   5750     1
   2889   2894     1
   2889   2895     1
   2893   5749     1
   2894   5746     1
   2895   5746     1
   2896   5772     1
   2897   5769     1
   2898   5769     1
   2900   2914     1
   2900   2915     1
   2900   2917     1
   2900   2918     1
   2900   2911     1
   2900   2912     1
   2901   2905     1
   2901   2906     1
   2901   2908     1
   2901   2909     1
   2901   2926     1
   2901   2927     1
   2902   2904     1
   2902   2907     1
   2902   2925     1
   2902   2914     1
   2902   2915     1
   2903   2904     1
   2903   2907     1
   2903   2925     1
   2903   2914     1
   2903   2915     1
   2904   2908     1
   2904   2909     1
   2904   2923     1
   2904   2924     1
   2905   2907     1
   2905   2922     1
   2905   2917     1
   2905   2918     1
   2906   2907     1
   2906   2922     1
   2906   2917     1
   2906   2918     1
   2907   2920     1
   2907   2921     1
   2908   2919     1
   2908   2911     1
   2908   2912     1
   2909   2919     1
   2909   2911     1
   2909   2912     1
   2911   2928     1
   2911   2920     1
   2911   2921     1
   2912   2928     1
   2912   2920     1
   2912   2921     1
   2914   5819     1
   2914   2926     1
   2914   2927     1
   2915   5819     1
   2915   2926     1
   2915   2927     1
   2917   5796     1
   2917   2923     1
   2917   2924     1
   2918   5796     1
   2918   2923     1
   2918   2924     1
   2922   5795     1
   2923   5792     1
   2924   5792     1
   2925   5818     1
   2926   5815     1
   2927   5815     1
   2929   2943     1
   2929   2944     1
   2929   2946     1
   2929   2947     1
   2929   2940     1
   2929   2941     1
   2930   2934     1
   2930   2935     1
   2930   2937     1
   2930   2938     1
   2930   2955     1
   2930   2956     1
   2931   2933     1
   2931   2936     1
   2931   2954     1
   2931   2943     1
   2931   2944     1
   2932   2933     1
   2932   2936     1
   2932   2954     1
   2932   2943     1
   2932   2944     1
   2933   2937     1
   2933   2938     1
   2933   2952     1
   2933   2953     1
   2934   2936     1
   2934   2951     1
   2934   2946     1
   2934   2947     1
   2935   2936     1
   2935   2951     1
   2935   2946     1
   2935   2947     1
   2936   2949     1
   2936   2950     1
   2937   2948     1
   2937   2940     1
   2937   2941     1
   2938   2948     1
   2938   2940     1
   2938   2941     1
   2940   2957     1
   2940   2949     1
   2940   2950     1
   2941   2957     1
   2941   2949     1
   2941   2950     1
   2943   5865     1
   2943   2955     1
   2943   2956     1
   2944   5865     1
   2944   2955     1
   2944   2956     1
   2946   5842     1
   2946   2952     1
   2946   2953     1
   2947   5842     1
   2947   2952     1
   2947   2953     1
   2951   5841     1
   2952   5838     1
   2953   5838     1
   2954   5864     1
   2955   5861     1
   2956   5861     1
   2958   2972     1
   2958   2973     1
   2958   2975     1
   2958   2976     1
   2958   2969     1
   2958   2970     1
   2959   2963     1
   2959   2964     1
   2959   2966     1
   2959   2967     1
   2959   2984     1
   2959   2985     1
   2960   2962     1
   2960   2965     1
   2960   2983     1
   2960   2972     1
   2960   2973     1
   2961   2962     1
   2961   2965     1
   2961   2983     1
   2961   2972     1
   2961   2973     1
   2962   2966     1
   2962   2967     1
   2962   2981     1
   2962   2982     1
   2963   2965     1
   2963   2980     1
   2963   2975     1
   2963   2976     1
   2964   2965     1
   2964   2980     1
   2964   2975     1
   2964   2976     1
   2965   2978     1
   2965   2979     1
   2966   2977     1
   2966   2969     1
   2966   2970     1
   2967   2977     1
   2967   2969     1
   2967   2970     1
   2969   2986     1
   2969   2978     1
   2969   2979     1
   2970   2986     1
   2970   2978     1
   2970   2979     1
   2972   5911     1
   2972   2984     1
   2972   2985     1
   2973   5911     1
   2973   2984     1
   2973   2985     1
   2975   5888     1
   2975   2981     1
   2975   2982     1
   2976   5888     1
   2976   2981     1
   2976   2982     1
   2980   5887     1
   2981   5884     1
   2982   5884     1
   2983   5910     1
   2984   5907     1
   2985   5907     1
   2987   3001     1
   2987   3002     1
   2987   3004     1
   2987   3005     1
   2987   2998     1
   2987   2999     1
   2988   2992     1
   2988   2993     1
   2988   2995     1
   2988   2996     1
   2988   3013     1
   2988   3014     1
   2989   2991     1
   2989   2994     1
   2989   3012     1
   2989   3001     1
   2989   3002     1
   2990   2991     1
   2990   2994     1
   2990   3012     1
   2990   3001     1
   2990   3002     1
   2991   2995     1
   2991   2996     1
   2991   3010     1
   2991   3011     1
   2992   2994     1
   2992   3009     1
   2992   3004     1
   2992   3005     1
   2993   2994     1
   2993   3009     1
   2993   3004     1
   2993   3005     1
   2994   3007     1
   2994   3008     1
   2995   3006     1
   2995   2998     1
   2995   2999     1
   2996   3006     1
   2996   2998     1
   2996   2999     1
   2998   3015     1
   2998   3007     1
   2998   3008     1
   2999   3015     1
   2999   3007     1
   2999   3008     1
   3001   5957     1
   3001   3013     1
   3001   3014     1
   3002   5957     1
   3002   3013     1
   3002   3014     1
   3004   5934     1
   3004   3010     1
   3004   3011     1
   3005   5934     1
   3005   3010     1
   3005   3011     1
   3009   5933     1
   3010   5930     1
   3011   5930     1
   3012   5956     1
   3013   5953     1
   3014   5953     1
   3016   3030     1
   3016   3031     1
   3016   3033     1
   3016   3034     1
   3016   3027     1
   3016   3028     1
   3017   3021     1
   3017   3022     1
   3017   3024     1
   3017   3025     1
   3017   3042     1
   3017   3043     1
   3018   3020     1
   3018   3023     1
   3018   3041     1
   3018   3030     1
   3018   3031     1
   3019   3020     1
   3019   3023     1
   3019   3041     1
   3019   3030     1
   3019   3031     1
   3020   3024     1
   3020   3025     1
   3020   3039     1
   3020   3040     1
   3021   3023     1
   3021   3038     1
   3021   3033     1
   3021   3034     1
   3022   3023     1
   3022   3038     1
   3022   3033     1
   3022   3034     1
   3023   3036     1
   3023   3037     1
   3024   3035     1
   3024   3027     1
   3024   3028     1
   3025   3035     1
   3025   3027     1
   3025   3028     1
   3027   3044     1
   3027   3036     1
   3027   3037     1
   3028   3044     1
   3028   3036     1
   3028   3037     1
   3030   6003     1
   3030   3042     1
   3030   3043     1
   3031   6003     1
   3031   3042     1
   3031   3043     1
   3033   5980     1
   3033   3039     1
   3033   3040     1
   3034   5980     1
   3034   3039     1
   3034   3040     1
   3038   5979     1
   3039   5976     1
   3040   5976     1
   3041   6002     1
   3042   5999     1
   3043   5999     1
   3045   3059     1
   3045   3060     1
   3045   3062     1
   3045   3063     1
   3045   3056     1
   3045   3057     1
   3046   3050     1
   3046   3051     1
   3046   3053     1
   3046   3054     1
   3046   3071     1
   3046   3072     1
   3047   3049     1
   3047   3052     1
   3047   3070     1
   3047   3059     1
   3047   3060     1
   3048   3049     1
   3048   3052     1
   3048   3070     1
   3048   3059     1
   3048   3060     1
   3049   3053     1
   3049   3054     1
   3049   3068     1
   3049   3069     1
   3050   3052     1
   3050   3067     1
   3050   3062     1
   3050   3063     1
   3051   3052     1
   3051   3067     1
   3051   3062     1
   3051   3063     1
   3052   3065     1
   3052   3066     1
   3053   3064     1
   3053   3056     1
   3053   3057     1
   3054   3064     1
   3054   3056     1
   3054   3057     1
   3056   3073     1
   3056   3065     1
   3056   3066     1
   3057   3073     1
   3057   3065     1
   3057   3066     1
   3059   6049     1
   3059   3071     1
   3059   3072     1
   3060   6049     1
   3060   3071     1
   3060   3072     1
   3062   6026     1
   3062   3068     1
   3062   3069     1
   3063   6026     1
   3063   3068     1
   3063   3069     1
   3067   6025     1
   3068   6022     1
   3069   6022     1
   3070   6048     1
   3071   6045     1
   3072   6045     1
   3074   3088     1
   3074   3089     1
   3074   3091     1
   3074   3092     1
   3074   3085     1
   3074   3086     1
   3075   3079     1
   3075   3080     1
   3075   3082     1
   3075   3083     1
   3075   3100     1
   3075   3101     1
   3076   3078     1
   3076   3081     1
   3076   3099     1
   3076   3088     1
   3076   3089     1
   3077   3078     1
   3077   3081     1
   3077   3099     1
   3077   3088     1
   3077   3089     1
   3078   3082     1
   3078   3083     1
   3078   3097     1
   3078   3098     1
   3079   3081     1
   3079   3096     1
   3079   3091     1
   3079   3092     1
   3080   3081     1
   3080   3096     1
   3080   3091     1
   3080   3092     1
   3081   3094     1
   3081   3095     1
   3082   3093     1
   3082   3085     1
   3082   3086     1
   3083   3093     1
   3083   3085     1
   3083   3086     1
   3085   3102     1
   3085   3094     1
   3085   3095     1
   3086   3102     1
   3086   3094     1
   3086   3095     1
   3088   6095     1
   3088   3100     1
   3088   3101     1
   3089   6095     1
   3089   3100     1
   3089   3101     1
   3091   6072     1
   3091   3097     1
   3091   3098     1
   3092   6072     1
   3092   3097     1
   3092   3098     1
   3096   6071     1
   3097   6068     1
   3098   6068     1
   3099   6094     1
   3100   6091     1
   3101   6091     1
   3103   3117     1
   3103   3118     1
   3103   3120     1
   3103   3121     1
   3103   3114     1
   3103   3115     1
   3104   3108     1
   3104   3109     1
   3104   3111     1
   3104   3112     1
   3104   3129     1
   3104   3130     1
   3105   3107     1
   3105   3110     1
   3105   3128     1
   3105   3117     1
   3105   3118     1
   3106   3107     1
   3106   3110     1
   3106   3128     1
   3106   3117     1
   3106   3118     1
   3107   3111     1
   3107   3112     1
   3107   3126     1
   3107   3127     1
   3108   3110     1
   3108   3125     1
   3108   3120     1
   3108   3121     1
   3109   3110     1
   3109   3125     1
   3109   3120     1
   3109   3121     1
   3110   3123     1
   3110   3124     1
   3111   3122     1
   3111   3114     1
   3111   3115     1
   3112   3122     1
   3112   3114     1
   3112   3115     1
   3114   3131     1
   3114   3123     1
   3114   3124     1
   3115   3131     1
   3115   3123     1
   3115   3124     1
   3117   6141     1
   3117   3129     1
   3117   3130     1
   3118   6141     1
   3118   3129     1
   3118   3130     1
   3120   6118     1
   3120   3126     1
   3120   3127     1
   3121   6118     1
   3121   3126     1
   3121   3127     1
   3125   6117     1
   3126   6114     1
   3127   6114     1
   3128   6140     1
   3129   6137     1
   3130   6137     1
   3132   3146     1
   3132   3147     1
   3132   3149     1
   3132   3150     1
   3132   3143     1
   3132   3144     1
   3133   3137     1
   3133   3138     1
   3133   3140     1
   3133   3141     1
   3133   3158     1
   3133   3159     1
   3134   3136     1
   3134   3139     1
   3134   3157     1
   3134   3146     1
   3134   3147     1
   3135   3136     1
   3135   3139     1
   3135   3157     1
   3135   3146     1
   3135   3147     1
   3136   3140     1
   3136   3141     1
   3136   3155     1
   3136   3156     1
   3137   3139     1
   3137   3154     1
   3137   3149     1
   3137   3150     1
   3138   3139     1
   3138   3154     1
   3138   3149     1
   3138   3150     1
   3139   3152     1
   3139   3153     1
   3140   3151     1
   3140   3143     1
   3140   3144     1
   3141   3151     1
   3141   3143     1
   3141   3144     1
   3143   3160     1
   3143   3152     1
   3143   3153     1
   3144   3160     1
   3144   3152     1
   3144   3153     1
   3146   6187     1
   3146   3158     1
   3146   3159     1
   3147   6187     1
   3147   3158     1
   3147   3159     1
   3149   6164     1
   3149   3155     1
   3149   3156     1
   3150   6164     1
   3150   3155     1
   3150   3156     1
   3154   6163     1
   3155   6160     1
   3156   6160     1
   3157   6186     1
   3158   6183     1
   3159   6183     1
   3161   3175     1
   3161   3176     1
   3161   3178     1
   3161   3179     1
   3161   3172     1
   3161   3173     1
   3162   3166     1
   3162   3167     1
   3162   3169     1
   3162   3170     1
   3162   3187     1
   3162   3188     1
   3163   3165     1
   3163   3168     1
   3163   3186     1
   3163   3175     1
   3163   3176     1
   3164   3165     1
   3164   3168     1
   3164   3186     1
   3164   3175     1
   3164   3176     1
   3165   3169     1
   3165   3170     1
   3165   3184     1
   3165   3185     1
   3166   3168     1
   3166   3183     1
   3166   3178     1
   3166   3179     1
   3167   3168     1
   3167   3183     1
   3167   3178     1
   3167   3179     1
   3168   3181     1
   3168   3182     1
   3169   3180     1
   3169   3172     1
   3169   3173     1
   3170   3180     1
   3170   3172     1
   3170   3173     1
   3172   3189     1
   3172   3181     1
   3172   3182     1
   3173   3189     1
   3173   3181     1
   3173   3182     1
   3175   6233     1
   3175   3187     1
   3175   3188     1
   3176   6233     1
   3176   3187     1
   3176   3188     1
   3178   6210     1
   3178   3184     1
   3178   3185     1
   3179   6210     1
   3179   3184     1
   3179   3185     1
   3183   6209     1
   3184   6206     1
   3185   6206     1
   3186   6232     1
   3187   6229     1
   3188   6229     1
   3190   3204     1
   3190   3205     1
   3190   3207     1
   3190   3208     1
   3190   3201     1
   3190   3202     1
   3191   3195     1
   3191   3196     1
   3191   3198     1
   3191   3199     1
   3191   3216     1
   3191   3217     1
   3192   3194     1
   3192   3197     1
   3192   3215     1
   3192   3204     1
   3192   3205     1
   3193   3194     1
   3193   3197     1
   3193   3215     1
   3193   3204     1
   3193   3205     1
   3194   3198     1
   3194   3199     1
   3194   3213     1
   3194   3214     1
   3195   3197     1
   3195   3212     1
   3195   3207     1
   3195   3208     1
   3196   3197     1
   3196   3212     1
   3196   3207     1
   3196   3208     1
   3197   3210     1
   3197   3211     1
   3198   3209     1
   3198   3201     1
   3198   3202     1
   3199   3209     1
   3199   3201     1
   3199   3202     1
   3201   3218     1
   3201   3210     1
   3201   3211     1
   3202   3218     1
   3202   3210     1
   3202   3211     1
   3204   6279     1
   3204   3216     1
   3204   3217     1
   3205   6279     1
   3205   3216     1
   3205   3217     1
   3207   6256     1
   3207   3213     1
   3207   3214     1
   3208   6256     1
   3208   3213     1
   3208   3214     1
   3212   6255     1
   3213   6252     1
   3214   6252     1
   3215   6278     1
   3216   6275     1
   3217   6275     1
   3219   3233     1
   3219   3234     1
   3219   3236     1
   3219   3237     1
   3219   3230     1
   3219   3231     1
   3220   3224     1
   3220   3225     1
   3220   3227     1
   3220   3228     1
   3220   3245     1
   3220   3246     1
   3221   3223     1
   3221   3226     1
   3221   3244     1
   3221   3233     1
   3221   3234     1
   3222   3223     1
   3222   3226     1
   3222   3244     1
   3222   3233     1
   3222   3234     1
   3223   3227     1
   3223   3228     1
   3223   3242     1
   3223   3243     1
   3224   3226     1
   3224   3241     1
   3224   3236     1
   3224   3237     1
   3225   3226     1
   3225   3241     1
   3225   3236     1
   3225   3237     1
   3226   3239     1
   3226   3240     1
   3227   3238     1
   3227   3230     1
   3227   3231     1
   3228   3238     1
   3228   3230     1
   3228   3231     1
   3230   3247     1
   3230   3239     1
   3230   3240     1
   3231   3247     1
   3231   3239     1
   3231   3240     1
   3233   6325     1
   3233   3245     1
   3233   3246     1
   3234   6325     1
   3234   3245     1
   3234   3246     1
   3236   6302     1
   3236   3242     1
   3236   3243     1
   3237   6302     1
   3237   3242     1
   3237   3243     1
   3241   6301     1
   3242   6298     1
   3243   6298     1
   3244   6324     1
   3245   6321     1
   3246   6321     1
   3248   3262     1
   3248   3263     1
   3248   3265     1
   3248   3266     1
   3248   3259     1
   3248   3260     1
   3249   3253     1
   3249   3254     1
   3249   3256     1
   3249   3257     1
   3249   3274     1
   3249   3275     1
   3250   3252     1
   3250   3255     1
   3250   3273     1
   3250   3262     1
   3250   3263     1
   3251   3252     1
   3251   3255     1
   3251   3273     1
   3251   3262     1
   3251   3263     1
   3252   3256     1
   3252   3257     1
   3252   3271     1
   3252   3272     1
   3253   3255     1
   3253   3270     1
   3253   3265     1
   3253   3266     1
   3254   3255     1
   3254   3270     1
   3254   3265     1
   3254   3266     1
   3255   3268     1
   3255   3269     1
   3256   3267     1
   3256   3259     1
   3256   3260     1
   3257   3267     1
   3257   3259     1
   3257   3260     1
   3259   3276     1
   3259   3268     1
   3259   3269     1
   3260   3276     1
   3260   3268     1
   3260   3269     1
   3262   6371     1
   3262   3274     1
   3262   3275     1
   3263   6371     1
   3263   3274     1
   3263   3275     1
   3265   6348     1
   3265   3271     1
   3265   3272     1
   3266   6348     1
   3266   3271     1
   3266   3272     1
   3270   6347     1
   3271   6344     1
   3272   6344     1
   3273   6370     1
   3274   6367     1
   3275   6367     1
   3277   3291     1
   3277   3292     1
   3277   3294     1
   3277   3295     1
   3277   3288     1
   3277   3289     1
   3278   3282     1
   3278   3283     1
   3278   3285     1
   3278   3286     1
   3278   3303     1
   3278   3304     1
   3279   3281     1
   3279   3284     1
   3279   3302     1
   3279   3291     1
   3279   3292     1
   3280   3281     1
   3280   3284     1
   3280   3302     1
   3280   3291     1
   3280   3292     1
   3281   3285     1
   3281   3286     1
   3281   3300     1
   3281   3301     1
   3282   3284     1
   3282   3299     1
   3282   3294     1
   3282   3295     1
   3283   3284     1
   3283   3299     1
   3283   3294     1
   3283   3295     1
   3284   3297     1
   3284   3298     1
   3285   3296     1
   3285   3288     1
   3285   3289     1
   3286   3296     1
   3286   3288     1
   3286   3289     1
   3288   3305     1
   3288   3297     1
   3288   3298     1
   3289   3305     1
   3289   3297     1
   3289   3298     1
   3291   6417     1
   3291   3303     1
   3291   3304     1
   3292   6417     1
   3292   3303     1
   3292   3304     1
   3294   6394     1
   3294   3300     1
   3294   3301     1
   3295   6394     1
   3295   3300     1
   3295   3301     1
   3299   6393     1
   3300   6390     1
   3301   6390     1
   3302   6416     1
   3303   6413     1
   3304   6413     1
   3306   3320     1
   3306   3321     1
   3306   3323     1
   3306   3324     1
   3306   3317     1
   3306   3318     1
   3307   3311     1
   3307   3312     1
   3307   3314     1
   3307   3315     1
   3307   3332     1
   3307   3333     1
   3308   3310     1
   3308   3313     1
   3308   3331     1
   3308   3320     1
   3308   3321     1
   3309   3310     1
   3309   3313     1
   3309   3331     1
   3309   3320     1
   3309   3321     1
   3310   3314     1
   3310   3315     1
   3310   3329     1
   3310   3330     1
   3311   3313     1
   3311   3328     1
   3311   3323     1
   3311   3324     1
   3312   3313     1
   3312   3328     1
   3312   3323     1
   3312   3324     1
   3313   3326     1
   3313   3327     1
   3314   3325     1
   3314   3317     1
   3314   3318     1
   3315   3325     1
   3315   3317     1
   3315   3318     1
   3317   3334     1
   3317   3326     1
   3317   3327     1
   3318   3334     1
   3318   3326     1
   3318   3327     1
   3320   6463     1
   3320   3332     1
   3320   3333     1
   3321   6463     1
   3321   3332     1
   3321   3333     1
   3323   6440     1
   3323   3329     1
   3323   3330     1
   3324   6440     1
   3324   3329     1
   3324   3330     1
   3328   6439     1
   3329   6436     1
   3330   6436     1
   3331   6462     1
   3332   6459     1
   3333   6459     1
   3335   3349     1
   3335   3350     1
   3335   3352     1
   3335   3353     1
   3335   3346     1
   3335   3347     1
   3336   3340     1
   3336   3341     1
   3336   3343     1
   3336   3344     1
   3336   3361     1
   3336   3362     1
   3337   3339     1
   3337   3342     1
   3337   3360     1
   3337   3349     1
   3337   3350     1
   3338   3339     1
   3338   3342     1
   3338   3360     1
   3338   3349     1
   3338   3350     1
   3339   3343     1
   3339   3344     1
   3339   3358     1
   3339   3359     1
   3340   3342     1
   3340   3357     1
   3340   3352     1
   3340   3353     1
   3341   3342     1
   3341   3357     1
   3341   3352     1
   3341   3353     1
   3342   3355     1
   3342   3356     1
   3343   3354     1
   3343   3346     1
   3343   3347     1
   3344   3354     1
   3344   3346     1
   3344   3347     1
   3346   3363     1
   3346   3355     1
   3346   3356     1
   3347   3363     1
   3347   3355     1
   3347   3356     1
   3349   6509     1
   3349   3361     1
   3349   3362     1
   3350   6509     1
   3350   3361     1
   3350   3362     1
   3352   6486     1
   3352   3358     1
   3352   3359     1
   3353   6486     1
   3353   3358     1
   3353   3359     1
   3357   6485     1
   3358   6482     1
   3359   6482     1
   3360   6508     1
   3361   6505     1
   3362   6505     1
   3364   3378     1
   3364   3379     1
   3364   3381     1
   3364   3382     1
   3364   3375     1
   3364   3376     1
   3365   3369     1
   3365   3370     1
   3365   3372     1
   3365   3373     1
   3365   3390     1
   3365   3391     1
   3366   3368     1
   3366   3371     1
   3366   3389     1
   3366   3378     1
   3366   3379     1
   3367   3368     1
   3367   3371     1
   3367   3389     1
   3367   3378     1
   3367   3379     1
   3368   3372     1
   3368   3373     1
   3368   3387     1
   3368   3388     1
   3369   3371     1
   3369   3386     1
   3369   3381     1
   3369   3382     1
   3370   3371     1
   3370   3386     1
   3370   3381     1
   3370   3382     1
   3371   3384     1
   3371   3385     1
   3372   3383     1
   3372   3375     1
   3372   3376     1
   3373   3383     1
   3373   3375     1
   3373   3376     1
   3375   3392     1
   3375   3384     1
   3375   3385     1
   3376   3392     1
   3376   3384     1
   3376   3385     1
   3378   6555     1
   3378   3390     1
   3378   3391     1
   3379   6555     1
   3379   3390     1
   3379   3391     1
   3381   6532     1
   3381   3387     1
   3381   3388     1
   3382   6532     1
   3382   3387     1
   3382   3388     1
   3386   6531     1
   3387   6528     1
   3388   6528     1
   3389   6554     1
   3390   6551     1
   3391   6551     1
   3393   3407     1
   3393   3408     1
   3393   3410     1
   3393   3411     1
   3393   3404     1
   3393   3405     1
   3394   3398     1
   3394   3399     1
   3394   3401     1
   3394   3402     1
   3394   3419     1
   3394   3420     1
   3395   3397     1
   3395   3400     1
   3395   3418     1
   3395   3407     1
   3395   3408     1
   3396   3397     1
   3396   3400     1
   3396   3418     1
   3396   3407     1
   3396   3408     1
   3397   3401     1
   3397   3402     1
   3397   3416     1
   3397   3417     1
   3398   3400     1
   3398   3415     1
   3398   3410     1
   3398   3411     1
   3399   3400     1
   3399   3415     1
   3399   3410     1
   3399   3411     1
   3400   3413     1
   3400   3414     1
   3401   3412     1
   3401   3404     1
   3401   3405     1
   3402   3412     1
   3402   3404     1
   3402   3405     1
   3404   3421     1
   3404   3413     1
   3404   3414     1
   3405   3421     1
   3405   3413     1
   3405   3414     1
   3407   6601     1
   3407   3419     1
   3407   3420     1
   3408   6601     1
   3408   3419     1
   3408   3420     1
   3410   6578     1
   3410   3416     1
   3410   3417     1
   3411   6578     1
   3411   3416     1
   3411   3417     1
   3415   6577     1
   3416   6574     1
   3417   6574     1
   3418   6600     1
   3419   6597     1
   3420   6597     1
   3422   3436     1
   3422   3437     1
   3422   3439     1
   3422   3440     1
   3422   3433     1
   3422   3434     1
   3423   3427     1
   3423   3428     1
   3423   3430     1
   3423   3431     1
   3423   3448     1
   3423   3449     1
   3424   3426     1
   3424   3429     1
   3424   3447     1
   3424   3436     1
   3424   3437     1
   3425   3426     1
   3425   3429     1
   3425   3447     1
   3425   3436     1
   3425   3437     1
   3426   3430     1
   3426   3431     1
   3426   3445     1
   3426   3446     1
   3427   3429     1
   3427   3444     1
   3427   3439     1
   3427   3440     1
   3428   3429     1
   3428   3444     1
   3428   3439     1
   3428   3440     1
   3429   3442     1
   3429   3443     1
   3430   3441     1
   3430   3433     1
   3430   3434     1
   3431   3441     1
   3431   3433     1
   3431   3434     1
   3433   3450     1
   3433   3442     1
   3433   3443     1
   3434   3450     1
   3434   3442     1
   3434   3443     1
   3436   6647     1
   3436   3448     1
   3436   3449     1
   3437   6647     1
   3437   3448     1
   3437   3449     1
   3439   6624     1
   3439   3445     1
   3439   3446     1
   3440   6624     1
   3440   3445     1
   3440   3446     1
   3444   6623     1
   3445   6620     1
   3446   6620     1
   3447   6646     1
   3448   6643     1
   3449   6643     1
   3451   3465     1
   3451   3466     1
   3451   3468     1
   3451   3469     1
   3451   3462     1
   3451   3463     1
   3452   3456     1
   3452   3457     1
   3452   3459     1
   3452   3460     1
   3452   3477     1
   3452   3478     1
   3453   3455     1
   3453   3458     1
   3453   3476     1
   3453   3465     1
   3453   3466     1
   3454   3455     1
   3454   3458     1
   3454   3476     1
   3454   3465     1
   3454   3466     1
   3455   3459     1
   3455   3460     1
   3455   3474     1
   3455   3475     1
   3456   3458     1
   3456   3473     1
   3456   3468     1
   3456   3469     1
   3457   3458     1
   3457   3473     1
   3457   3468     1
   3457   3469     1
   3458   3471     1
   3458   3472     1
   3459   3470     1
   3459   3462     1
   3459   3463     1
   3460   3470     1
   3460   3462     1
   3460   3463     1
   3462   3479     1
   3462   3471     1
   3462   3472     1
   3463   3479     1
   3463   3471     1
   3463   3472     1
   3465   6693     1
   3465   3477     1
   3465   3478     1
   3466   6693     1
   3466   3477     1
   3466   3478     1
   3468   6670     1
   3468   3474     1
   3468   3475     1
   3469   6670     1
   3469   3474     1
   3469   3475     1
   3473   6669     1
   3474   6666     1
   3475   6666     1
   3476   6692     1
   3477   6689     1
   3478   6689     1
   3480   3494     1
   3480   3495     1
   3480   3497     1
   3480   3498     1
   3480   3491     1
   3480   3492     1
   3481   3485     1
   3481   3486     1
   3481   3488     1
   3481   3489     1
   3481   3506     1
   3481   3507     1
   3482   3484     1
   3482   3487     1
   3482   3505     1
   3482   3494     1
   3482   3495     1
   3483   3484     1
   3483   3487     1
   3483   3505     1
   3483   3494     1
   3483   3495     1
   3484   3488     1
   3484   3489     1
   3484   3503     1
   3484   3504     1
   3485   3487     1
   3485   3502     1
   3485   3497     1
   3485   3498     1
   3486   3487     1
   3486   3502     1
   3486   3497     1
   3486   3498     1
   3487   3500     1
   3487   3501     1
   3488   3499     1
   3488   3491     1
   3488   3492     1
   3489   3499     1
   3489   3491     1
   3489   3492     1
   3491   3508     1
   3491   3500     1
   3491   3501     1
   3492   3508     1
   3492   3500     1
   3492   3501     1
   3494   6739     1
   3494   3506     1
   3494   3507     1
   3495   6739     1
   3495   3506     1
   3495   3507     1
   3497   6716     1
   3497   3503     1
   3497   3504     1
   3498   6716     1
   3498   3503     1
   3498   3504     1
   3502   6715     1
   3503   6712     1
   3504   6712     1
   3505   6738     1
   3506   6735     1
   3507   6735     1
   3509   3523     1
   3509   3524     1
   3509   3526     1
   3509   3527     1
   3509   3520     1
   3509   3521     1
   3510   3514     1
   3510   3515     1
   3510   3517     1
   3510   3518     1
   3510   3535     1
   3510   3536     1
   3511   3513     1
   3511   3516     1
   3511   3534     1
   3511   3523     1
   3511   3524     1
   3512   3513     1
   3512   3516     1
   3512   3534     1
   3512   3523     1
   3512   3524     1
   3513   3517     1
   3513   3518     1
   3513   3532     1
   3513   3533     1
   3514   3516     1
   3514   3531     1
   3514   3526     1
   3514   3527     1
   3515   3516     1
   3515   3531     1
   3515   3526     1
   3515   3527     1
   3516   3529     1
   3516   3530     1
   3517   3528     1
   3517   3520     1
   3517   3521     1
   3518   3528     1
   3518   3520     1
   3518   3521     1
   3520   3537     1
   3520   3529     1
   3520   3530     1
   3521   3537     1
   3521   3529     1
   3521   3530     1
   3523   6785     1
   3523   3535     1
   3523   3536     1
   3524   6785     1
   3524   3535     1
   3524   3536     1
   3526   6762     1
   3526   3532     1
   3526   3533     1
   3527   6762     1
   3527   3532     1
   3527   3533     1
   3531   6761     1
   3532   6758     1
   3533   6758     1
   3534   6784     1
   3535   6781     1
   3536   6781     1
   3538   3552     1
   3538   3553     1
   3538   3555     1
   3538   3556     1
   3538   3549     1
   3538   3550     1
   3539   3543     1
   3539   3544     1
   3539   3546     1
   3539   3547     1
   3539   3564     1
   3539   3565     1
   3540   3542     1
   3540   3545     1
   3540   3563     1
   3540   3552     1
   3540   3553     1
   3541   3542     1
   3541   3545     1
   3541   3563     1
   3541   3552     1
   3541   3553     1
   3542   3546     1
   3542   3547     1
   3542   3561     1
   3542   3562     1
   3543   3545     1
   3543   3560     1
   3543   3555     1
   3543   3556     1
   3544   3545     1
   3544   3560     1
   3544   3555     1
   3544   3556     1
   3545   3558     1
   3545   3559     1
   3546   3557     1
   3546   3549     1
   3546   3550     1
   3547   3557     1
   3547   3549     1
   3547   3550     1
   3549   3566     1
   3549   3558     1
   3549   3559     1
   3550   3566     1
   3550   3558     1
   3550   3559     1
   3552   6831     1
   3552   3564     1
   3552   3565     1
   3553   6831     1
   3553   3564     1
   3553   3565     1
   3555   6808     1
   3555   3561     1
   3555   3562     1
   3556   6808     1
   3556   3561     1
   3556   3562     1
   3560   6807     1
   3561   6804     1
   3562   6804     1
   3563   6830     1
   3564   6827     1
   3565   6827     1
   3567   3581     1
   3567   3582     1
   3567   3584     1
   3567   3585     1
   3567   3578     1
   3567   3579     1
   3568   3572     1
   3568   3573     1
   3568   3575     1
   3568   3576     1
   3568   3593     1
   3568   3594     1
   3569   3571     1
   3569   3574     1
   3569   3592     1
   3569   3581     1
   3569   3582     1
   3570   3571     1
   3570   3574     1
   3570   3592     1
   3570   3581     1
   3570   3582     1
   3571   3575     1
   3571   3576     1
   3571   3590     1
   3571   3591     1
   3572   3574     1
   3572   3589     1
   3572   3584     1
   3572   3585     1
   3573   3574     1
   3573   3589     1
   3573   3584     1
   3573   3585     1
   3574   3587     1
   3574   3588     1
   3575   3586     1
   3575   3578     1
   3575   3579     1
   3576   3586     1
   3576   3578     1
   3576   3579     1
   3578   3595     1
   3578   3587     1
   3578   3588     1
   3579   3595     1
   3579   3587     1
   3579   3588     1
   3581   6877     1
   3581   3593     1
   3581   3594     1
   3582   6877     1
   3582   3593     1
   3582   3594     1
   3584   6854     1
   3584   3590     1
   3584   3591     1
   3585   6854     1
   3585   3590     1
   3585   3591     1
   3589   6853     1
   3590   6850     1
   3591   6850     1
   3592   6876     1
   3593   6873     1
   3594   6873     1
   3596   3610     1
   3596   3611     1
   3596   3613     1
   3596   3614     1
   3596   3607     1
   3596   3608     1
   3597   3601     1
   3597   3602     1
   3597   3604     1
   3597   3605     1
   3597   3622     1
   3597   3623     1
   3598   3600     1
   3598   3603     1
   3598   3621     1
   3598   3610     1
   3598   3611     1
   3599   3600     1
   3599   3603     1
   3599   3621     1
   3599   3610     1
   3599   3611     1
   3600   3604     1
   3600   3605     1
   3600   3619     1
   3600   3620     1
   3601   3603     1
   3601   3618     1
   3601   3613     1
   3601   3614     1
   3602   3603     1
   3602   3618     1
   3602   3613     1
   3602   3614     1
   3603   3616     1
   3603   3617     1
   3604   3615     1
   3604   3607     1
   3604   3608     1
   3605   3615     1
   3605   3607     1
   3605   3608     1
   3607   3624     1
   3607   3616     1
   3607   3617     1
   3608   3624     1
   3608   3616     1
   3608   3617     1
   3610   6923     1
   3610   3622     1
   3610   3623     1
   3611   6923     1
   3611   3622     1
   3611   3623     1
   3613   6900     1
   3613   3619     1
   3613   3620     1
   3614   6900     1
   3614   3619     1
   3614   3620     1
   3618   6899     1
   3619   6896     1
   3620   6896     1
   3621   6922     1
   3622   6919     1
   3623   6919     1
   3625   3639     1
   3625   3640     1
   3625   3642     1
   3625   3643     1
   3625   3636     1
   3625   3637     1
   3626   3630     1
   3626   3631     1
   3626   3633     1
   3626   3634     1
   3626   3651     1
   3626   3652     1
   3627   3629     1
   3627   3632     1
   3627   3650     1
   3627   3639     1
   3627   3640     1
   3628   3629     1
   3628   3632     1
   3628   3650     1
   3628   3639     1
   3628   3640     1
   3629   3633     1
   3629   3634     1
   3629   3648     1
   3629   3649     1
   3630   3632     1
   3630   3647     1
   3630   3642     1
   3630   3643     1
   3631   3632     1
   3631   3647     1
   3631   3642     1
   3631   3643     1
   3632   3645     1
   3632   3646     1
   3633   3644     1
   3633   3636     1
   3633   3637     1
   3634   3644     1
   3634   3636     1
   3634   3637     1
   3636   3653     1
   3636   3645     1
   3636   3646     1
   3637   3653     1
   3637   3645     1
   3637   3646     1
   3639   6969     1
   3639   3651     1
   3639   3652     1
   3640   6969     1
   3640   3651     1
   3640   3652     1
   3642   6946     1
   3642   3648     1
   3642   3649     1
   3643   6946     1
   3643   3648     1
   3643   3649     1
   3647   6945     1
   3648   6942     1
   3649   6942     1
   3650   6968     1
   3651   6965     1
   3652   6965     1
   3654   3668     1
   3654   3669     1
   3654   3671     1
   3654   3672     1
   3654   3665     1
   3654   3666     1
   3655   3659     1
   3655   3660     1
   3655   3662     1
   3655   3663     1
   3655   3680     1
   3655   3681     1
   3656   3658     1
   3656   3661     1
   3656   3679     1
   3656   3668     1
   3656   3669     1
   3657   3658     1
   3657   3661     1
   3657   3679     1
   3657   3668     1
   3657   3669     1
   3658   3662     1
   3658   3663     1
   3658   3677     1
   3658   3678     1
   3659   3661     1
   3659   3676     1
   3659   3671     1
   3659   3672     1
   3660   3661     1
   3660   3676     1
   3660   3671     1
   3660   3672     1
   3661   3674     1
   3661   3675     1
   3662   3673     1
   3662   3665     1
   3662   3666     1
   3663   3673     1
   3663   3665     1
   3663   3666     1
   3665   3682     1
   3665   3674     1
   3665   3675     1
   3666   3682     1
   3666   3674     1
   3666   3675     1
   3668   7015     1
   3668   3680     1
   3668   3681     1
   3669   7015     1
   3669   3680     1
   3669   3681     1
   3671   6992     1
   3671   3677     1
   3671   3678     1
   3672   6992     1
   3672   3677     1
   3672   3678     1
   3676   6991     1
   3677   6988     1
   3678   6988     1
   3679   7014     1
   3680   7011     1
   3681   7011     1
   3683   3697     1
   3683   3698     1
   3683   3700     1
   3683   3701     1
   3683   3694     1
   3683   3695     1
   3684   3688     1
   3684   3689     1
   3684   3691     1
   3684   3692     1
   3684   3709     1
   3684   3710     1
   3685   3687     1
   3685   3690     1
   3685   3708     1
   3685   3697     1
   3685   3698     1
   3686   3687     1
   3686   3690     1
   3686   3708     1
   3686   3697     1
   3686   3698     1
   3687   3691     1
   3687   3692     1
   3687   3706     1
   3687   3707     1
   3688   3690     1
   3688   3705     1
   3688   3700     1
   3688   3701     1
   3689   3690     1
   3689   3705     1
   3689   3700     1
   3689   3701     1
   3690   3703     1
   3690   3704     1
   3691   3702     1
   3691   3694     1
   3691   3695     1
   3692   3702     1
   3692   3694     1
   3692   3695     1
   3694   3711     1
   3694   3703     1
   3694   3704     1
   3695   3711     1
   3695   3703     1
   3695   3704     1
   3697   7061     1
   3697   3709     1
   3697   3710     1
   3698   7061     1
   3698   3709     1
   3698   3710     1
   3700   7038     1
   3700   3706     1
   3700   3707     1
   3701   7038     1
   3701   3706     1
   3701   3707     1
   3705   7037     1
   3706   7034     1
   3707   7034     1
   3708   7060     1
   3709   7057     1
   3710   7057     1
   3712   3726     1
   3712   3727     1
   3712   3729     1
   3712   3730     1
   3712   3723     1
   3712   3724     1
   3713   3717     1
   3713   3718     1
   3713   3720     1
   3713   3721     1
   3713   3738     1
   3713   3739     1
   3714   3716     1
   3714   3719     1
   3714   3737     1
   3714   3726     1
   3714   3727     1
   3715   3716     1
   3715   3719     1
   3715   3737     1
   3715   3726     1
   3715   3727     1
   3716   3720     1
   3716   3721     1
   3716   3735     1
   3716   3736     1
   3717   3719     1
   3717   3734     1
   3717   3729     1
   3717   3730     1
   3718   3719     1
   3718   3734     1
   3718   3729     1
   3718   3730     1
   3719   3732     1
   3719   3733     1
   3720   3731     1
   3720   3723     1
   3720   3724     1
   3721   3731     1
   3721   3723     1
   3721   3724     1
   3723   3740     1
   3723   3732     1
   3723   3733     1
   3724   3740     1
   3724   3732     1
   3724   3733     1
   3726   7107     1
   3726   3738     1
   3726   3739     1
   3727   7107     1
   3727   3738     1
   3727   3739     1
   3729   7084     1
   3729   3735     1
   3729   3736     1
   3730   7084     1
   3730   3735     1
   3730   3736     1
   3734   7083     1
   3735   7080     1
   3736   7080     1
   3737   7106     1
   3738   7103     1
   3739   7103     1
   3741   3755     1
   3741   3756     1
   3741   3758     1
   3741   3759     1
   3741   3752     1
   3741   3753     1
   3742   3746     1
   3742   3747     1
   3742   3749     1
   3742   3750     1
   3742   3767     1
   3742   3768     1
   3743   3745     1
   3743   3748     1
   3743   3766     1
   3743   3755     1
   3743   3756     1
   3744   3745     1
   3744   3748     1
   3744   3766     1
   3744   3755     1
   3744   3756     1
   3745   3749     1
   3745   3750     1
   3745   3764     1
   3745   3765     1
   3746   3748     1
   3746   3763     1
   3746   3758     1
   3746   3759     1
   3747   3748     1
   3747   3763     1
   3747   3758     1
   3747   3759     1
   3748   3761     1
   3748   3762     1
   3749   3760     1
   3749   3752     1
   3749   3753     1
   3750   3760     1
   3750   3752     1
   3750   3753     1
   3752   3769     1
   3752   3761     1
   3752   3762     1
   3753   3769     1
   3753   3761     1
   3753   3762     1
   3755   7153     1
   3755   3767     1
   3755   3768     1
   3756   7153     1
   3756   3767     1
   3756   3768     1
   3758   7130     1
   3758   3764     1
   3758   3765     1
   3759   7130     1
   3759   3764     1
   3759   3765     1
   3763   7129     1
   3764   7126     1
   3765   7126     1
   3766   7152     1
   3767   7149     1
   3768   7149     1
   3770   3784     1
   3770   3785     1
   3770   3787     1
   3770   3788     1
   3770   3781     1
   3770   3782     1
   3771   3775     1
   3771   3776     1
   3771   3778     1
   3771   3779     1
   3771   3796     1
   3771   3797     1
   3772   3774     1
   3772   3777     1
   3772   3795     1
   3772   3784     1
   3772   3785     1
   3773   3774     1
   3773   3777     1
   3773   3795     1
   3773   3784     1
   3773   3785     1
   3774   3778     1
   3774   3779     1
   3774   3793     1
   3774   3794     1
   3775   3777     1
   3775   3792     1
   3775   3787     1
   3775   3788     1
   3776   3777     1
   3776   3792     1
   3776   3787     1
   3776   3788     1
   3777   3790     1
   3777   3791     1
   3778   3789     1
   3778   3781     1
   3778   3782     1
   3779   3789     1
   3779   3781     1
   3779   3782     1
   3781   3798     1
   3781   3790     1
   3781   3791     1
   3782   3798     1
   3782   3790     1
   3782   3791     1
   3784   7199     1
   3784   3796     1
   3784   3797     1
   3785   7199     1
   3785   3796     1
   3785   3797     1
   3787   7176     1
   3787   3793     1
   3787   3794     1
   3788   7176     1
   3788   3793     1
   3788   3794     1
   3792   7175     1
   3793   7172     1
   3794   7172     1
   3795   7198     1
   3796   7195     1
   3797   7195     1
   3799   3813     1
   3799   3814     1
   3799   3816     1
   3799   3817     1
   3799   3810     1
   3799   3811     1
   3800   3804     1
   3800   3805     1
   3800   3807     1
   3800   3808     1
   3800   3825     1
   3800   3826     1
   3801   3803     1
   3801   3806     1
   3801   3824     1
   3801   3813     1
   3801   3814     1
   3802   3803     1
   3802   3806     1
   3802   3824     1
   3802   3813     1
   3802   3814     1
   3803   3807     1
   3803   3808     1
   3803   3822     1
   3803   3823     1
   3804   3806     1
   3804   3821     1
   3804   3816     1
   3804   3817     1
   3805   3806     1
   3805   3821     1
   3805   3816     1
   3805   3817     1
   3806   3819     1
   3806   3820     1
   3807   3818     1
   3807   3810     1
   3807   3811     1
   3808   3818     1
   3808   3810     1
   3808   3811     1
   3810   3827     1
   3810   3819     1
   3810   3820     1
   3811   3827     1
   3811   3819     1
   3811   3820     1
   3813   7245     1
   3813   3825     1
   3813   3826     1
   3814   7245     1
   3814   3825     1
   3814   3826     1
   3816   7222     1
   3816   3822     1
   3816   3823     1
   3817   7222     1
   3817   3822     1
   3817   3823     1
   3821   7221     1
   3822   7218     1
   3823   7218     1
   3824   7244     1
   3825   7241     1
   3826   7241     1
   3828   3842     1
   3828   3843     1
   3828   3845     1
   3828   3846     1
   3828   3839     1
   3828   3840     1
   3829   3833     1
   3829   3834     1
   3829   3836     1
   3829   3837     1
   3829   3854     1
   3829   3855     1
   3830   3832     1
   3830   3835     1
   3830   3853     1
   3830   3842     1
   3830   3843     1
   3831   3832     1
   3831   3835     1
   3831   3853     1
   3831   3842     1
   3831   3843     1
   3832   3836     1
   3832   3837     1
   3832   3851     1
   3832   3852     1
   3833   3835     1
   3833   3850     1
   3833   3845     1
   3833   3846     1
   3834   3835     1
   3834   3850     1
   3834   3845     1
   3834   3846     1
   3835   3848     1
   3835   3849     1
   3836   3847     1
   3836   3839     1
   3836   3840     1
   3837   3847     1
   3837   3839     1
   3837   3840     1
   3839   3856     1
   3839   3848     1
   3839   3849     1
   3840   3856     1
   3840   3848     1
   3840   3849     1
   3842   7291     1
   3842   3854     1
   3842   3855     1
   3843   7291     1
   3843   3854     1
   3843   3855     1
   3845   7268     1
   3845   3851     1
   3845   3852     1
   3846   7268     1
   3846   3851     1
   3846   3852     1
   3850   7267     1
   3851   7264     1
   3852   7264     1
   3853   7290     1
   3854   7287     1
   3855   7287     1
   3857   3871     1
   3857   3872     1
   3857   3874     1
   3857   3875     1
   3857   3868     1
   3857   3869     1
   3858   3862     1
   3858   3863     1
   3858   3865     1
   3858   3866     1
   3858   3883     1
   3858   3884     1
   3859   3861     1
   3859   3864     1
   3859   3882     1
   3859   3871     1
   3859   3872     1
   3860   3861     1
   3860   3864     1
   3860   3882     1
   3860   3871     1
   3860   3872     1
   3861   3865     1
   3861   3866     1
   3861   3880     1
   3861   3881     1
   3862   3864     1
   3862   3879     1
   3862   3874     1
   3862   3875     1
   3863   3864     1
   3863   3879     1
   3863   3874     1
   3863   3875     1
   3864   3877     1
   3864   3878     1
   3865   3876     1
   3865   3868     1
   3865   3869     1
   3866   3876     1
   3866   3868     1
   3866   3869     1
   3868   3885     1
   3868   3877     1
   3868   3878     1
   3869   3885     1
   3869   3877     1
   3869   3878     1
   3871   7337     1
   3871   3883     1
   3871   3884     1
   3872   7337     1
   3872   3883     1
   3872   3884     1
   3874   7314     1
   3874   3880     1
   3874   3881     1
   3875   7314     1
   3875   3880     1
   3875   3881     1
   3879   7313     1
   3880   7310     1
   3881   7310     1
   3882   7336     1
   3883   7333     1
   3884   7333     1
   3886   3900     1
   3886   3901     1
   3886   3903     1
   3886   3904     1
   3886   3897     1
   3886   3898     1
   3887   3891     1
   3887   3892     1
   3887   3894     1
   3887   3895     1
   3887   3912     1
   3887   3913     1
   3888   3890     1
   3888   3893     1
   3888   3911     1
   3888   3900     1
   3888   3901     1
   3889   3890     1
   3889   3893     1
   3889   3911     1
   3889   3900     1
   3889   3901     1
   3890   3894     1
   3890   3895     1
   3890   3909     1
   3890   3910     1
   3891   3893     1
   3891   3908     1
   3891   3903     1
   3891   3904     1
   3892   3893     1
   3892   3908     1
   3892   3903     1
   3892   3904     1
   3893   3906     1
   3893   3907     1
   3894   3905     1
   3894   3897     1
   3894   3898     1
   3895   3905     1
   3895   3897     1
   3895   3898     1
   3897   3914     1
   3897   3906     1
   3897   3907     1
   3898   3914     1
   3898   3906     1
   3898   3907     1
   3900   7383     1
   3900   3912     1
   3900   3913     1
   3901   7383     1
   3901   3912     1
   3901   3913     1
   3903   7360     1
   3903   3909     1
   3903   3910     1
   3904   7360     1
   3904   3909     1
   3904   3910     1
   3908   7359     1
   3909   7356     1
   3910   7356     1
   3911   7382     1
   3912   7379     1
   3913   7379     1
   3915   3929     1
   3915   3930     1
   3915   3932     1
   3915   3933     1
   3915   3926     1
   3915   3927     1
   3916   3920     1
   3916   3921     1
   3916   3923     1
   3916   3924     1
   3916   3941     1
   3916   3942     1
   3917   3919     1
   3917   3922     1
   3917   3940     1
   3917   3929     1
   3917   3930     1
   3918   3919     1
   3918   3922     1
   3918   3940     1
   3918   3929     1
   3918   3930     1
   3919   3923     1
   3919   3924     1
   3919   3938     1
   3919   3939     1
   3920   3922     1
   3920   3937     1
   3920   3932     1
   3920   3933     1
   3921   3922     1
   3921   3937     1
   3921   3932     1
   3921   3933     1
   3922   3935     1
   3922   3936     1
   3923   3934     1
   3923   3926     1
   3923   3927     1
   3924   3934     1
   3924   3926     1
   3924   3927     1
   3926   3943     1
   3926   3935     1
   3926   3936     1
   3927   3943     1
   3927   3935     1
   3927   3936     1
   3929   7429     1
   3929   3941     1
   3929   3942     1
   3930   7429     1
   3930   3941     1
   3930   3942     1
   3932   7406     1
   3932   3938     1
   3932   3939     1
   3933   7406     1
   3933   3938     1
   3933   3939     1
   3937   7405     1
   3938   7402     1
   3939   7402     1
   3940   7428     1
   3941   7425     1
   3942   7425     1
   3944   3958     1
   3944   3959     1
   3944   3961     1
   3944   3962     1
   3944   3955     1
   3944   3956     1
   3945   3949     1
   3945   3950     1
   3945   3952     1
   3945   3953     1
   3945   3970     1
   3945   3971     1
   3946   3948     1
   3946   3951     1
   3946   3969     1
   3946   3958     1
   3946   3959     1
   3947   3948     1
   3947   3951     1
   3947   3969     1
   3947   3958     1
   3947   3959     1
   3948   3952     1
   3948   3953     1
   3948   3967     1
   3948   3968     1
   3949   3951     1
   3949   3966     1
   3949   3961     1
   3949   3962     1
   3950   3951     1
   3950   3966     1
   3950   3961     1
   3950   3962     1
   3951   3964     1
   3951   3965     1
   3952   3963     1
   3952   3955     1
   3952   3956     1
   3953   3963     1
   3953   3955     1
   3953   3956     1
   3955   3972     1
   3955   3964     1
   3955   3965     1
   3956   3972     1
   3956   3964     1
   3956   3965     1
   3958   7475     1
   3958   3970     1
   3958   3971     1
   3959   7475     1
   3959   3970     1
   3959   3971     1
   3961   7452     1
   3961   3967     1
   3961   3968     1
   3962   7452     1
   3962   3967     1
   3962   3968     1
   3966   7451     1
   3967   7448     1
   3968   7448     1
   3969   7474     1
   3970   7471     1
   3971   7471     1
   3973   3987     1
   3973   3988     1
   3973   3990     1
   3973   3991     1
   3973   3984     1
   3973   3985     1
   3974   3978     1
   3974   3979     1
   3974   3981     1
   3974   3982     1
   3974   3999     1
   3974   4000     1
   3975   3977     1
   3975   3980     1
   3975   3998     1
   3975   3987     1
   3975   3988     1
   3976   3977     1
   3976   3980     1
   3976   3998     1
   3976   3987     1
   3976   3988     1
   3977   3981     1
   3977   3982     1
   3977   3996     1
   3977   3997     1
   3978   3980     1
   3978   3995     1
   3978   3990     1
   3978   3991     1
   3979   3980     1
   3979   3995     1
   3979   3990     1
   3979   3991     1
   3980   3993     1
   3980   3994     1
   3981   3992     1
   3981   3984     1
   3981   3985     1
   3982   3992     1
   3982   3984     1
   3982   3985     1
   3984   4001     1
   3984   3993     1
   3984   3994     1
   3985   4001     1
   3985   3993     1
   3985   3994     1
   3987   7521     1
   3987   3999     1
   3987   4000     1
   3988   7521     1
   3988   3999     1
   3988   4000     1
   3990   7498     1
   3990   3996     1
   3990   3997     1
   3991   7498     1
   3991   3996     1
   3991   3997     1
   3995   7497     1
   3996   7494     1
   3997   7494     1
   3998   7520     1
   3999   7517     1
   4000   7517     1
   4002   4016     1
   4002   4017     1
   4002   4019     1
   4002   4020     1
   4002   4013     1
   4002   4014     1
   4003   4007     1
   4003   4008     1
   4003   4010     1
   4003   4011     1
   4003   4028     1
   4003   4029     1
   4004   4006     1
   4004   4009     1
   4004   4027     1
   4004   4016     1
   4004   4017     1
   4005   4006     1
   4005   4009     1
   4005   4027     1
   4005   4016     1
   4005   4017     1
   4006   4010     1
   4006   4011     1
   4006   4025     1
   4006   4026     1
   4007   4009     1
   4007   4024     1
   4007   4019     1
   4007   4020     1
   4008   4009     1
   4008   4024     1
   4008   4019     1
   4008   4020     1
   4009   4022     1
   4009   4023     1
   4010   4021     1
   4010   4013     1
   4010   4014     1
   4011   4021     1
   4011   4013     1
   4011   4014     1
   4013   4030     1
   4013   4022     1
   4013   4023     1
   4014   4030     1
   4014   4022     1
   4014   4023     1
   4016   7567     1
   4016   4028     1
   4016   4029     1
   4017   7567     1
   4017   4028     1
   4017   4029     1
   4019   7544     1
   4019   4025     1
   4019   4026     1
   4020   7544     1
   4020   4025     1
   4020   4026     1
   4024   7543     1
   4025   7540     1
   4026   7540     1
   4027   7566     1
   4028   7563     1
   4029   7563     1
   4031   4045     1
   4031   4046     1
   4031   4048     1
   4031   4049     1
   4031   4042     1
   4031   4043     1
   4032   4036     1
   4032   4037     1
   4032   4039     1
   4032   4040     1
   4032   4057     1
   4032   4058     1
   4033   4035     1
   4033   4038     1
   4033   4056     1
   4033   4045     1
   4033   4046     1
   4034   4035     1
   4034   4038     1
   4034   4056     1
   4034   4045     1
   4034   4046     1
   4035   4039     1
   4035   4040     1
   4035   4054     1
   4035   4055     1
   4036   4038     1
   4036   4053     1
   4036   4048     1
   4036   4049     1
   4037   4038     1
   4037   4053     1
   4037   4048     1
   4037   4049     1
   4038   4051     1
   4038   4052     1
   4039   4050     1
   4039   4042     1
   4039   4043     1
   4040   4050     1
   4040   4042     1
   4040   4043     1
   4042   4059     1
   4042   4051     1
   4042   4052     1
   4043   4059     1
   4043   4051     1
   4043   4052     1
   4045   7613     1
   4045   4057     1
   4045   4058     1
   4046   7613     1
   4046   4057     1
   4046   4058     1
   4048   7590     1
   4048   4054     1
   4048   4055     1
   4049   7590     1
   4049   4054     1
   4049   4055     1
   4053   7589     1
   4054   7586     1
   4055   7586     1
   4056   7612     1
   4057   7609     1
   4058   7609     1
   4060   4074     1
   4060   4075     1
   4060   4077     1
   4060   4078     1
   4060   4071     1
   4060   4072     1
   4061   4065     1
   4061   4066     1
   4061   4068     1
   4061   4069     1
   4061   4086     1
   4061   4087     1
   4062   4064     1
   4062   4067     1
   4062   4085     1
   4062   4074     1
   4062   4075     1
   4063   4064     1
   4063   4067     1
   4063   4085     1
   4063   4074     1
   4063   4075     1
   4064   4068     1
   4064   4069     1
   4064   4083     1
   4064   4084     1
   4065   4067     1
   4065   4082     1
   4065   4077     1
   4065   4078     1
   4066   4067     1
   4066   4082     1
   4066   4077     1
   4066   4078     1
   4067   4080     1
   4067   4081     1
   4068   4079     1
   4068   4071     1
   4068   4072     1
   4069   4079     1
   4069   4071     1
   4069   4072     1
   4071   4088     1
   4071   4080     1
   4071   4081     1
   4072   4088     1
   4072   4080     1
   4072   4081     1
   4074   7659     1
   4074   4086     1
   4074   4087     1
   4075   7659     1
   4075   4086     1
   4075   4087     1
   4077   7636     1
   4077   4083     1
   4077   4084     1
   4078   7636     1
   4078   4083     1
   4078   4084     1
   4082   7635     1
   4083   7632     1
   4084   7632     1
   4085   7658     1
   4086   7655     1
   4087   7655     1
   4089   4103     1
   4089   4104     1
   4089   4106     1
   4089   4107     1
   4089   4100     1
   4089   4101     1
   4090   4094     1
   4090   4095     1
   4090   4097     1
   4090   4098     1
   4090   4115     1
   4090   4116     1
   4091   4093     1
   4091   4096     1
   4091   4114     1
   4091   4103     1
   4091   4104     1
   4092   4093     1
   4092   4096     1
   4092   4114     1
   4092   4103     1
   4092   4104     1
   4093   4097     1
   4093   4098     1
   4093   4112     1
   4093   4113     1
   4094   4096     1
   4094   4111     1
   4094   4106     1
   4094   4107     1
   4095   4096     1
   4095   4111     1
   4095   4106     1
   4095   4107     1
   4096   4109     1
   4096   4110     1
   4097   4108     1
   4097   4100     1
   4097   4101     1
   4098   4108     1
   4098   4100     1
   4098   4101     1
   4100   4117     1
   4100   4109     1
   4100   4110     1
   4101   4117     1
   4101   4109     1
   4101   4110     1
   4103   7705     1
   4103   4115     1
   4103   4116     1
   4104   7705     1
   4104   4115     1
   4104   4116     1
   4106   7682     1
   4106   4112     1
   4106   4113     1
   4107   7682     1
   4107   4112     1
   4107   4113     1
   4111   7681     1
   4112   7678     1
   4113   7678     1
   4114   7704     1
   4115   7701     1
   4116   7701     1
   4118   4132     1
   4118   4133     1
   4118   4135     1
   4118   4136     1
   4118   4129     1
   4118   4130     1
   4119   4123     1
   4119   4124     1
   4119   4126     1
   4119   4127     1
   4119   4144     1
   4119   4145     1
   4120   4122     1
   4120   4125     1
   4120   4143     1
   4120   4132     1
   4120   4133     1
   4121   4122     1
   4121   4125     1
   4121   4143     1
   4121   4132     1
   4121   4133     1
   4122   4126     1
   4122   4127     1
   4122   4141     1
   4122   4142     1
   4123   4125     1
   4123   4140     1
   4123   4135     1
   4123   4136     1
   4124   4125     1
   4124   4140     1
   4124   4135     1
   4124   4136     1
   4125   4138     1
   4125   4139     1
   4126   4137     1
   4126   4129     1
   4126   4130     1
   4127   4137     1
   4127   4129     1
   4127   4130     1
   4129   4146     1
   4129   4138     1
   4129   4139     1
   4130   4146     1
   4130   4138     1
   4130   4139     1
   4132   7751     1
   4132   4144     1
   4132   4145     1
   4133   7751     1
   4133   4144     1
   4133   4145     1
   4135   7728     1
   4135   4141     1
   4135   4142     1
   4136   7728     1
   4136   4141     1
   4136   4142     1
   4140   7727     1
   4141   7724     1
   4142   7724     1
   4143   7750     1
   4144   7747     1
   4145   7747     1
   4147   4161     1
   4147   4162     1
   4147   4164     1
   4147   4165     1
   4147   4158     1
   4147   4159     1
   4148   4152     1
   4148   4153     1
   4148   4155     1
   4148   4156     1
   4148   4173     1
   4148   4174     1
   4149   4151     1
   4149   4154     1
   4149   4172     1
   4149   4161     1
   4149   4162     1
   4150   4151     1
   4150   4154     1
   4150   4172     1
   4150   4161     1
   4150   4162     1
   4151   4155     1
   4151   4156     1
   4151   4170     1
   4151   4171     1
   4152   4154     1
   4152   4169     1
   4152   4164     1
   4152   4165     1
   4153   4154     1
   4153   4169     1
   4153   4164     1
   4153   4165     1
   4154   4167     1
   4154   4168     1
   4155   4166     1
   4155   4158     1
   4155   4159     1
   4156   4166     1
   4156   4158     1
   4156   4159     1
   4158   4175     1
   4158   4167     1
   4158   4168     1
   4159   4175     1
   4159   4167     1
   4159   4168     1
   4161   7797     1
   4161   4173     1
   4161   4174     1
   4162   7797     1
   4162   4173     1
   4162   4174     1
   4164   7774     1
   4164   4170     1
   4164   4171     1
   4165   7774     1
   4165   4170     1
   4165   4171     1
   4169   7773     1
   4170   7770     1
   4171   7770     1
   4172   7796     1
   4173   7793     1
   4174   7793     1
   4176   4190     1
   4176   4191     1
   4176   4193     1
   4176   4194     1
   4176   4187     1
   4176   4188     1
   4177   4181     1
   4177   4182     1
   4177   4184     1
   4177   4185     1
   4177   4202     1
   4177   4203     1
   4178   4180     1
   4178   4183     1
   4178   4201     1
   4178   4190     1
   4178   4191     1
   4179   4180     1
   4179   4183     1
   4179   4201     1
   4179   4190     1
   4179   4191     1
   4180   4184     1
   4180   4185     1
   4180   4199     1
   4180   4200     1
   4181   4183     1
   4181   4198     1
   4181   4193     1
   4181   4194     1
   4182   4183     1
   4182   4198     1
   4182   4193     1
   4182   4194     1
   4183   4196     1
   4183   4197     1
   4184   4195     1
   4184   4187     1
   4184   4188     1
   4185   4195     1
   4185   4187     1
   4185   4188     1
   4187   4204     1
   4187   4196     1
   4187   4197     1
   4188   4204     1
   4188   4196     1
   4188   4197     1
   4190   7843     1
   4190   4202     1
   4190   4203     1
   4191   7843     1
   4191   4202     1
   4191   4203     1
   4193   7820     1
   4193   4199     1
   4193   4200     1
   4194   7820     1
   4194   4199     1
   4194   4200     1
   4198   7819     1
   4199   7816     1
   4200   7816     1
   4201   7842     1
   4202   7839     1
   4203   7839     1
   4205   4219     1
   4205   4220     1
   4205   4222     1
   4205   4223     1
   4205   4216     1
   4205   4217     1
   4206   4210     1
   4206   4211     1
   4206   4213     1
   4206   4214     1
   4206   4231     1
   4206   4232     1
   4207   4209     1
   4207   4212     1
   4207   4230     1
   4207   4219     1
   4207   4220     1
   4208   4209     1
   4208   4212     1
   4208   4230     1
   4208   4219     1
   4208   4220     1
   4209   4213     1
   4209   4214     1
   4209   4228     1
   4209   4229     1
   4210   4212     1
   4210   4227     1
   4210   4222     1
   4210   4223     1
   4211   4212     1
   4211   4227     1
   4211   4222     1
   4211   4223     1
   4212   4225     1
   4212   4226     1
   4213   4224     1
   4213   4216     1
   4213   4217     1
   4214   4224     1
   4214   4216     1
   4214   4217     1
   4216   4233     1
   4216   4225     1
   4216   4226     1
   4217   4233     1
   4217   4225     1
   4217   4226     1
   4219   7889     1
   4219   4231     1
   4219   4232     1
   4220   7889     1
   4220   4231     1
   4220   4232     1
   4222   7866     1
   4222   4228     1
   4222   4229     1
   4223   7866     1
   4223   4228     1
   4223   4229     1
   4227   7865     1
   4228   7862     1
   4229   7862     1
   4230   7888     1
   4231   7885     1
   4232   7885     1
   4234   4248     1
   4234   4249     1
   4234   4251     1
   4234   4252     1
   4234   4245     1
   4234   4246     1
   4235   4239     1
   4235   4240     1
   4235   4242     1
   4235   4243     1
   4235   4260     1
   4235   4261     1
   4236   4238     1
   4236   4241     1
   4236   4259     1
   4236   4248     1
   4236   4249     1
   4237   4238     1
   4237   4241     1
   4237   4259     1
   4237   4248     1
   4237   4249     1
   4238   4242     1
   4238   4243     1
   4238   4257     1
   4238   4258     1
   4239   4241     1
   4239   4256     1
   4239   4251     1
   4239   4252     1
   4240   4241     1
   4240   4256     1
   4240   4251     1
   4240   4252     1
   4241   4254     1
   4241   4255     1
   4242   4253     1
   4242   4245     1
   4242   4246     1
   4243   4253     1
   4243   4245     1
   4243   4246     1
   4245   4262     1
   4245   4254     1
   4245   4255     1
   4246   4262     1
   4246   4254     1
   4246   4255     1
   4248   7935     1
   4248   4260     1
   4248   4261     1
   4249   7935     1
   4249   4260     1
   4249   4261     1
   4251   7912     1
   4251   4257     1
   4251   4258     1
   4252   7912     1
   4252   4257     1
   4252   4258     1
   4256   7911     1
   4257   7908     1
   4258   7908     1
   4259   7934     1
   4260   7931     1
   4261   7931     1
   4263   4277     1
   4263   4278     1
   4263   4280     1
   4263   4281     1
   4263   4274     1
   4263   4275     1
   4264   4268     1
   4264   4269     1
   4264   4271     1
   4264   4272     1
   4264   4289     1
   4264   4290     1
   4265   4267     1
   4265   4270     1
   4265   4288     1
   4265   4277     1
   4265   4278     1
   4266   4267     1
   4266   4270     1
   4266   4288     1
   4266   4277     1
   4266   4278     1
   4267   4271     1
   4267   4272     1
   4267   4286     1
   4267   4287     1
   4268   4270     1
   4268   4285     1
   4268   4280     1
   4268   4281     1
   4269   4270     1
   4269   4285     1
   4269   4280     1
   4269   4281     1
   4270   4283     1
   4270   4284     1
   4271   4282     1
   4271   4274     1
   4271   4275     1
   4272   4282     1
   4272   4274     1
   4272   4275     1
   4274   4291     1
   4274   4283     1
   4274   4284     1
   4275   4291     1
   4275   4283     1
   4275   4284     1
   4277   7981     1
   4277   4289     1
   4277   4290     1
   4278   7981     1
   4278   4289     1
   4278   4290     1
   4280   7958     1
   4280   4286     1
   4280   4287     1
   4281   7958     1
   4281   4286     1
   4281   4287     1
   4285   7957     1
   4286   7954     1
   4287   7954     1
   4288   7980     1
   4289   7977     1
   4290   7977     1
   4292   4306     1
   4292   4307     1
   4292   4309     1
   4292   4310     1
   4292   4303     1
   4292   4304     1
   4293   4297     1
   4293   4298     1
   4293   4300     1
   4293   4301     1
   4293   4318     1
   4293   4319     1
   4294   4296     1
   4294   4299     1
   4294   4317     1
   4294   4306     1
   4294   4307     1
   4295   4296     1
   4295   4299     1
   4295   4317     1
   4295   4306     1
   4295   4307     1
   4296   4300     1
   4296   4301     1
   4296   4315     1
   4296   4316     1
   4297   4299     1
   4297   4314     1
   4297   4309     1
   4297   4310     1
   4298   4299     1
   4298   4314     1
   4298   4309     1
   4298   4310     1
   4299   4312     1
   4299   4313     1
   4300   4311     1
   4300   4303     1
   4300   4304     1
   4301   4311     1
   4301   4303     1
   4301   4304     1
   4303   4320     1
   4303   4312     1
   4303   4313     1
   4304   4320     1
   4304   4312     1
   4304   4313     1
   4306   8027     1
   4306   4318     1
   4306   4319     1
   4307   8027     1
   4307   4318     1
   4307   4319     1
   4309   8004     1
   4309   4315     1
   4309   4316     1
   4310   8004     1
   4310   4315     1
   4310   4316     1
   4314   8003     1
   4315   8000     1
   4316   8000     1
   4317   8026     1
   4318   8023     1
   4319   8023     1
   4321   4335     1
   4321   4336     1
   4321   4338     1
   4321   4339     1
   4321   4332     1
   4321   4333     1
   4322   4326     1
   4322   4327     1
   4322   4329     1
   4322   4330     1
   4322   4347     1
   4322   4348     1
   4323   4325     1
   4323   4328     1
   4323   4346     1
   4323   4335     1
   4323   4336     1
   4324   4325     1
   4324   4328     1
   4324   4346     1
   4324   4335     1
   4324   4336     1
   4325   4329     1
   4325   4330     1
   4325   4344     1
   4325   4345     1
   4326   4328     1
   4326   4343     1
   4326   4338     1
   4326   4339     1
   4327   4328     1
   4327   4343     1
   4327   4338     1
   4327   4339     1
   4328   4341     1
   4328   4342     1
   4329   4340     1
   4329   4332     1
   4329   4333     1
   4330   4340     1
   4330   4332     1
   4330   4333     1
   4332   4349     1
   4332   4341     1
   4332   4342     1
   4333   4349     1
   4333   4341     1
   4333   4342     1
   4335   8073     1
   4335   4347     1
   4335   4348     1
   4336   8073     1
   4336   4347     1
   4336   4348     1
   4338   8050     1
   4338   4344     1
   4338   4345     1
   4339   8050     1
   4339   4344     1
   4339   4345     1
   4343   8049     1
   4344   8046     1
   4345   8046     1
   4346   8072     1
   4347   8069     1
   4348   8069     1
   4350   4364     1
   4350   4365     1
   4350   4367     1
   4350   4368     1
   4350   4361     1
   4350   4362     1
   4351   4355     1
   4351   4356     1
   4351   4358     1
   4351   4359     1
   4351   4376     1
   4351   4377     1
   4352   4354     1
   4352   4357     1
   4352   4375     1
   4352   4364     1
   4352   4365     1
   4353   4354     1
   4353   4357     1
   4353   4375     1
   4353   4364     1
   4353   4365     1
   4354   4358     1
   4354   4359     1
   4354   4373     1
   4354   4374     1
   4355   4357     1
   4355   4372     1
   4355   4367     1
   4355   4368     1
   4356   4357     1
   4356   4372     1
   4356   4367     1
   4356   4368     1
   4357   4370     1
   4357   4371     1
   4358   4369     1
   4358   4361     1
   4358   4362     1
   4359   4369     1
   4359   4361     1
   4359   4362     1
   4361   4378     1
   4361   4370     1
   4361   4371     1
   4362   4378     1
   4362   4370     1
   4362   4371     1
   4364   8119     1
   4364   4376     1
   4364   4377     1
   4365   8119     1
   4365   4376     1
   4365   4377     1
   4367   8096     1
   4367   4373     1
   4367   4374     1
   4368   8096     1
   4368   4373     1
   4368   4374     1
   4372   8095     1
   4373   8092     1
   4374   8092     1
   4375   8118     1
   4376   8115     1
   4377   8115     1
   4379   4393     1
   4379   4394     1
   4379   4396     1
   4379   4397     1
   4379   4390     1
   4379   4391     1
   4380   4384     1
   4380   4385     1
   4380   4387     1
   4380   4388     1
   4380   4405     1
   4380   4406     1
   4381   4383     1
   4381   4386     1
   4381   4404     1
   4381   4393     1
   4381   4394     1
   4382   4383     1
   4382   4386     1
   4382   4404     1
   4382   4393     1
   4382   4394     1
   4383   4387     1
   4383   4388     1
   4383   4402     1
   4383   4403     1
   4384   4386     1
   4384   4401     1
   4384   4396     1
   4384   4397     1
   4385   4386     1
   4385   4401     1
   4385   4396     1
   4385   4397     1
   4386   4399     1
   4386   4400     1
   4387   4398     1
   4387   4390     1
   4387   4391     1
   4388   4398     1
   4388   4390     1
   4388   4391     1
   4390   4407     1
   4390   4399     1
   4390   4400     1
   4391   4407     1
   4391   4399     1
   4391   4400     1
   4393   8165     1
   4393   4405     1
   4393   4406     1
   4394   8165     1
   4394   4405     1
   4394   4406     1
   4396   8142     1
   4396   4402     1
   4396   4403     1
   4397   8142     1
   4397   4402     1
   4397   4403     1
   4401   8141     1
   4402   8138     1
   4403   8138     1
   4404   8164     1
   4405   8161     1
   4406   8161     1
   4408   4422     1
   4408   4423     1
   4408   4425     1
   4408   4426     1
   4408   4419     1
   4408   4420     1
   4409   4413     1
   4409   4414     1
   4409   4416     1
   4409   4417     1
   4409   4434     1
   4409   4435     1
   4410   4412     1
   4410   4415     1
   4410   4433     1
   4410   4422     1
   4410   4423     1
   4411   4412     1
   4411   4415     1
   4411   4433     1
   4411   4422     1
   4411   4423     1
   4412   4416     1
   4412   4417     1
   4412   4431     1
   4412   4432     1
   4413   4415     1
   4413   4430     1
   4413   4425     1
   4413   4426     1
   4414   4415     1
   4414   4430     1
   4414   4425     1
   4414   4426     1
   4415   4428     1
   4415   4429     1
   4416   4427     1
   4416   4419     1
   4416   4420     1
   4417   4427     1
   4417   4419     1
   4417   4420     1
   4419   4436     1
   4419   4428     1
   4419   4429     1
   4420   4436     1
   4420   4428     1
   4420   4429     1
   4422   8211     1
   4422   4434     1
   4422   4435     1
   4423   8211     1
   4423   4434     1
   4423   4435     1
   4425   8188     1
   4425   4431     1
   4425   4432     1
   4426   8188     1
   4426   4431     1
   4426   4432     1
   4430   8187     1
   4431   8184     1
   4432   8184     1
   4433   8210     1
   4434   8207     1
   4435   8207     1
   4437   4451     1
   4437   4452     1
   4437   4454     1
   4437   4455     1
   4437   4448     1
   4437   4449     1
   4438   4442     1
   4438   4443     1
   4438   4445     1
   4438   4446     1
   4438   4463     1
   4438   4464     1
   4439   4441     1
   4439   4444     1
   4439   4462     1
   4439   4451     1
   4439   4452     1
   4440   4441     1
   4440   4444     1
   4440   4462     1
   4440   4451     1
   4440   4452     1
   4441   4445     1
   4441   4446     1
   4441   4460     1
   4441   4461     1
   4442   4444     1
   4442   4459     1
   4442   4454     1
   4442   4455     1
   4443   4444     1
   4443   4459     1
   4443   4454     1
   4443   4455     1
   4444   4457     1
   4444   4458     1
   4445   4456     1
   4445   4448     1
   4445   4449     1
   4446   4456     1
   4446   4448     1
   4446   4449     1
   4448   4465     1
   4448   4457     1
   4448   4458     1
   4449   4465     1
   4449   4457     1
   4449   4458     1
   4451   8257     1
   4451   4463     1
   4451   4464     1
   4452   8257     1
   4452   4463     1
   4452   4464     1
   4454   8234     1
   4454   4460     1
   4454   4461     1
   4455   8234     1
   4455   4460     1
   4455   4461     1
   4459   8233     1
   4460   8230     1
   4461   8230     1
   4462   8256     1
   4463   8253     1
   4464   8253     1
   4466   4480     1
   4466   4481     1
   4466   4483     1
   4466   4484     1
   4466   4477     1
   4466   4478     1
   4467   4471     1
   4467   4472     1
   4467   4474     1
   4467   4475     1
   4467   4492     1
   4467   4493     1
   4468   4470     1
   4468   4473     1
   4468   4491     1
   4468   4480     1
   4468   4481     1
   4469   4470     1
   4469   4473     1
   4469   4491     1
   4469   4480     1
   4469   4481     1
   4470   4474     1
   4470   4475     1
   4470   4489     1
   4470   4490     1
   4471   4473     1
   4471   4488     1
   4471   4483     1
   4471   4484     1
   4472   4473     1
   4472   4488     1
   4472   4483     1
   4472   4484     1
   4473   4486     1
   4473   4487     1
   4474   4485     1
   4474   4477     1
   4474   4478     1
   4475   4485     1
   4475   4477     1
   4475   4478     1
   4477   4494     1
   4477   4486     1
   4477   4487     1
   4478   4494     1
   4478   4486     1
   4478   4487     1
   4480   8303     1
   4480   4492     1
   4480   4493     1
   4481   8303     1
   4481   4492     1
   4481   4493     1
   4483   8280     1
   4483   4489     1
   4483   4490     1
   4484   8280     1
   4484   4489     1
   4484   4490     1
   4488   8279     1
   4489   8276     1
   4490   8276     1
   4491   8302     1
   4492   8299     1
   4493   8299     1
   4495   4509     1
   4495   4510     1
   4495   4512     1
   4495   4513     1
   4495   4506     1
   4495   4507     1
   4496   4500     1
   4496   4501     1
   4496   4503     1
   4496   4504     1
   4496   4521     1
   4496   4522     1
   4497   4499     1
   4497   4502     1
   4497   4520     1
   4497   4509     1
   4497   4510     1
   4498   4499     1
   4498   4502     1
   4498   4520     1
   4498   4509     1
   4498   4510     1
   4499   4503     1
   4499   4504     1
   4499   4518     1
   4499   4519     1
   4500   4502     1
   4500   4517     1
   4500   4512     1
   4500   4513     1
   4501   4502     1
   4501   4517     1
   4501   4512     1
   4501   4513     1
   4502   4515     1
   4502   4516     1
   4503   4514     1
   4503   4506     1
   4503   4507     1
   4504   4514     1
   4504   4506     1
   4504   4507     1
   4506   4523     1
   4506   4515     1
   4506   4516     1
   4507   4523     1
   4507   4515     1
   4507   4516     1
   4509   8349     1
   4509   4521     1
   4509   4522     1
   4510   8349     1
   4510   4521     1
   4510   4522     1
   4512   8326     1
   4512   4518     1
   4512   4519     1
   4513   8326     1
   4513   4518     1
   4513   4519     1
   4517   8325     1
   4518   8322     1
   4519   8322     1
   4520   8348     1
   4521   8345     1
   4522   8345     1
   4524   4538     1
   4524   4539     1
   4524   4541     1
   4524   4542     1
   4524   4535     1
   4524   4536     1
   4525   4529     1
   4525   4530     1
   4525   4532     1
   4525   4533     1
   4525   4550     1
   4525   4551     1
   4526   4528     1
   4526   4531     1
   4526   4549     1
   4526   4538     1
   4526   4539     1
   4527   4528     1
   4527   4531     1
   4527   4549     1
   4527   4538     1
   4527   4539     1
   4528   4532     1
   4528   4533     1
   4528   4547     1
   4528   4548     1
   4529   4531     1
   4529   4546     1
   4529   4541     1
   4529   4542     1
   4530   4531     1
   4530   4546     1
   4530   4541     1
   4530   4542     1
   4531   4544     1
   4531   4545     1
   4532   4543     1
   4532   4535     1
   4532   4536     1
   4533   4543     1
   4533   4535     1
   4533   4536     1
   4535   4552     1
   4535   4544     1
   4535   4545     1
   4536   4552     1
   4536   4544     1
   4536   4545     1
   4538   8395     1
   4538   4550     1
   4538   4551     1
   4539   8395     1
   4539   4550     1
   4539   4551     1
   4541   8372     1
   4541   4547     1
   4541   4548     1
   4542   8372     1
   4542   4547     1
   4542   4548     1
   4546   8371     1
   4547   8368     1
   4548   8368     1
   4549   8394     1
   4550   8391     1
   4551   8391     1
   4553   4567     1
   4553   4568     1
   4553   4570     1
   4553   4571     1
   4553   4564     1
   4553   4565     1
   4554   4558     1
   4554   4559     1
   4554   4561     1
   4554   4562     1
   4554   4579     1
   4554   4580     1
   4555   4557     1
   4555   4560     1
   4555   4578     1
   4555   4567     1
   4555   4568     1
   4556   4557     1
   4556   4560     1
   4556   4578     1
   4556   4567     1
   4556   4568     1
   4557   4561     1
   4557   4562     1
   4557   4576     1
   4557   4577     1
   4558   4560     1
   4558   4575     1
   4558   4570     1
   4558   4571     1
   4559   4560     1
   4559   4575     1
   4559   4570     1
   4559   4571     1
   4560   4573     1
   4560   4574     1
   4561   4572     1
   4561   4564     1
   4561   4565     1
   4562   4572     1
   4562   4564     1
   4562   4565     1
   4564   4581     1
   4564   4573     1
   4564   4574     1
   4565   4581     1
   4565   4573     1
   4565   4574     1
   4567   8441     1
   4567   4579     1
   4567   4580     1
   4568   8441     1
   4568   4579     1
   4568   4580     1
   4570   8418     1
   4570   4576     1
   4570   4577     1
   4571   8418     1
   4571   4576     1
   4571   4577     1
   4575   8417     1
   4576   8414     1
   4577   8414     1
   4578   8440     1
   4579   8437     1
   4580   8437     1
   4582   4596     1
   4582   4597     1
   4582   4599     1
   4582   4600     1
   4582   4593     1
   4582   4594     1
   4583   4587     1
   4583   4588     1
   4583   4590     1
   4583   4591     1
   4583   4608     1
   4583   4609     1
   4584   4586     1
   4584   4589     1
   4584   4607     1
   4584   4596     1
   4584   4597     1
   4585   4586     1
   4585   4589     1
   4585   4607     1
   4585   4596     1
   4585   4597     1
   4586   4590     1
   4586   4591     1
   4586   4605     1
   4586   4606     1
   4587   4589     1
   4587   4604     1
   4587   4599     1
   4587   4600     1
   4588   4589     1
   4588   4604     1
   4588   4599     1
   4588   4600     1
   4589   4602     1
   4589   4603     1
   4590   4601     1
   4590   4593     1
   4590   4594     1
   4591   4601     1
   4591   4593     1
   4591   4594     1
   4593   4610     1
   4593   4602     1
   4593   4603     1
   4594   4610     1
   4594   4602     1
   4594   4603     1
   4596   8487     1
   4596   4608     1
   4596   4609     1
   4597   8487     1
   4597   4608     1
   4597   4609     1
   4599   8464     1
   4599   4605     1
   4599   4606     1
   4600   8464     1
   4600   4605     1
   4600   4606     1
   4604   8463     1
   4605   8460     1
   4606   8460     1
   4607   8486     1
   4608   8483     1
   4609   8483     1
   4611   4625     1
   4611   4626     1
   4611   4628     1
   4611   4629     1
   4611   4622     1
   4611   4623     1
   4612   4616     1
   4612   4617     1
   4612   4619     1
   4612   4620     1
   4612   4637     1
   4612   4638     1
   4613   4615     1
   4613   4618     1
   4613   4636     1
   4613   4625     1
   4613   4626     1
   4614   4615     1
   4614   4618     1
   4614   4636     1
   4614   4625     1
   4614   4626     1
   4615   4619     1
   4615   4620     1
   4615   4634     1
   4615   4635     1
   4616   4618     1
   4616   4633     1
   4616   4628     1
   4616   4629     1
   4617   4618     1
   4617   4633     1
   4617   4628     1
   4617   4629     1
   4618   4631     1
   4618   4632     1
   4619   4630     1
   4619   4622     1
   4619   4623     1
   4620   4630     1
   4620   4622     1
   4620   4623     1
   4622   4639     1
   4622   4631     1
   4622   4632     1
   4623   4639     1
   4623   4631     1
   4623   4632     1
   4625   8533     1
   4625   4637     1
   4625   4638     1
   4626   8533     1
   4626   4637     1
   4626   4638     1
   4628   8510     1
   4628   4634     1
   4628   4635     1
   4629   8510     1
   4629   4634     1
   4629   4635     1
   4633   8509     1
   4634   8506     1
   4635   8506     1
   4636   8532     1
   4637   8529     1
   4638   8529     1
   4640   4654     1
   4640   4655     1
   4640   4657     1
   4640   4658     1
   4640   4651     1
   4640   4652     1
   4641   4645     1
   4641   4646     1
   4641   4648     1
   4641   4649     1
   4641   4666     1
   4641   4667     1
   4642   4644     1
   4642   4647     1
   4642   4665     1
   4642   4654     1
   4642   4655     1
   4643   4644     1
   4643   4647     1
   4643   4665     1
   4643   4654     1
   4643   4655     1
   4644   4648     1
   4644   4649     1
   4644   4663     1
   4644   4664     1
   4645   4647     1
   4645   4662     1
   4645   4657     1
   4645   4658     1
   4646   4647     1
   4646   4662     1
   4646   4657     1
   4646   4658     1
   4647   4660     1
   4647   4661     1
   4648   4659     1
   4648   4651     1
   4648   4652     1
   4649   4659     1
   4649   4651     1
   4649   4652     1
   4651   4668     1
   4651   4660     1
   4651   4661     1
   4652   4668     1
   4652   4660     1
   4652   4661     1
   4654   8579     1
   4654   4666     1
   4654   4667     1
   4655   8579     1
   4655   4666     1
   4655   4667     1
   4657   8556     1
   4657   4663     1
   4657   4664     1
   4658   8556     1
   4658   4663     1
   4658   4664     1
   4662   8555     1
   4663   8552     1
   4664   8552     1
   4665   8578     1
   4666   8575     1
   4667   8575     1
   4669   4683     1
   4669   4684     1
   4669   4686     1
   4669   4687     1
   4669   4680     1
   4669   4681     1
   4670   4674     1
   4670   4675     1
   4670   4677     1
   4670   4678     1
   4670   4695     1
   4670   4696     1
   4671   4673     1
   4671   4676     1
   4671   4694     1
   4671   4683     1
   4671   4684     1
   4672   4673     1
   4672   4676     1
   4672   4694     1
   4672   4683     1
   4672   4684     1
   4673   4677     1
   4673   4678     1
   4673   4692     1
   4673   4693     1
   4674   4676     1
   4674   4691     1
   4674   4686     1
   4674   4687     1
   4675   4676     1
   4675   4691     1
   4675   4686     1
   4675   4687     1
   4676   4689     1
   4676   4690     1
   4677   4688     1
   4677   4680     1
   4677   4681     1
   4678   4688     1
   4678   4680     1
   4678   4681     1
   4680   4697     1
   4680   4689     1
   4680   4690     1
   4681   4697     1
   4681   4689     1
   4681   4690     1
   4683   8625     1
   4683   4695     1
   4683   4696     1
   4684   8625     1
   4684   4695     1
   4684   4696     1
   4686   8602     1
   4686   4692     1
   4686   4693     1
   4687   8602     1
   4687   4692     1
   4687   4693     1
   4691   8601     1
   4692   8598     1
   4693   8598     1
   4694   8624     1
   4695   8621     1
   4696   8621     1
   4698   4712     1
   4698   4713     1
   4698   4715     1
   4698   4716     1
   4698   4709     1
   4698   4710     1
   4699   4703     1
   4699   4704     1
   4699   4706     1
   4699   4707     1
   4699   4724     1
   4699   4725     1
   4700   4702     1
   4700   4705     1
   4700   4723     1
   4700   4712     1
   4700   4713     1
   4701   4702     1
   4701   4705     1
   4701   4723     1
   4701   4712     1
   4701   4713     1
   4702   4706     1
   4702   4707     1
   4702   4721     1
   4702   4722     1
   4703   4705     1
   4703   4720     1
   4703   4715     1
   4703   4716     1
   4704   4705     1
   4704   4720     1
   4704   4715     1
   4704   4716     1
   4705   4718     1
   4705   4719     1
   4706   4717     1
   4706   4709     1
   4706   4710     1
   4707   4717     1
   4707   4709     1
   4707   4710     1
   4709   4726     1
   4709   4718     1
   4709   4719     1
   4710   4726     1
   4710   4718     1
   4710   4719     1
   4712   8671     1
   4712   4724     1
   4712   4725     1
   4713   8671     1
   4713   4724     1
   4713   4725     1
   4715   8648     1
   4715   4721     1
   4715   4722     1
   4716   8648     1
   4716   4721     1
   4716   4722     1
   4720   8647     1
   4721   8644     1
   4722   8644     1
   4723   8670     1
   4724   8667     1
   4725   8667     1
   4727   4741     1
   4727   4742     1
   4727   4744     1
   4727   4745     1
   4727   4738     1
   4727   4739     1
   4728   4732     1
   4728   4733     1
   4728   4735     1
   4728   4736     1
   4728   4753     1
   4728   4754     1
   4729   4731     1
   4729   4734     1
   4729   4752     1
   4729   4741     1
   4729   4742     1
   4730   4731     1
   4730   4734     1
   4730   4752     1
   4730   4741     1
   4730   4742     1
   4731   4735     1
   4731   4736     1
   4731   4750     1
   4731   4751     1
   4732   4734     1
   4732   4749     1
   4732   4744     1
   4732   4745     1
   4733   4734     1
   4733   4749     1
   4733   4744     1
   4733   4745     1
   4734   4747     1
   4734   4748     1
   4735   4746     1
   4735   4738     1
   4735   4739     1
   4736   4746     1
   4736   4738     1
   4736   4739     1
   4738   4755     1
   4738   4747     1
   4738   4748     1
   4739   4755     1
   4739   4747     1
   4739   4748     1
   4741   8717     1
   4741   4753     1
   4741   4754     1
   4742   8717     1
   4742   4753     1
   4742   4754     1
   4744   8694     1
   4744   4750     1
   4744   4751     1
   4745   8694     1
   4745   4750     1
   4745   4751     1
   4749   8693     1
   4750   8690     1
   4751   8690     1
   4752   8716     1
   4753   8713     1
   4754   8713     1
   4756   4770     1
   4756   4771     1
   4756   4773     1
   4756   4774     1
   4756   4767     1
   4756   4768     1
   4757   4761     1
   4757   4762     1
   4757   4764     1
   4757   4765     1
   4757   4782     1
   4757   4783     1
   4758   4760     1
   4758   4763     1
   4758   4781     1
   4758   4770     1
   4758   4771     1
   4759   4760     1
   4759   4763     1
   4759   4781     1
   4759   4770     1
   4759   4771     1
   4760   4764     1
   4760   4765     1
   4760   4779     1
   4760   4780     1
   4761   4763     1
   4761   4778     1
   4761   4773     1
   4761   4774     1
   4762   4763     1
   4762   4778     1
   4762   4773     1
   4762   4774     1
   4763   4776     1
   4763   4777     1
   4764   4775     1
   4764   4767     1
   4764   4768     1
   4765   4775     1
   4765   4767     1
   4765   4768     1
   4767   4784     1
   4767   4776     1
   4767   4777     1
   4768   4784     1
   4768   4776     1
   4768   4777     1
   4770   8763     1
   4770   4782     1
   4770   4783     1
   4771   8763     1
   4771   4782     1
   4771   4783     1
   4773   8740     1
   4773   4779     1
   4773   4780     1
   4774   8740     1
   4774   4779     1
   4774   4780     1
   4778   8739     1
   4779   8736     1
   4780   8736     1
   4781   8762     1
   4782   8759     1
   4783   8759     1
   4785   4799     1
   4785   4800     1
   4785   4802     1
   4785   4803     1
   4785   4796     1
   4785   4797     1
   4786   4790     1
   4786   4791     1
   4786   4793     1
   4786   4794     1
   4786   4811     1
   4786   4812     1
   4787   4789     1
   4787   4792     1
   4787   4810     1
   4787   4799     1
   4787   4800     1
   4788   4789     1
   4788   4792     1
   4788   4810     1
   4788   4799     1
   4788   4800     1
   4789   4793     1
   4789   4794     1
   4789   4808     1
   4789   4809     1
   4790   4792     1
   4790   4807     1
   4790   4802     1
   4790   4803     1
   4791   4792     1
   4791   4807     1
   4791   4802     1
   4791   4803     1
   4792   4805     1
   4792   4806     1
   4793   4804     1
   4793   4796     1
   4793   4797     1
   4794   4804     1
   4794   4796     1
   4794   4797     1
   4796   4813     1
   4796   4805     1
   4796   4806     1
   4797   4813     1
   4797   4805     1
   4797   4806     1
   4799   8809     1
   4799   4811     1
   4799   4812     1
   4800   8809     1
   4800   4811     1
   4800   4812     1
   4802   8786     1
   4802   4808     1
   4802   4809     1
   4803   8786     1
   4803   4808     1
   4803   4809     1
   4807   8785     1
   4808   8782     1
   4809   8782     1
   4810   8808     1
   4811   8805     1
   4812   8805     1
   4814   4828     1
   4814   4829     1
   4814   4831     1
   4814   4832     1
   4814   4825     1
   4814   4826     1
   4815   4819     1
   4815   4820     1
   4815   4822     1
   4815   4823     1
   4815   4840     1
   4815   4841     1
   4816   4818     1
   4816   4821     1
   4816   4839     1
   4816   4828     1
   4816   4829     1
   4817   4818     1
   4817   4821     1
   4817   4839     1
   4817   4828     1
   4817   4829     1
   4818   4822     1
   4818   4823     1
   4818   4837     1
   4818   4838     1
   4819   4821     1
   4819   4836     1
   4819   4831     1
   4819   4832     1
   4820   4821     1
   4820   4836     1
   4820   4831     1
   4820   4832     1
   4821   4834     1
   4821   4835     1
   4822   4833     1
   4822   4825     1
   4822   4826     1
   4823   4833     1
   4823   4825     1
   4823   4826     1
   4825   4842     1
   4825   4834     1
   4825   4835     1
   4826   4842     1
   4826   4834     1
   4826   4835     1
   4828   8855     1
   4828   4840     1
   4828   4841     1
   4829   8855     1
   4829   4840     1
   4829   4841     1
   4831   8832     1
   4831   4837     1
   4831   4838     1
   4832   8832     1
   4832   4837     1
   4832   4838     1
   4836   8831     1
   4837   8828     1
   4838   8828     1
   4839   8854     1
   4840   8851     1
   4841   8851     1
   4843   4857     1
   4843   4858     1
   4843   4860     1
   4843   4861     1
   4843   4854     1
   4843   4855     1
   4844   4848     1
   4844   4849     1
   4844   4851     1
   4844   4852     1
   4844   4869     1
   4844   4870     1
   4845   4847     1
   4845   4850     1
   4845   4868     1
   4845   4857     1
   4845   4858     1
   4846   4847     1
   4846   4850     1
   4846   4868     1
   4846   4857     1
   4846   4858     1
   4847   4851     1
   4847   4852     1
   4847   4866     1
   4847   4867     1
   4848   4850     1
   4848   4865     1
   4848   4860     1
   4848   4861     1
   4849   4850     1
   4849   4865     1
   4849   4860     1
   4849   4861     1
   4850   4863     1
   4850   4864     1
   4851   4862     1
   4851   4854     1
   4851   4855     1
   4852   4862     1
   4852   4854     1
   4852   4855     1
   4854   4871     1
   4854   4863     1
   4854   4864     1
   4855   4871     1
   4855   4863     1
   4855   4864     1
   4857   8901     1
   4857   4869     1
   4857   4870     1
   4858   8901     1
   4858   4869     1
   4858   4870     1
   4860   8878     1
   4860   4866     1
   4860   4867     1
   4861   8878     1
   4861   4866     1
   4861   4867     1
   4865   8877     1
   4866   8874     1
   4867   8874     1
   4868   8900     1
   4869   8897     1
   4870   8897     1
   4872   4886     1
   4872   4887     1
   4872   4889     1
   4872   4890     1
   4872   4883     1
   4872   4884     1
   4873   4877     1
   4873   4878     1
   4873   4880     1
   4873   4881     1
   4873   4898     1
   4873   4899     1
   4874   4876     1
   4874   4879     1
   4874   4897     1
   4874   4886     1
   4874   4887     1
   4875   4876     1
   4875   4879     1
   4875   4897     1
   4875   4886     1
   4875   4887     1
   4876   4880     1
   4876   4881     1
   4876   4895     1
   4876   4896     1
   4877   4879     1
   4877   4894     1
   4877   4889     1
   4877   4890     1
   4878   4879     1
   4878   4894     1
   4878   4889     1
   4878   4890     1
   4879   4892     1
   4879   4893     1
   4880   4891     1
   4880   4883     1
   4880   4884     1
   4881   4891     1
   4881   4883     1
   4881   4884     1
   4883   4900     1
   4883   4892     1
   4883   4893     1
   4884   4900     1
   4884   4892     1
   4884   4893     1
   4886   8947     1
   4886   4898     1
   4886   4899     1
   4887   8947     1
   4887   4898     1
   4887   4899     1
   4889   8924     1
   4889   4895     1
   4889   4896     1
   4890   8924     1
   4890   4895     1
   4890   4896     1
   4894   8923     1
   4895   8920     1
   4896   8920     1
   4897   8946     1
   4898   8943     1
   4899   8943     1
   4901   4915     1
   4901   4916     1
   4901   4918     1
   4901   4919     1
   4901   4912     1
   4901   4913     1
   4902   4906     1
   4902   4907     1
   4902   4909     1
   4902   4910     1
   4902   4927     1
   4902   4928     1
   4903   4905     1
   4903   4908     1
   4903   4926     1
   4903   4915     1
   4903   4916     1
   4904   4905     1
   4904   4908     1
   4904   4926     1
   4904   4915     1
   4904   4916     1
   4905   4909     1
   4905   4910     1
   4905   4924     1
   4905   4925     1
   4906   4908     1
   4906   4923     1
   4906   4918     1
   4906   4919     1
   4907   4908     1
   4907   4923     1
   4907   4918     1
   4907   4919     1
   4908   4921     1
   4908   4922     1
   4909   4920     1
   4909   4912     1
   4909   4913     1
   4910   4920     1
   4910   4912     1
   4910   4913     1
   4912   4929     1
   4912   4921     1
   4912   4922     1
   4913   4929     1
   4913   4921     1
   4913   4922     1
   4915   8993     1
   4915   4927     1
   4915   4928     1
   4916   8993     1
   4916   4927     1
   4916   4928     1
   4918   8970     1
   4918   4924     1
   4918   4925     1
   4919   8970     1
   4919   4924     1
   4919   4925     1
   4923   8969     1
   4924   8966     1
   4925   8966     1
   4926   8992     1
   4927   8989     1
   4928   8989     1
   4930   4944     1
   4930   4945     1
   4930   4947     1
   4930   4948     1
   4930   4941     1
   4930   4942     1
   4931   4935     1
   4931   4936     1
   4931   4938     1
   4931   4939     1
   4931   4956     1
   4931   4957     1
   4932   4934     1
   4932   4937     1
   4932   4955     1
   4932   4944     1
   4932   4945     1
   4933   4934     1
   4933   4937     1
   4933   4955     1
   4933   4944     1
   4933   4945     1
   4934   4938     1
   4934   4939     1
   4934   4953     1
   4934   4954     1
   4935   4937     1
   4935   4952     1
   4935   4947     1
   4935   4948     1
   4936   4937     1
   4936   4952     1
   4936   4947     1
   4936   4948     1
   4937   4950     1
   4937   4951     1
   4938   4949     1
   4938   4941     1
   4938   4942     1
   4939   4949     1
   4939   4941     1
   4939   4942     1
   4941   4958     1
   4941   4950     1
   4941   4951     1
   4942   4958     1
   4942   4950     1
   4942   4951     1
   4944   9039     1
   4944   4956     1
   4944   4957     1
   4945   9039     1
   4945   4956     1
   4945   4957     1
   4947   9016     1
   4947   4953     1
   4947   4954     1
   4948   9016     1
   4948   4953     1
   4948   4954     1
   4952   9015     1
   4953   9012     1
   4954   9012     1
   4955   9038     1
   4956   9035     1
   4957   9035     1
   4959   4973     1
   4959   4974     1
   4959   4976     1
   4959   4977     1
   4959   4970     1
   4959   4971     1
   4960   4964     1
   4960   4965     1
   4960   4967     1
   4960   4968     1
   4960   4985     1
   4960   4986     1
   4961   4963     1
   4961   4966     1
   4961   4984     1
   4961   4973     1
   4961   4974     1
   4962   4963     1
   4962   4966     1
   4962   4984     1
   4962   4973     1
   4962   4974     1
   4963   4967     1
   4963   4968     1
   4963   4982     1
   4963   4983     1
   4964   4966     1
   4964   4981     1
   4964   4976     1
   4964   4977     1
   4965   4966     1
   4965   4981     1
   4965   4976     1
   4965   4977     1
   4966   4979     1
   4966   4980     1
   4967   4978     1
   4967   4970     1
   4967   4971     1
   4968   4978     1
   4968   4970     1
   4968   4971     1
   4970   4987     1
   4970   4979     1
   4970   4980     1
   4971   4987     1
   4971   4979     1
   4971   4980     1
   4973   9085     1
   4973   4985     1
   4973   4986     1
   4974   9085     1
   4974   4985     1
   4974   4986     1
   4976   9062     1
   4976   4982     1
   4976   4983     1
   4977   9062     1
   4977   4982     1
   4977   4983     1
   4981   9061     1
   4982   9058     1
   4983   9058     1
   4984   9084     1
   4985   9081     1
   4986   9081     1
   4988   5002     1
   4988   5003     1
   4988   5005     1
   4988   5006     1
   4988   4999     1
   4988   5000     1
   4989   4993     1
   4989   4994     1
   4989   4996     1
   4989   4997     1
   4989   5014     1
   4989   5015     1
   4990   4992     1
   4990   4995     1
   4990   5013     1
   4990   5002     1
   4990   5003     1
   4991   4992     1
   4991   4995     1
   4991   5013     1
   4991   5002     1
   4991   5003     1
   4992   4996     1
   4992   4997     1
   4992   5011     1
   4992   5012     1
   4993   4995     1
   4993   5010     1
   4993   5005     1
   4993   5006     1
   4994   4995     1
   4994   5010     1
   4994   5005     1
   4994   5006     1
   4995   5008     1
   4995   5009     1
   4996   5007     1
   4996   4999     1
   4996   5000     1
   4997   5007     1
   4997   4999     1
   4997   5000     1
   4999   5016     1
   4999   5008     1
   4999   5009     1
   5000   5016     1
   5000   5008     1
   5000   5009     1
   5002   9131     1
   5002   5014     1
   5002   5015     1
   5003   9131     1
   5003   5014     1
   5003   5015     1
   5005   9108     1
   5005   5011     1
   5005   5012     1
   5006   9108     1
   5006   5011     1
   5006   5012     1
   5010   9107     1
   5011   9104     1
   5012   9104     1
   5013   9130     1
   5014   9127     1
   5015   9127     1
   5017   5031     1
   5017   5032     1
   5017   5034     1
   5017   5035     1
   5017   5028     1
   5017   5029     1
   5018   5022     1
   5018   5023     1
   5018   5025     1
   5018   5026     1
   5018   5043     1
   5018   5044     1
   5019   5021     1
   5019   5024     1
   5019   5042     1
   5019   5031     1
   5019   5032     1
   5020   5021     1
   5020   5024     1
   5020   5042     1
   5020   5031     1
   5020   5032     1
   5021   5025     1
   5021   5026     1
   5021   5040     1
   5021   5041     1
   5022   5024     1
   5022   5039     1
   5022   5034     1
   5022   5035     1
   5023   5024     1
   5023   5039     1
   5023   5034     1
   5023   5035     1
   5024   5037     1
   5024   5038     1
   5025   5036     1
   5025   5028     1
   5025   5029     1
   5026   5036     1
   5026   5028     1
   5026   5029     1
   5028   5045     1
   5028   5037     1
   5028   5038     1
   5029   5045     1
   5029   5037     1
   5029   5038     1
   5031   9177     1
   5031   5043     1
   5031   5044     1
   5032   9177     1
   5032   5043     1
   5032   5044     1
   5034   9154     1
   5034   5040     1
   5034   5041     1
   5035   9154     1
   5035   5040     1
   5035   5041     1
   5039   9153     1
   5040   9150     1
   5041   9150     1
   5042   9176     1
   5043   9173     1
   5044   9173     1
   5046   5060     1
   5046   5061     1
   5046   5063     1
   5046   5064     1
   5046   5057     1
   5046   5058     1
   5047   5051     1
   5047   5052     1
   5047   5054     1
   5047   5055     1
   5047   5072     1
   5047   5073     1
   5048   5050     1
   5048   5053     1
   5048   5071     1
   5048   5060     1
   5048   5061     1
   5049   5050     1
   5049   5053     1
   5049   5071     1
   5049   5060     1
   5049   5061     1
   5050   5054     1
   5050   5055     1
   5050   5069     1
   5050   5070     1
   5051   5053     1
   5051   5068     1
   5051   5063     1
   5051   5064     1
   5052   5053     1
   5052   5068     1
   5052   5063     1
   5052   5064     1
   5053   5066     1
   5053   5067     1
   5054   5065     1
   5054   5057     1
   5054   5058     1
   5055   5065     1
   5055   5057     1
   5055   5058     1
   5057   5074     1
   5057   5066     1
   5057   5067     1
   5058   5074     1
   5058   5066     1
   5058   5067     1
   5060   9223     1
   5060   5072     1
   5060   5073     1
   5061   9223     1
   5061   5072     1
   5061   5073     1
   5063   9200     1
   5063   5069     1
   5063   5070     1
   5064   9200     1
   5064   5069     1
   5064   5070     1
   5068   9199     1
   5069   9196     1
   5070   9196     1
   5071   9222     1
   5072   9219     1
   5073   9219     1
   5075   5089     1
   5075   5090     1
   5075   5092     1
   5075   5093     1
   5075   5086     1
   5075   5087     1
   5076   5080     1
   5076   5081     1
   5076   5083     1
   5076   5084     1
   5076   5101     1
   5076   5102     1
   5077   5079     1
   5077   5082     1
   5077   5100     1
   5077   5089     1
   5077   5090     1
   5078   5079     1
   5078   5082     1
   5078   5100     1
   5078   5089     1
   5078   5090     1
   5079   5083     1
   5079   5084     1
   5079   5098     1
   5079   5099     1
   5080   5082     1
   5080   5097     1
   5080   5092     1
   5080   5093     1
   5081   5082     1
   5081   5097     1
   5081   5092     1
   5081   5093     1
   5082   5095     1
   5082   5096     1
   5083   5094     1
   5083   5086     1
   5083   5087     1
   5084   5094     1
   5084   5086     1
   5084   5087     1
   5086   5103     1
   5086   5095     1
   5086   5096     1
   5087   5103     1
   5087   5095     1
   5087   5096     1
   5089   9269     1
   5089   5101     1
   5089   5102     1
   5090   9269     1
   5090   5101     1
   5090   5102     1
   5092   9246     1
   5092   5098     1
   5092   5099     1
   5093   9246     1
   5093   5098     1
   5093   5099     1
   5097   9245     1
   5098   9242     1
   5099   9242     1
   5100   9268     1
   5101   9265     1
   5102   9265     1
   5104   5118     1
   5104   5119     1
   5104   5121     1
   5104   5122     1
   5104   5115     1
   5104   5116     1
   5105   5109     1
   5105   5110     1
   5105   5112     1
   5105   5113     1
   5105   5130     1
   5105   5131     1
   5106   5108     1
   5106   5111     1
   5106   5129     1
   5106   5118     1
   5106   5119     1
   5107   5108     1
   5107   5111     1
   5107   5129     1
   5107   5118     1
   5107   5119     1
   5108   5112     1
   5108   5113     1
   5108   5127     1
   5108   5128     1
   5109   5111     1
   5109   5126     1
   5109   5121     1
   5109   5122     1
   5110   5111     1
   5110   5126     1
   5110   5121     1
   5110   5122     1
   5111   5124     1
   5111   5125     1
   5112   5123     1
   5112   5115     1
   5112   5116     1
   5113   5123     1
   5113   5115     1
   5113   5116     1
   5115   5132     1
   5115   5124     1
   5115   5125     1
   5116   5132     1
   5116   5124     1
   5116   5125     1
   5118   9315     1
   5118   5130     1
   5118   5131     1
   5119   9315     1
   5119   5130     1
   5119   5131     1
   5121   9292     1
   5121   5127     1
   5121   5128     1
   5122   9292     1
   5122   5127     1
   5122   5128     1
   5126   9291     1
   5127   9288     1
   5128   9288     1
   5129   9314     1
   5130   9311     1
   5131   9311     1
   5133   5147     1
   5133   5148     1
   5133   5150     1
   5133   5151     1
   5133   5144     1
   5133   5145     1
   5134   5138     1
   5134   5139     1
   5134   5141     1
   5134   5142     1
   5134   5159     1
   5134   5160     1
   5135   5137     1
   5135   5140     1
   5135   5158     1
   5135   5147     1
   5135   5148     1
   5136   5137     1
   5136   5140     1
   5136   5158     1
   5136   5147     1
   5136   5148     1
   5137   5141     1
   5137   5142     1
   5137   5156     1
   5137   5157     1
   5138   5140     1
   5138   5155     1
   5138   5150     1
   5138   5151     1
   5139   5140     1
   5139   5155     1
   5139   5150     1
   5139   5151     1
   5140   5153     1
   5140   5154     1
   5141   5152     1
   5141   5144     1
   5141   5145     1
   5142   5152     1
   5142   5144     1
   5142   5145     1
   5144   5161     1
   5144   5153     1
   5144   5154     1
   5145   5161     1
   5145   5153     1
   5145   5154     1
   5147   9361     1
   5147   5159     1
   5147   5160     1
   5148   9361     1
   5148   5159     1
   5148   5160     1
   5150   9338     1
   5150   5156     1
   5150   5157     1
   5151   9338     1
   5151   5156     1
   5151   5157     1
   5155   9337     1
   5156   9334     1
   5157   9334     1
   5158   9360     1
   5159   9357     1
   5160   9357     1
   5162   5176     1
   5162   5177     1
   5162   5179     1
   5162   5180     1
   5162   5173     1
   5162   5174     1
   5163   5167     1
   5163   5168     1
   5163   5170     1
   5163   5171     1
   5163   5188     1
   5163   5189     1
   5164   5166     1
   5164   5169     1
   5164   5187     1
   5164   5176     1
   5164   5177     1
   5165   5166     1
   5165   5169     1
   5165   5187     1
   5165   5176     1
   5165   5177     1
   5166   5170     1
   5166   5171     1
   5166   5185     1
   5166   5186     1
   5167   5169     1
   5167   5184     1
   5167   5179     1
   5167   5180     1
   5168   5169     1
   5168   5184     1
   5168   5179     1
   5168   5180     1
   5169   5182     1
   5169   5183     1
   5170   5181     1
   5170   5173     1
   5170   5174     1
   5171   5181     1
   5171   5173     1
   5171   5174     1
   5173   5190     1
   5173   5182     1
   5173   5183     1
   5174   5190     1
   5174   5182     1
   5174   5183     1
   5176   9407     1
   5176   5188     1
   5176   5189     1
   5177   9407     1
   5177   5188     1
   5177   5189     1
   5179   9384     1
   5179   5185     1
   5179   5186     1
   5180   9384     1
   5180   5185     1
   5180   5186     1
   5184   9383     1
   5185   9380     1
   5186   9380     1
   5187   9406     1
   5188   9403     1
   5189   9403     1
   5191   5205     1
   5191   5206     1
   5191   5208     1
   5191   5209     1
   5191   5202     1
   5191   5203     1
   5192   5196     1
   5192   5197     1
   5192   5199     1
   5192   5200     1
   5192   5217     1
   5192   5218     1
   5193   5195     1
   5193   5198     1
   5193   5216     1
   5193   5205     1
   5193   5206     1
   5194   5195     1
   5194   5198     1
   5194   5216     1
   5194   5205     1
   5194   5206     1
   5195   5199     1
   5195   5200     1
   5195   5214     1
   5195   5215     1
   5196   5198     1
   5196   5213     1
   5196   5208     1
   5196   5209     1
   5197   5198     1
   5197   5213     1
   5197   5208     1
   5197   5209     1
   5198   5211     1
   5198   5212     1
   5199   5210     1
   5199   5202     1
   5199   5203     1
   5200   5210     1
   5200   5202     1
   5200   5203     1
   5202   5219     1
   5202   5211     1
   5202   5212     1
   5203   5219     1
   5203   5211     1
   5203   5212     1
   5205   9453     1
   5205   5217     1
   5205   5218     1
   5206   9453     1
   5206   5217     1
   5206   5218     1
   5208   9430     1
   5208   5214     1
   5208   5215     1
   5209   9430     1
   5209   5214     1
   5209   5215     1
   5213   9429     1
   5214   9426     1
   5215   9426     1
   5216   9452     1
   5217   9449     1
   5218   9449     1
   5220   5234     1
   5220   5235     1
   5220   5237     1
   5220   5238     1
   5220   5231     1
   5220   5232     1
   5221   5225     1
   5221   5226     1
   5221   5228     1
   5221   5229     1
   5221   5246     1
   5221   5247     1
   5222   5224     1
   5222   5227     1
   5222   5245     1
   5222   5234     1
   5222   5235     1
   5223   5224     1
   5223   5227     1
   5223   5245     1
   5223   5234     1
   5223   5235     1
   5224   5228     1
   5224   5229     1
   5224   5243     1
   5224   5244     1
   5225   5227     1
   5225   5242     1
   5225   5237     1
   5225   5238     1
   5226   5227     1
   5226   5242     1
   5226   5237     1
   5226   5238     1
   5227   5240     1
   5227   5241     1
   5228   5239     1
   5228   5231     1
   5228   5232     1
   5229   5239     1
   5229   5231     1
   5229   5232     1
   5231   5248     1
   5231   5240     1
   5231   5241     1
   5232   5248     1
   5232   5240     1
   5232   5241     1
   5234   9499     1
   5234   5246     1
   5234   5247     1
   5235   9499     1
   5235   5246     1
   5235   5247     1
   5237   9476     1
   5237   5243     1
   5237   5244     1
   5238   9476     1
   5238   5243     1
   5238   5244     1
   5242   9475     1
   5243   9472     1
   5244   9472     1
   5245   9498     1
   5246   9495     1
   5247   9495     1
   5249   5263     1
   5249   5264     1
   5249   5266     1
   5249   5267     1
   5249   5260     1
   5249   5261     1
   5250   5254     1
   5250   5255     1
   5250   5257     1
   5250   5258     1
   5250   5275     1
   5250   5276     1
   5251   5253     1
   5251   5256     1
   5251   5274     1
   5251   5263     1
   5251   5264     1
   5252   5253     1
   5252   5256     1
   5252   5274     1
   5252   5263     1
   5252   5264     1
   5253   5257     1
   5253   5258     1
   5253   5272     1
   5253   5273     1
   5254   5256     1
   5254   5271     1
   5254   5266     1
   5254   5267     1
   5255   5256     1
   5255   5271     1
   5255   5266     1
   5255   5267     1
   5256   5269     1
   5256   5270     1
   5257   5268     1
   5257   5260     1
   5257   5261     1
   5258   5268     1
   5258   5260     1
   5258   5261     1
   5260   5277     1
   5260   5269     1
   5260   5270     1
   5261   5277     1
   5261   5269     1
   5261   5270     1
   5263   9545     1
   5263   5275     1
   5263   5276     1
   5264   9545     1
   5264   5275     1
   5264   5276     1
   5266   9522     1
   5266   5272     1
   5266   5273     1
   5267   9522     1
   5267   5272     1
   5267   5273     1
   5271   9521     1
   5272   9518     1
   5273   9518     1
   5274   9544     1
   5275   9541     1
   5276   9541     1
   5278   5292     1
   5278   5293     1
   5278   5295     1
   5278   5296     1
   5278   5289     1
   5278   5290     1
   5279   5283     1
   5279   5284     1
   5279   5286     1
   5279   5287     1
   5279   5304     1
   5279   5305     1
   5280   5282     1
   5280   5285     1
   5280   5303     1
   5280   5292     1
   5280   5293     1
   5281   5282     1
   5281   5285     1
   5281   5303     1
   5281   5292     1
   5281   5293     1
   5282   5286     1
   5282   5287     1
   5282   5301     1
   5282   5302     1
   5283   5285     1
   5283   5300     1
   5283   5295     1
   5283   5296     1
   5284   5285     1
   5284   5300     1
   5284   5295     1
   5284   5296     1
   5285   5298     1
   5285   5299     1
   5286   5297     1
   5286   5289     1
   5286   5290     1
   5287   5297     1
   5287   5289     1
   5287   5290     1
   5289   5306     1
   5289   5298     1
   5289   5299     1
   5290   5306     1
   5290   5298     1
   5290   5299     1
   5292   9591     1
   5292   5304     1
   5292   5305     1
   5293   9591     1
   5293   5304     1
   5293   5305     1
   5295   9568     1
   5295   5301     1
   5295   5302     1
   5296   9568     1
   5296   5301     1
   5296   5302     1
   5300   9567     1
   5301   9564     1
   5302   9564     1
   5303   9590     1
   5304   9587     1
   5305   9587     1
   5307   5321     1
   5307   5322     1
   5307   5324     1
   5307   5325     1
   5307   5318     1
   5307   5319     1
   5308   5312     1
   5308   5313     1
   5308   5315     1
   5308   5316     1
   5308   5333     1
   5308   5334     1
   5309   5311     1
   5309   5314     1
   5309   5332     1
   5309   5321     1
   5309   5322     1
   5310   5311     1
   5310   5314     1
   5310   5332     1
   5310   5321     1
   5310   5322     1
   5311   5315     1
   5311   5316     1
   5311   5330     1
   5311   5331     1
   5312   5314     1
   5312   5329     1
   5312   5324     1
   5312   5325     1
   5313   5314     1
   5313   5329     1
   5313   5324     1
   5313   5325     1
   5314   5327     1
   5314   5328     1
   5315   5326     1
   5315   5318     1
   5315   5319     1
   5316   5326     1
   5316   5318     1
   5316   5319     1
   5318   5335     1
   5318   5327     1
   5318   5328     1
   5319   5335     1
   5319   5327     1
   5319   5328     1
   5321   9637     1
   5321   5333     1
   5321   5334     1
   5322   9637     1
   5322   5333     1
   5322   5334     1
   5324   9614     1
   5324   5330     1
   5324   5331     1
   5325   9614     1
   5325   5330     1
   5325   5331     1
   5329   9613     1
   5330   9610     1
   5331   9610     1
   5332   9636     1
   5333   9633     1
   5334   9633     1
   5336   5350     1
   5336   5351     1
   5336   5353     1
   5336   5354     1
   5336   5347     1
   5336   5348     1
   5337   5341     1
   5337   5342     1
   5337   5344     1
   5337   5345     1
   5337   5362     1
   5337   5363     1
   5338   5340     1
   5338   5343     1
   5338   5361     1
   5338   5350     1
   5338   5351     1
   5339   5340     1
   5339   5343     1
   5339   5361     1
   5339   5350     1
   5339   5351     1
   5340   5344     1
   5340   5345     1
   5340   5359     1
   5340   5360     1
   5341   5343     1
   5341   5358     1
   5341   5353     1
   5341   5354     1
   5342   5343     1
   5342   5358     1
   5342   5353     1
   5342   5354     1
   5343   5356     1
   5343   5357     1
   5344   5355     1
   5344   5347     1
   5344   5348     1
   5345   5355     1
   5345   5347     1
   5345   5348     1
   5347   5364     1
   5347   5356     1
   5347   5357     1
   5348   5364     1
   5348   5356     1
   5348   5357     1
   5350   9683     1
   5350   5362     1
   5350   5363     1
   5351   9683     1
   5351   5362     1
   5351   5363     1
   5353   9660     1
   5353   5359     1
   5353   5360     1
   5354   9660     1
   5354   5359     1
   5354   5360     1
   5358   9659     1
   5359   9656     1
   5360   9656     1
   5361   9682     1
   5362   9679     1
   5363   9679     1
   5365   5379     1
   5365   5380     1
   5365   5382     1
   5365   5383     1
   5365   5376     1
   5365   5377     1
   5366   5370     1
   5366   5371     1
   5366   5373     1
   5366   5374     1
   5366   5391     1
   5366   5392     1
   5367   5369     1
   5367   5372     1
   5367   5390     1
   5367   5379     1
   5367   5380     1
   5368   5369     1
   5368   5372     1
   5368   5390     1
   5368   5379     1
   5368   5380     1
   5369   5373     1
   5369   5374     1
   5369   5388     1
   5369   5389     1
   5370   5372     1
   5370   5387     1
   5370   5382     1
   5370   5383     1
   5371   5372     1
   5371   5387     1
   5371   5382     1
   5371   5383     1
   5372   5385     1
   5372   5386     1
   5373   5384     1
   5373   5376     1
   5373   5377     1
   5374   5384     1
   5374   5376     1
   5374   5377     1
   5376   5393     1
   5376   5385     1
   5376   5386     1
   5377   5393     1
   5377   5385     1
   5377   5386     1
   5379   9729     1
   5379   5391     1
   5379   5392     1
   5380   9729     1
   5380   5391     1
   5380   5392     1
   5382   9706     1
   5382   5388     1
   5382   5389     1
   5383   9706     1
   5383   5388     1
   5383   5389     1
   5387   9705     1
   5388   9702     1
   5389   9702     1
   5390   9728     1
   5391   9725     1
   5392   9725     1
   5394   5408     1
   5394   5409     1
   5394   5411     1
   5394   5412     1
   5394   5405     1
   5394   5406     1
   5395   5399     1
   5395   5400     1
   5395   5402     1
   5395   5403     1
   5395   5420     1
   5395   5421     1
   5396   5398     1
   5396   5401     1
   5396   5419     1
   5396   5408     1
   5396   5409     1
   5397   5398     1
   5397   5401     1
   5397   5419     1
   5397   5408     1
   5397   5409     1
   5398   5402     1
   5398   5403     1
   5398   5417     1
   5398   5418     1
   5399   5401     1
   5399   5416     1
   5399   5411     1
   5399   5412     1
   5400   5401     1
   5400   5416     1
   5400   5411     1
   5400   5412     1
   5401   5414     1
   5401   5415     1
   5402   5413     1
   5402   5405     1
   5402   5406     1
   5403   5413     1
   5403   5405     1
   5403   5406     1
   5405   5422     1
   5405   5414     1
   5405   5415     1
   5406   5422     1
   5406   5414     1
   5406   5415     1
   5408   9775     1
   5408   5420     1
   5408   5421     1
   5409   9775     1
   5409   5420     1
   5409   5421     1
   5411   9752     1
   5411   5417     1
   5411   5418     1
   5412   9752     1
   5412   5417     1
   5412   5418     1
   5416   9751     1
   5417   9748     1
   5418   9748     1
   5419   9774     1
   5420   9771     1
   5421   9771     1
   5423   5437     1
   5423   5438     1
   5423   5440     1
   5423   5441     1
   5423   5434     1
   5423   5435     1
   5424   5428     1
   5424   5429     1
   5424   5431     1
   5424   5432     1
   5424   5449     1
   5424   5450     1
   5425   5427     1
   5425   5430     1
   5425   5448     1
   5425   5437     1
   5425   5438     1
   5426   5427     1
   5426   5430     1
   5426   5448     1
   5426   5437     1
   5426   5438     1
   5427   5431     1
   5427   5432     1
   5427   5446     1
   5427   5447     1
   5428   5430     1
   5428   5445     1
   5428   5440     1
   5428   5441     1
   5429   5430     1
   5429   5445     1
   5429   5440     1
   5429   5441     1
   5430   5443     1
   5430   5444     1
   5431   5442     1
   5431   5434     1
   5431   5435     1
   5432   5442     1
   5432   5434     1
   5432   5435     1
   5434   5451     1
   5434   5443     1
   5434   5444     1
   5435   5451     1
   5435   5443     1
   5435   5444     1
   5437   9821     1
   5437   5449     1
   5437   5450     1
   5438   9821     1
   5438   5449     1
   5438   5450     1
   5440   9798     1
   5440   5446     1
   5440   5447     1
   5441   9798     1
   5441   5446     1
   5441   5447     1
   5445   9797     1
   5446   9794     1
   5447   9794     1
   5448   9820     1
   5449   9817     1
   5450   9817     1
   5452   5466     1
   5452   5467     1
   5452   5469     1
   5452   5470     1
   5452   5463     1
   5452   5464     1
   5453   5457     1
   5453   5458     1
   5453   5460     1
   5453   5461     1
   5453   5478     1
   5453   5479     1
   5454   5456     1
   5454   5459     1
   5454   5477     1
   5454   5466     1
   5454   5467     1
   5455   5456     1
   5455   5459     1
   5455   5477     1
   5455   5466     1
   5455   5467     1
   5456   5460     1
   5456   5461     1
   5456   5475     1
   5456   5476     1
   5457   5459     1
   5457   5474     1
   5457   5469     1
   5457   5470     1
   5458   5459     1
   5458   5474     1
   5458   5469     1
   5458   5470     1
   5459   5472     1
   5459   5473     1
   5460   5471     1
   5460   5463     1
   5460   5464     1
   5461   5471     1
   5461   5463     1
   5461   5464     1
   5463   5480     1
   5463   5472     1
   5463   5473     1
   5464   5480     1
   5464   5472     1
   5464   5473     1
   5466   9867     1
   5466   5478     1
   5466   5479     1
   5467   9867     1
   5467   5478     1
   5467   5479     1
   5469   9844     1
   5469   5475     1
   5469   5476     1
   5470   9844     1
   5470   5475     1
   5470   5476     1
   5474   9843     1
   5475   9840     1
   5476   9840     1
   5477   9866     1
   5478   9863     1
   5479   9863     1
   5481   5495     1
   5481   5496     1
   5481   5498     1
   5481   5499     1
   5481   5492     1
   5481   5493     1
   5482   5486     1
   5482   5487     1
   5482   5489     1
   5482   5490     1
   5482   5507     1
   5482   5508     1
   5483   5485     1
   5483   5488     1
   5483   5506     1
   5483   5495     1
   5483   5496     1
   5484   5485     1
   5484   5488     1
   5484   5506     1
   5484   5495     1
   5484   5496     1
   5485   5489     1
   5485   5490     1
   5485   5504     1
   5485   5505     1
   5486   5488     1
   5486   5503     1
   5486   5498     1
   5486   5499     1
   5487   5488     1
   5487   5503     1
   5487   5498     1
   5487   5499     1
   5488   5501     1
   5488   5502     1
   5489   5500     1
   5489   5492     1
   5489   5493     1
   5490   5500     1
   5490   5492     1
   5490   5493     1
   5492   5509     1
   5492   5501     1
   5492   5502     1
   5493   5509     1
   5493   5501     1
   5493   5502     1
   5495   9913     1
   5495   5507     1
   5495   5508     1
   5496   9913     1
   5496   5507     1
   5496   5508     1
   5498   9890     1
   5498   5504     1
   5498   5505     1
   5499   9890     1
   5499   5504     1
   5499   5505     1
   5503   9889     1
   5504   9886     1
   5505   9886     1
   5506   9912     1
   5507   9909     1
   5508   9909     1
   5510   5518     1
   5510   5526     1
   5510   5531     1
   5510   5519     1
   5511   5528     1
   5511   5529     1
   5511   5517     1
   5511   5525     1
   5512   5514     1
   5512   5523     1
   5512   5513     1
   5512   5530     1
   5512   5528     1
   5512   5529     1
   5512   5516     1
   5513   5524     1
   5513   5532     1
   5513   5515     1
   5513   5522     1
   5513   5518     1
   5513   5526     1
   5514   5526     1
   5514   5519     1
   5514   5527     1
   5515   5525     1
   5516   5518     1
   5516   5527     1
   5517   5522     1
   5517   5518     1
   5517   5520     1
   5517   5532     1
   5517   5519     1
   5517   5527     1
   5518   5523     1
   5518   5521     1
   5518   5525     1
   5519   5521     1
   5528   5532     1
   5528   5531     1
   5529   5532     1
   5529   5531     1
   5533   5541     1
   5533   5549     1
   5533   5554     1
   5533   5542     1
   5534   5540     1
   5534   5548     1
   5534   5551     1
   5534   5552     1
   5535   5537     1
   5535   5546     1
   5535   5536     1
   5535   5553     1
   5535   5551     1
   5535   5552     1
   5535   5539     1
   5536   5538     1
   5536   5545     1
   5536   5541     1
   5536   5549     1
   5536   5547     1
   5536   5555     1
   5537   5542     1
   5537   5550     1
   5537   5549     1
   5538   5548     1
   5539   5550     1
   5539   5541     1
   5540   5543     1
   5540   5555     1
   5540   5542     1
   5540   5550     1
   5540   5545     1
   5540   5541     1
   5541   5544     1
   5541   5548     1
   5541   5546     1
   5542   5544     1
   5551   5554     1
   5551   5555     1
   5552   5554     1
   5552   5555     1
   5556   5564     1
   5556   5572     1
   5556   5577     1
   5556   5565     1
   5557   5574     1
   5557   5575     1
   5557   5563     1
   5557   5571     1
   5558   5560     1
   5558   5569     1
   5558   5559     1
   5558   5576     1
   5558   5574     1
   5558   5575     1
   5558   5562     1
   5559   5570     1
   5559   5578     1
   5559   5561     1
   5559   5568     1
   5559   5564     1
   5559   5572     1
   5560   5572     1
   5560   5565     1
   5560   5573     1
   5561   5571     1
   5562   5564     1
   5562   5573     1
   5563   5568     1
   5563   5564     1
   5563   5566     1
   5563   5578     1
   5563   5565     1
   5563   5573     1
   5564   5569     1
   5564   5567     1
   5564   5571     1
   5565   5567     1
   5574   5578     1
   5574   5577     1
   5575   5578     1
   5575   5577     1
   5579   5587     1
   5579   5595     1
   5579   5600     1
   5579   5588     1
   5580   5586     1
   5580   5594     1
   5580   5597     1
   5580   5598     1
   5581   5583     1
   5581   5592     1
   5581   5582     1
   5581   5599     1
   5581   5597     1
   5581   5598     1
   5581   5585     1
   5582   5584     1
   5582   5591     1
   5582   5587     1
   5582   5595     1
   5582   5593     1
   5582   5601     1
   5583   5588     1
   5583   5596     1
   5583   5595     1
   5584   5594     1
   5585   5596     1
   5585   5587     1
   5586   5589     1
   5586   5601     1
   5586   5588     1
   5586   5596     1
   5586   5591     1
   5586   5587     1
   5587   5590     1
   5587   5594     1
   5587   5592     1
   5588   5590     1
   5597   5600     1
   5597   5601     1
   5598   5600     1
   5598   5601     1
   5602   5610     1
   5602   5618     1
   5602   5623     1
   5602   5611     1
   5603   5620     1
   5603   5621     1
   5603   5609     1
   5603   5617     1
   5604   5606     1
   5604   5615     1
   5604   5605     1
   5604   5622     1
   5604   5620     1
   5604   5621     1
   5604   5608     1
   5605   5616     1
   5605   5624     1
   5605   5607     1
   5605   5614     1
   5605   5610     1
   5605   5618     1
   5606   5618     1
   5606   5611     1
   5606   5619     1
   5607   5617     1
   5608   5610     1
   5608   5619     1
   5609   5614     1
   5609   5610     1
   5609   5612     1
   5609   5624     1
   5609   5611     1
   5609   5619     1
   5610   5615     1
   5610   5613     1
   5610   5617     1
   5611   5613     1
   5620   5624     1
   5620   5623     1
   5621   5624     1
   5621   5623     1
   5625   5633     1
   5625   5641     1
   5625   5646     1
   5625   5634     1
   5626   5632     1
   5626   5640     1
   5626   5643     1
   5626   5644     1
   5627   5629     1
   5627   5638     1
   5627   5628     1
   5627   5645     1
   5627   5643     1
   5627   5644     1
   5627   5631     1
   5628   5630     1
   5628   5637     1
   5628   5633     1
   5628   5641     1
   5628   5639     1
   5628   5647     1
   5629   5634     1
   5629   5642     1
   5629   5641     1
   5630   5640     1
   5631   5642     1
   5631   5633     1
   5632   5635     1
   5632   5647     1
   5632   5634     1
   5632   5642     1
   5632   5637     1
   5632   5633     1
   5633   5636     1
   5633   5640     1
   5633   5638     1
   5634   5636     1
   5643   5646     1
   5643   5647     1
   5644   5646     1
   5644   5647     1
   5648   5656     1
   5648   5664     1
   5648   5669     1
   5648   5657     1
   5649   5666     1
   5649   5667     1
   5649   5655     1
   5649   5663     1
   5650   5652     1
   5650   5661     1
   5650   5651     1
   5650   5668     1
   5650   5666     1
   5650   5667     1
   5650   5654     1
   5651   5662     1
   5651   5670     1
   5651   5653     1
   5651   5660     1
   5651   5656     1
   5651   5664     1
   5652   5664     1
   5652   5657     1
   5652   5665     1
   5653   5663     1
   5654   5656     1
   5654   5665     1
   5655   5660     1
   5655   5656     1
   5655   5658     1
   5655   5670     1
   5655   5657     1
   5655   5665     1
   5656   5661     1
   5656   5659     1
   5656   5663     1
   5657   5659     1
   5666   5670     1
   5666   5669     1
   5667   5670     1
   5667   5669     1
   5671   5679     1
   5671   5687     1
   5671   5692     1
   5671   5680     1
   5672   5678     1
   5672   5686     1
   5672   5689     1
   5672   5690     1
   5673   5675     1
   5673   5684     1
   5673   5674     1
   5673   5691     1
   5673   5689     1
   5673   5690     1
   5673   5677     1
   5674   5676     1
   5674   5683     1
   5674   5679     1
   5674   5687     1
   5674   5685     1
   5674   5693     1
   5675   5680     1
   5675   5688     1
   5675   5687     1
   5676   5686     1
   5677   5688     1
   5677   5679     1
   5678   5681     1
   5678   5693     1
   5678   5680     1
   5678   5688     1
   5678   5683     1
   5678   5679     1
   5679   5682     1
   5679   5686     1
   5679   5684     1
   5680   5682     1
   5689   5692     1
   5689   5693     1
   5690   5692     1
   5690   5693     1
   5694   5702     1
   5694   5710     1
   5694   5715     1
   5694   5703     1
   5695   5712     1
   5695   5713     1
   5695   5701     1
   5695   5709     1
   5696   5698     1
   5696   5707     1
   5696   5697     1
   5696   5714     1
   5696   5712     1
   5696   5713     1
   5696   5700     1
   5697   5708     1
   5697   5716     1
   5697   5699     1
   5697   5706     1
   5697   5702     1
   5697   5710     1
   5698   5710     1
   5698   5703     1
   5698   5711     1
   5699   5709     1
   5700   5702     1
   5700   5711     1
   5701   5706     1
   5701   5702     1
   5701   5704     1
   5701   5716     1
   5701   5703     1
   5701   5711     1
   5702   5707     1
   5702   5705     1
   5702   5709     1
   5703   5705     1
   5712   5716     1
   5712   5715     1
   5713   5716     1
   5713   5715     1
   5717   5725     1
   5717   5733     1
   5717   5738     1
   5717   5726     1
   5718   5724     1
   5718   5732     1
   5718   5735     1
   5718   5736     1
   5719   5721     1
   5719   5730     1
   5719   5720     1
   5719   5737     1
   5719   5735     1
   5719   5736     1
   5719   5723     1
   5720   5722     1
   5720   5729     1
   5720   5725     1
   5720   5733     1
   5720   5731     1
   5720   5739     1
   5721   5726     1
   5721   5734     1
   5721   5733     1
   5722   5732     1
   5723   5734     1
   5723   5725     1
   5724   5727     1
   5724   5739     1
   5724   5726     1
   5724   5734     1
   5724   5729     1
   5724   5725     1
   5725   5728     1
   5725   5732     1
   5725   5730     1
   5726   5728     1
   5735   5738     1
   5735   5739     1
   5736   5738     1
   5736   5739     1
   5740   5748     1
   5740   5756     1
   5740   5761     1
   5740   5749     1
   5741   5758     1
   5741   5759     1
   5741   5747     1
   5741   5755     1
   5742   5744     1
   5742   5753     1
   5742   5743     1
   5742   5760     1
   5742   5758     1
   5742   5759     1
   5742   5746     1
   5743   5754     1
   5743   5762     1
   5743   5745     1
   5743   5752     1
   5743   5748     1
   5743   5756     1
   5744   5756     1
   5744   5749     1
   5744   5757     1
   5745   5755     1
   5746   5748     1
   5746   5757     1
   5747   5752     1
   5747   5748     1
   5747   5750     1
   5747   5762     1
   5747   5749     1
   5747   5757     1
   5748   5753     1
   5748   5751     1
   5748   5755     1
   5749   5751     1
   5758   5762     1
   5758   5761     1
   5759   5762     1
   5759   5761     1
   5763   5771     1
   5763   5779     1
   5763   5784     1
   5763   5772     1
   5764   5770     1
   5764   5778     1
   5764   5781     1
   5764   5782     1
   5765   5767     1
   5765   5776     1
   5765   5766     1
   5765   5783     1
   5765   5781     1
   5765   5782     1
   5765   5769     1
   5766   5768     1
   5766   5775     1
   5766   5771     1
   5766   5779     1
   5766   5777     1
   5766   5785     1
   5767   5772     1
   5767   5780     1
   5767   5779     1
   5768   5778     1
   5769   5780     1
   5769   5771     1
   5770   5773     1
   5770   5785     1
   5770   5772     1
   5770   5780     1
   5770   5775     1
   5770   5771     1
   5771   5774     1
   5771   5778     1
   5771   5776     1
   5772   5774     1
   5781   5784     1
   5781   5785     1
   5782   5784     1
   5782   5785     1
   5786   5794     1
   5786   5802     1
   5786   5807     1
   5786   5795     1
   5787   5804     1
   5787   5805     1
   5787   5793     1
   5787   5801     1
   5788   5790     1
   5788   5799     1
   5788   5789     1
   5788   5806     1
   5788   5804     1
   5788   5805     1
   5788   5792     1
   5789   5800     1
   5789   5808     1
   5789   5791     1
   5789   5798     1
   5789   5794     1
   5789   5802     1
   5790   5802     1
   5790   5795     1
   5790   5803     1
   5791   5801     1
   5792   5794     1
   5792   5803     1
   5793   5798     1
   5793   5794     1
   5793   5796     1
   5793   5808     1
   5793   5795     1
   5793   5803     1
   5794   5799     1
   5794   5797     1
   5794   5801     1
   5795   5797     1
   5804   5808     1
   5804   5807     1
   5805   5808     1
   5805   5807     1
   5809   5817     1
   5809   5825     1
   5809   5830     1
   5809   5818     1
   5810   5816     1
   5810   5824     1
   5810   5827     1
   5810   5828     1
   5811   5813     1
   5811   5822     1
   5811   5812     1
   5811   5829     1
   5811   5827     1
   5811   5828     1
   5811   5815     1
   5812   5814     1
   5812   5821     1
   5812   5817     1
   5812   5825     1
   5812   5823     1
   5812   5831     1
   5813   5818     1
   5813   5826     1
   5813   5825     1
   5814   5824     1
   5815   5826     1
   5815   5817     1
   5816   5819     1
   5816   5831     1
   5816   5818     1
   5816   5826     1
   5816   5821     1
   5816   5817     1
   5817   5820     1
   5817   5824     1
   5817   5822     1
   5818   5820     1
   5827   5830     1
   5827   5831     1
   5828   5830     1
   5828   5831     1
   5832   5840     1
   5832   5848     1
   5832   5853     1
   5832   5841     1
   5833   5850     1
   5833   5851     1
   5833   5839     1
   5833   5847     1
   5834   5836     1
   5834   5845     1
   5834   5835     1
   5834   5852     1
   5834   5850     1
   5834   5851     1
   5834   5838     1
   5835   5846     1
   5835   5854     1
   5835   5837     1
   5835   5844     1
   5835   5840     1
   5835   5848     1
   5836   5848     1
   5836   5841     1
   5836   5849     1
   5837   5847     1
   5838   5840     1
   5838   5849     1
   5839   5844     1
   5839   5840     1
   5839   5842     1
   5839   5854     1
   5839   5841     1
   5839   5849     1
   5840   5845     1
   5840   5843     1
   5840   5847     1
   5841   5843     1
   5850   5854     1
   5850   5853     1
   5851   5854     1
   5851   5853     1
   5855   5863     1
   5855   5871     1
   5855   5876     1
   5855   5864     1
   5856   5862     1
   5856   5870     1
   5856   5873     1
   5856   5874     1
   5857   5859     1
   5857   5868     1
   5857   5858     1
   5857   5875     1
   5857   5873     1
   5857   5874     1
   5857   5861     1
   5858   5860     1
   5858   5867     1
   5858   5863     1
   5858   5871     1
   5858   5869     1
   5858   5877     1
   5859   5864     1
   5859   5872     1
   5859   5871     1
   5860   5870     1
   5861   5872     1
   5861   5863     1
   5862   5865     1
   5862   5877     1
   5862   5864     1
   5862   5872     1
   5862   5867     1
   5862   5863     1
   5863   5866     1
   5863   5870     1
   5863   5868     1
   5864   5866     1
   5873   5876     1
   5873   5877     1
   5874   5876     1
   5874   5877     1
   5878   5886     1
   5878   5894     1
   5878   5899     1
   5878   5887     1
   5879   5896     1
   5879   5897     1
   5879   5885     1
   5879   5893     1
   5880   5882     1
   5880   5891     1
   5880   5881     1
   5880   5898     1
   5880   5896     1
   5880   5897     1
   5880   5884     1
   5881   5892     1
   5881   5900     1
   5881   5883     1
   5881   5890     1
   5881   5886     1
   5881   5894     1
   5882   5894     1
   5882   5887     1
   5882   5895     1
   5883   5893     1
   5884   5886     1
   5884   5895     1
   5885   5890     1
   5885   5886     1
   5885   5888     1
   5885   5900     1
   5885   5887     1
   5885   5895     1
   5886   5891     1
   5886   5889     1
   5886   5893     1
   5887   5889     1
   5896   5900     1
   5896   5899     1
   5897   5900     1
   5897   5899     1
   5901   5909     1
   5901   5917     1
   5901   5922     1
   5901   5910     1
   5902   5908     1
   5902   5916     1
   5902   5919     1
   5902   5920     1
   5903   5905     1
   5903   5914     1
   5903   5904     1
   5903   5921     1
   5903   5919     1
   5903   5920     1
   5903   5907     1
   5904   5906     1
   5904   5913     1
   5904   5909     1
   5904   5917     1
   5904   5915     1
   5904   5923     1
   5905   5910     1
   5905   5918     1
   5905   5917     1
   5906   5916     1
   5907   5918     1
   5907   5909     1
   5908   5911     1
   5908   5923     1
   5908   5910     1
   5908   5918     1
   5908   5913     1
   5908   5909     1
   5909   5912     1
   5909   5916     1
   5909   5914     1
   5910   5912     1
   5919   5922     1
   5919   5923     1
   5920   5922     1
   5920   5923     1
   5924   5932     1
   5924   5940     1
   5924   5945     1
   5924   5933     1
   5925   5942     1
   5925   5943     1
   5925   5931     1
   5925   5939     1
   5926   5928     1
   5926   5937     1
   5926   5927     1
   5926   5944     1
   5926   5942     1
   5926   5943     1
   5926   5930     1
   5927   5938     1
   5927   5946     1
   5927   5929     1
   5927   5936     1
   5927   5932     1
   5927   5940     1
   5928   5940     1
   5928   5933     1
   5928   5941     1
   5929   5939     1
   5930   5932     1
   5930   5941     1
   5931   5936     1
   5931   5932     1
   5931   5934     1
   5931   5946     1
   5931   5933     1
   5931   5941     1
   5932   5937     1
   5932   5935     1
   5932   5939     1
   5933   5935     1
   5942   5946     1
   5942   5945     1
   5943   5946     1
   5943   5945     1
   5947   5955     1
   5947   5963     1
   5947   5968     1
   5947   5956     1
   5948   5954     1
   5948   5962     1
   5948   5965     1
   5948   5966     1
   5949   5951     1
   5949   5960     1
   5949   5950     1
   5949   5967     1
   5949   5965     1
   5949   5966     1
   5949   5953     1
   5950   5952     1
   5950   5959     1
   5950   5955     1
   5950   5963     1
   5950   5961     1
   5950   5969     1
   5951   5956     1
   5951   5964     1
   5951   5963     1
   5952   5962     1
   5953   5964     1
   5953   5955     1
   5954   5957     1
   5954   5969     1
   5954   5956     1
   5954   5964     1
   5954   5959     1
   5954   5955     1
   5955   5958     1
   5955   5962     1
   5955   5960     1
   5956   5958     1
   5965   5968     1
   5965   5969     1
   5966   5968     1
   5966   5969     1
   5970   5978     1
   5970   5986     1
   5970   5991     1
   5970   5979     1
   5971   5988     1
   5971   5989     1
   5971   5977     1
   5971   5985     1
   5972   5974     1
   5972   5983     1
   5972   5973     1
   5972   5990     1
   5972   5988     1
   5972   5989     1
   5972   5976     1
   5973   5984     1
   5973   5992     1
   5973   5975     1
   5973   5982     1
   5973   5978     1
   5973   5986     1
   5974   5986     1
   5974   5979     1
   5974   5987     1
   5975   5985     1
   5976   5978     1
   5976   5987     1
   5977   5982     1
   5977   5978     1
   5977   5980     1
   5977   5992     1
   5977   5979     1
   5977   5987     1
   5978   5983     1
   5978   5981     1
   5978   5985     1
   5979   5981     1
   5988   5992     1
   5988   5991     1
   5989   5992     1
   5989   5991     1
   5993   6001     1
   5993   6009     1
   5993   6014     1
   5993   6002     1
   5994   6000     1
   5994   6008     1
   5994   6011     1
   5994   6012     1
   5995   5997     1
   5995   6006     1
   5995   5996     1
   5995   6013     1
   5995   6011     1
   5995   6012     1
   5995   5999     1
   5996   5998     1
   5996   6005     1
   5996   6001     1
   5996   6009     1
   5996   6007     1
   5996   6015     1
   5997   6002     1
   5997   6010     1
   5997   6009     1
   5998   6008     1
   5999   6010     1
   5999   6001     1
   6000   6003     1
   6000   6015     1
   6000   6002     1
   6000   6010     1
   6000   6005     1
   6000   6001     1
   6001   6004     1
   6001   6008     1
   6001   6006     1
   6002   6004     1
   6011   6014     1
   6011   6015     1
   6012   6014     1
   6012   6015     1
   6016   6024     1
   6016   6032     1
   6016   6037     1
   6016   6025     1
   6017   6034     1
   6017   6035     1
   6017   6023     1
   6017   6031     1
   6018   6020     1
   6018   6029     1
   6018   6019     1
   6018   6036     1
   6018   6034     1
   6018   6035     1
   6018   6022     1
   6019   6030     1
   6019   6038     1
   6019   6021     1
   6019   6028     1
   6019   6024     1
   6019   6032     1
   6020   6032     1
   6020   6025     1
   6020   6033     1
   6021   6031     1
   6022   6024     1
   6022   6033     1
   6023   6028     1
   6023   6024     1
   6023   6026     1
   6023   6038     1
   6023   6025     1
   6023   6033     1
   6024   6029     1
   6024   6027     1
   6024   6031     1
   6025   6027     1
   6034   6038     1
   6034   6037     1
   6035   6038     1
   6035   6037     1
   6039   6047     1
   6039   6055     1
   6039   6060     1
   6039   6048     1
   6040   6046     1
   6040   6054     1
   6040   6057     1
   6040   6058     1
   6041   6043     1
   6041   6052     1
   6041   6042     1
   6041   6059     1
   6041   6057     1
   6041   6058     1
   6041   6045     1
   6042   6044     1
   6042   6051     1
   6042   6047     1
   6042   6055     1
   6042   6053     1
   6042   6061     1
   6043   6048     1
   6043   6056     1
   6043   6055     1
   6044   6054     1
   6045   6056     1
   6045   6047     1
   6046   6049     1
   6046   6061     1
   6046   6048     1
   6046   6056     1
   6046   6051     1
   6046   6047     1
   6047   6050     1
   6047   6054     1
   6047   6052     1
   6048   6050     1
   6057   6060     1
   6057   6061     1
   6058   6060     1
   6058   6061     1
   6062   6070     1
   6062   6078     1
   6062   6083     1
   6062   6071     1
   6063   6080     1
   6063   6081     1
   6063   6069     1
   6063   6077     1
   6064   6066     1
   6064   6075     1
   6064   6065     1
   6064   6082     1
   6064   6080     1
   6064   6081     1
   6064   6068     1
   6065   6076     1
   6065   6084     1
   6065   6067     1
   6065   6074     1
   6065   6070     1
   6065   6078     1
   6066   6078     1
   6066   6071     1
   6066   6079     1
   6067   6077     1
   6068   6070     1
   6068   6079     1
   6069   6074     1
   6069   6070     1
   6069   6072     1
   6069   6084     1
   6069   6071     1
   6069   6079     1
   6070   6075     1
   6070   6073     1
   6070   6077     1
   6071   6073     1
   6080   6084     1
   6080   6083     1
   6081   6084     1
   6081   6083     1
   6085   6093     1
   6085   6101     1
   6085   6106     1
   6085   6094     1
   6086   6092     1
   6086   6100     1
   6086   6103     1
   6086   6104     1
   6087   6089     1
   6087   6098     1
   6087   6088     1
   6087   6105     1
   6087   6103     1
   6087   6104     1
   6087   6091     1
   6088   6090     1
   6088   6097     1
   6088   6093     1
   6088   6101     1
   6088   6099     1
   6088   6107     1
   6089   6094     1
   6089   6102     1
   6089   6101     1
   6090   6100     1
   6091   6102     1
   6091   6093     1
   6092   6095     1
   6092   6107     1
   6092   6094     1
   6092   6102     1
   6092   6097     1
   6092   6093     1
   6093   6096     1
   6093   6100     1
   6093   6098     1
   6094   6096     1
   6103   6106     1
   6103   6107     1
   6104   6106     1
   6104   6107     1
   6108   6116     1
   6108   6124     1
   6108   6129     1
   6108   6117     1
   6109   6126     1
   6109   6127     1
   6109   6115     1
   6109   6123     1
   6110   6112     1
   6110   6121     1
   6110   6111     1
   6110   6128     1
   6110   6126     1
   6110   6127     1
   6110   6114     1
   6111   6122     1
   6111   6130     1
   6111   6113     1
   6111   6120     1
   6111   6116     1
   6111   6124     1
   6112   6124     1
   6112   6117     1
   6112   6125     1
   6113   6123     1
   6114   6116     1
   6114   6125     1
   6115   6120     1
   6115   6116     1
   6115   6118     1
   6115   6130     1
   6115   6117     1
   6115   6125     1
   6116   6121     1
   6116   6119     1
   6116   6123     1
   6117   6119     1
   6126   6130     1
   6126   6129     1
   6127   6130     1
   6127   6129     1
   6131   6139     1
   6131   6147     1
   6131   6152     1
   6131   6140     1
   6132   6138     1
   6132   6146     1
   6132   6149     1
   6132   6150     1
   6133   6135     1
   6133   6144     1
   6133   6134     1
   6133   6151     1
   6133   6149     1
   6133   6150     1
   6133   6137     1
   6134   6136     1
   6134   6143     1
   6134   6139     1
   6134   6147     1
   6134   6145     1
   6134   6153     1
   6135   6140     1
   6135   6148     1
   6135   6147     1
   6136   6146     1
   6137   6148     1
   6137   6139     1
   6138   6141     1
   6138   6153     1
   6138   6140     1
   6138   6148     1
   6138   6143     1
   6138   6139     1
   6139   6142     1
   6139   6146     1
   6139   6144     1
   6140   6142     1
   6149   6152     1
   6149   6153     1
   6150   6152     1
   6150   6153     1
   6154   6162     1
   6154   6170     1
   6154   6175     1
   6154   6163     1
   6155   6172     1
   6155   6173     1
   6155   6161     1
   6155   6169     1
   6156   6158     1
   6156   6167     1
   6156   6157     1
   6156   6174     1
   6156   6172     1
   6156   6173     1
   6156   6160     1
   6157   6168     1
   6157   6176     1
   6157   6159     1
   6157   6166     1
   6157   6162     1
   6157   6170     1
   6158   6170     1
   6158   6163     1
   6158   6171     1
   6159   6169     1
   6160   6162     1
   6160   6171     1
   6161   6166     1
   6161   6162     1
   6161   6164     1
   6161   6176     1
   6161   6163     1
   6161   6171     1
   6162   6167     1
   6162   6165     1
   6162   6169     1
   6163   6165     1
   6172   6176     1
   6172   6175     1
   6173   6176     1
   6173   6175     1
   6177   6185     1
   6177   6193     1
   6177   6198     1
   6177   6186     1
   6178   6184     1
   6178   6192     1
   6178   6195     1
   6178   6196     1
   6179   6181     1
   6179   6190     1
   6179   6180     1
   6179   6197     1
   6179   6195     1
   6179   6196     1
   6179   6183     1
   6180   6182     1
   6180   6189     1
   6180   6185     1
   6180   6193     1
   6180   6191     1
   6180   6199     1
   6181   6186     1
   6181   6194     1
   6181   6193     1
   6182   6192     1
   6183   6194     1
   6183   6185     1
   6184   6187     1
   6184   6199     1
   6184   6186     1
   6184   6194     1
   6184   6189     1
   6184   6185     1
   6185   6188     1
   6185   6192     1
   6185   6190     1
   6186   6188     1
   6195   6198     1
   6195   6199     1
   6196   6198     1
   6196   6199     1
   6200   6208     1
   6200   6216     1
   6200   6221     1
   6200   6209     1
   6201   6218     1
   6201   6219     1
   6201   6207     1
   6201   6215     1
   6202   6204     1
   6202   6213     1
   6202   6203     1
   6202   6220     1
   6202   6218     1
   6202   6219     1
   6202   6206     1
   6203   6214     1
   6203   6222     1
   6203   6205     1
   6203   6212     1
   6203   6208     1
   6203   6216     1
   6204   6216     1
   6204   6209     1
   6204   6217     1
   6205   6215     1
   6206   6208     1
   6206   6217     1
   6207   6212     1
   6207   6208     1
   6207   6210     1
   6207   6222     1
   6207   6209     1
   6207   6217     1
   6208   6213     1
   6208   6211     1
   6208   6215     1
   6209   6211     1
   6218   6222     1
   6218   6221     1
   6219   6222     1
   6219   6221     1
   6223   6231     1
   6223   6239     1
   6223   6244     1
   6223   6232     1
   6224   6230     1
   6224   6238     1
   6224   6241     1
   6224   6242     1
   6225   6227     1
   6225   6236     1
   6225   6226     1
   6225   6243     1
   6225   6241     1
   6225   6242     1
   6225   6229     1
   6226   6228     1
   6226   6235     1
   6226   6231     1
   6226   6239     1
   6226   6237     1
   6226   6245     1
   6227   6232     1
   6227   6240     1
   6227   6239     1
   6228   6238     1
   6229   6240     1
   6229   6231     1
   6230   6233     1
   6230   6245     1
   6230   6232     1
   6230   6240     1
   6230   6235     1
   6230   6231     1
   6231   6234     1
   6231   6238     1
   6231   6236     1
   6232   6234     1
   6241   6244     1
   6241   6245     1
   6242   6244     1
   6242   6245     1
   6246   6254     1
   6246   6262     1
   6246   6267     1
   6246   6255     1
   6247   6264     1
   6247   6265     1
   6247   6253     1
   6247   6261     1
   6248   6250     1
   6248   6259     1
   6248   6249     1
   6248   6266     1
   6248   6264     1
   6248   6265     1
   6248   6252     1
   6249   6260     1
   6249   6268     1
   6249   6251     1
   6249   6258     1
   6249   6254     1
   6249   6262     1
   6250   6262     1
   6250   6255     1
   6250   6263     1
   6251   6261     1
   6252   6254     1
   6252   6263     1
   6253   6258     1
   6253   6254     1
   6253   6256     1
   6253   6268     1
   6253   6255     1
   6253   6263     1
   6254   6259     1
   6254   6257     1
   6254   6261     1
   6255   6257     1
   6264   6268     1
   6264   6267     1
   6265   6268     1
   6265   6267     1
   6269   6277     1
   6269   6285     1
   6269   6290     1
   6269   6278     1
   6270   6276     1
   6270   6284     1
   6270   6287     1
   6270   6288     1
   6271   6273     1
   6271   6282     1
   6271   6272     1
   6271   6289     1
   6271   6287     1
   6271   6288     1
   6271   6275     1
   6272   6274     1
   6272   6281     1
   6272   6277     1
   6272   6285     1
   6272   6283     1
   6272   6291     1
   6273   6278     1
   6273   6286     1
   6273   6285     1
   6274   6284     1
   6275   6286     1
   6275   6277     1
   6276   6279     1
   6276   6291     1
   6276   6278     1
   6276   6286     1
   6276   6281     1
   6276   6277     1
   6277   6280     1
   6277   6284     1
   6277   6282     1
   6278   6280     1
   6287   6290     1
   6287   6291     1
   6288   6290     1
   6288   6291     1
   6292   6300     1
   6292   6308     1
   6292   6313     1
   6292   6301     1
   6293   6310     1
   6293   6311     1
   6293   6299     1
   6293   6307     1
   6294   6296     1
   6294   6305     1
   6294   6295     1
   6294   6312     1
   6294   6310     1
   6294   6311     1
   6294   6298     1
   6295   6306     1
   6295   6314     1
   6295   6297     1
   6295   6304     1
   6295   6300     1
   6295   6308     1
   6296   6308     1
   6296   6301     1
   6296   6309     1
   6297   6307     1
   6298   6300     1
   6298   6309     1
   6299   6304     1
   6299   6300     1
   6299   6302     1
   6299   6314     1
   6299   6301     1
   6299   6309     1
   6300   6305     1
   6300   6303     1
   6300   6307     1
   6301   6303     1
   6310   6314     1
   6310   6313     1
   6311   6314     1
   6311   6313     1
   6315   6323     1
   6315   6331     1
   6315   6336     1
   6315   6324     1
   6316   6322     1
   6316   6330     1
   6316   6333     1
   6316   6334     1
   6317   6319     1
   6317   6328     1
   6317   6318     1
   6317   6335     1
   6317   6333     1
   6317   6334     1
   6317   6321     1
   6318   6320     1
   6318   6327     1
   6318   6323     1
   6318   6331     1
   6318   6329     1
   6318   6337     1
   6319   6324     1
   6319   6332     1
   6319   6331     1
   6320   6330     1
   6321   6332     1
   6321   6323     1
   6322   6325     1
   6322   6337     1
   6322   6324     1
   6322   6332     1
   6322   6327     1
   6322   6323     1
   6323   6326     1
   6323   6330     1
   6323   6328     1
   6324   6326     1
   6333   6336     1
   6333   6337     1
   6334   6336     1
   6334   6337     1
   6338   6346     1
   6338   6354     1
   6338   6359     1
   6338   6347     1
   6339   6356     1
   6339   6357     1
   6339   6345     1
   6339   6353     1
   6340   6342     1
   6340   6351     1
   6340   6341     1
   6340   6358     1
   6340   6356     1
   6340   6357     1
   6340   6344     1
   6341   6352     1
   6341   6360     1
   6341   6343     1
   6341   6350     1
   6341   6346     1
   6341   6354     1
   6342   6354     1
   6342   6347     1
   6342   6355     1
   6343   6353     1
   6344   6346     1
   6344   6355     1
   6345   6350     1
   6345   6346     1
   6345   6348     1
   6345   6360     1
   6345   6347     1
   6345   6355     1
   6346   6351     1
   6346   6349     1
   6346   6353     1
   6347   6349     1
   6356   6360     1
   6356   6359     1
   6357   6360     1
   6357   6359     1
   6361   6369     1
   6361   6377     1
   6361   6382     1
   6361   6370     1
   6362   6368     1
   6362   6376     1
   6362   6379     1
   6362   6380     1
   6363   6365     1
   6363   6374     1
   6363   6364     1
   6363   6381     1
   6363   6379     1
   6363   6380     1
   6363   6367     1
   6364   6366     1
   6364   6373     1
   6364   6369     1
   6364   6377     1
   6364   6375     1
   6364   6383     1
   6365   6370     1
   6365   6378     1
   6365   6377     1
   6366   6376     1
   6367   6378     1
   6367   6369     1
   6368   6371     1
   6368   6383     1
   6368   6370     1
   6368   6378     1
   6368   6373     1
   6368   6369     1
   6369   6372     1
   6369   6376     1
   6369   6374     1
   6370   6372     1
   6379   6382     1
   6379   6383     1
   6380   6382     1
   6380   6383     1
   6384   6392     1
   6384   6400     1
   6384   6405     1
   6384   6393     1
   6385   6402     1
   6385   6403     1
   6385   6391     1
   6385   6399     1
   6386   6388     1
   6386   6397     1
   6386   6387     1
   6386   6404     1
   6386   6402     1
   6386   6403     1
   6386   6390     1
   6387   6398     1
   6387   6406     1
   6387   6389     1
   6387   6396     1
   6387   6392     1
   6387   6400     1
   6388   6400     1
   6388   6393     1
   6388   6401     1
   6389   6399     1
   6390   6392     1
   6390   6401     1
   6391   6396     1
   6391   6392     1
   6391   6394     1
   6391   6406     1
   6391   6393     1
   6391   6401     1
   6392   6397     1
   6392   6395     1
   6392   6399     1
   6393   6395     1
   6402   6406     1
   6402   6405     1
   6403   6406     1
   6403   6405     1
   6407   6415     1
   6407   6423     1
   6407   6428     1
   6407   6416     1
   6408   6414     1
   6408   6422     1
   6408   6425     1
   6408   6426     1
   6409   6411     1
   6409   6420     1
   6409   6410     1
   6409   6427     1
   6409   6425     1
   6409   6426     1
   6409   6413     1
   6410   6412     1
   6410   6419     1
   6410   6415     1
   6410   6423     1
   6410   6421     1
   6410   6429     1
   6411   6416     1
   6411   6424     1
   6411   6423     1
   6412   6422     1
   6413   6424     1
   6413   6415     1
   6414   6417     1
   6414   6429     1
   6414   6416     1
   6414   6424     1
   6414   6419     1
   6414   6415     1
   6415   6418     1
   6415   6422     1
   6415   6420     1
   6416   6418     1
   6425   6428     1
   6425   6429     1
   6426   6428     1
   6426   6429     1
   6430   6438     1
   6430   6446     1
   6430   6451     1
   6430   6439     1
   6431   6448     1
   6431   6449     1
   6431   6437     1
   6431   6445     1
   6432   6434     1
   6432   6443     1
   6432   6433     1
   6432   6450     1
   6432   6448     1
   6432   6449     1
   6432   6436     1
   6433   6444     1
   6433   6452     1
   6433   6435     1
   6433   6442     1
   6433   6438     1
   6433   6446     1
   6434   6446     1
   6434   6439     1
   6434   6447     1
   6435   6445     1
   6436   6438     1
   6436   6447     1
   6437   6442     1
   6437   6438     1
   6437   6440     1
   6437   6452     1
   6437   6439     1
   6437   6447     1
   6438   6443     1
   6438   6441     1
   6438   6445     1
   6439   6441     1
   6448   6452     1
   6448   6451     1
   6449   6452     1
   6449   6451     1
   6453   6461     1
   6453   6469     1
   6453   6474     1
   6453   6462     1
   6454   6460     1
   6454   6468     1
   6454   6471     1
   6454   6472     1
   6455   6457     1
   6455   6466     1
   6455   6456     1
   6455   6473     1
   6455   6471     1
   6455   6472     1
   6455   6459     1
   6456   6458     1
   6456   6465     1
   6456   6461     1
   6456   6469     1
   6456   6467     1
   6456   6475     1
   6457   6462     1
   6457   6470     1
   6457   6469     1
   6458   6468     1
   6459   6470     1
   6459   6461     1
   6460   6463     1
   6460   6475     1
   6460   6462     1
   6460   6470     1
   6460   6465     1
   6460   6461     1
   6461   6464     1
   6461   6468     1
   6461   6466     1
   6462   6464     1
   6471   6474     1
   6471   6475     1
   6472   6474     1
   6472   6475     1
   6476   6484     1
   6476   6492     1
   6476   6497     1
   6476   6485     1
   6477   6494     1
   6477   6495     1
   6477   6483     1
   6477   6491     1
   6478   6480     1
   6478   6489     1
   6478   6479     1
   6478   6496     1
   6478   6494     1
   6478   6495     1
   6478   6482     1
   6479   6490     1
   6479   6498     1
   6479   6481     1
   6479   6488     1
   6479   6484     1
   6479   6492     1
   6480   6492     1
   6480   6485     1
   6480   6493     1
   6481   6491     1
   6482   6484     1
   6482   6493     1
   6483   6488     1
   6483   6484     1
   6483   6486     1
   6483   6498     1
   6483   6485     1
   6483   6493     1
   6484   6489     1
   6484   6487     1
   6484   6491     1
   6485   6487     1
   6494   6498     1
   6494   6497     1
   6495   6498     1
   6495   6497     1
   6499   6507     1
   6499   6515     1
   6499   6520     1
   6499   6508     1
   6500   6506     1
   6500   6514     1
   6500   6517     1
   6500   6518     1
   6501   6503     1
   6501   6512     1
   6501   6502     1
   6501   6519     1
   6501   6517     1
   6501   6518     1
   6501   6505     1
   6502   6504     1
   6502   6511     1
   6502   6507     1
   6502   6515     1
   6502   6513     1
   6502   6521     1
   6503   6508     1
   6503   6516     1
   6503   6515     1
   6504   6514     1
   6505   6516     1
   6505   6507     1
   6506   6509     1
   6506   6521     1
   6506   6508     1
   6506   6516     1
   6506   6511     1
   6506   6507     1
   6507   6510     1
   6507   6514     1
   6507   6512     1
   6508   6510     1
   6517   6520     1
   6517   6521     1
   6518   6520     1
   6518   6521     1
   6522   6530     1
   6522   6538     1
   6522   6543     1
   6522   6531     1
   6523   6540     1
   6523   6541     1
   6523   6529     1
   6523   6537     1
   6524   6526     1
   6524   6535     1
   6524   6525     1
   6524   6542     1
   6524   6540     1
   6524   6541     1
   6524   6528     1
   6525   6536     1
   6525   6544     1
   6525   6527     1
   6525   6534     1
   6525   6530     1
   6525   6538     1
   6526   6538     1
   6526   6531     1
   6526   6539     1
   6527   6537     1
   6528   6530     1
   6528   6539     1
   6529   6534     1
   6529   6530     1
   6529   6532     1
   6529   6544     1
   6529   6531     1
   6529   6539     1
   6530   6535     1
   6530   6533     1
   6530   6537     1
   6531   6533     1
   6540   6544     1
   6540   6543     1
   6541   6544     1
   6541   6543     1
   6545   6553     1
   6545   6561     1
   6545   6566     1
   6545   6554     1
   6546   6552     1
   6546   6560     1
   6546   6563     1
   6546   6564     1
   6547   6549     1
   6547   6558     1
   6547   6548     1
   6547   6565     1
   6547   6563     1
   6547   6564     1
   6547   6551     1
   6548   6550     1
   6548   6557     1
   6548   6553     1
   6548   6561     1
   6548   6559     1
   6548   6567     1
   6549   6554     1
   6549   6562     1
   6549   6561     1
   6550   6560     1
   6551   6562     1
   6551   6553     1
   6552   6555     1
   6552   6567     1
   6552   6554     1
   6552   6562     1
   6552   6557     1
   6552   6553     1
   6553   6556     1
   6553   6560     1
   6553   6558     1
   6554   6556     1
   6563   6566     1
   6563   6567     1
   6564   6566     1
   6564   6567     1
   6568   6576     1
   6568   6584     1
   6568   6589     1
   6568   6577     1
   6569   6586     1
   6569   6587     1
   6569   6575     1
   6569   6583     1
   6570   6572     1
   6570   6581     1
   6570   6571     1
   6570   6588     1
   6570   6586     1
   6570   6587     1
   6570   6574     1
   6571   6582     1
   6571   6590     1
   6571   6573     1
   6571   6580     1
   6571   6576     1
   6571   6584     1
   6572   6584     1
   6572   6577     1
   6572   6585     1
   6573   6583     1
   6574   6576     1
   6574   6585     1
   6575   6580     1
   6575   6576     1
   6575   6578     1
   6575   6590     1
   6575   6577     1
   6575   6585     1
   6576   6581     1
   6576   6579     1
   6576   6583     1
   6577   6579     1
   6586   6590     1
   6586   6589     1
   6587   6590     1
   6587   6589     1
   6591   6599     1
   6591   6607     1
   6591   6612     1
   6591   6600     1
   6592   6598     1
   6592   6606     1
   6592   6609     1
   6592   6610     1
   6593   6595     1
   6593   6604     1
   6593   6594     1
   6593   6611     1
   6593   6609     1
   6593   6610     1
   6593   6597     1
   6594   6596     1
   6594   6603     1
   6594   6599     1
   6594   6607     1
   6594   6605     1
   6594   6613     1
   6595   6600     1
   6595   6608     1
   6595   6607     1
   6596   6606     1
   6597   6608     1
   6597   6599     1
   6598   6601     1
   6598   6613     1
   6598   6600     1
   6598   6608     1
   6598   6603     1
   6598   6599     1
   6599   6602     1
   6599   6606     1
   6599   6604     1
   6600   6602     1
   6609   6612     1
   6609   6613     1
   6610   6612     1
   6610   6613     1
   6614   6622     1
   6614   6630     1
   6614   6635     1
   6614   6623     1
   6615   6632     1
   6615   6633     1
   6615   6621     1
   6615   6629     1
   6616   6618     1
   6616   6627     1
   6616   6617     1
   6616   6634     1
   6616   6632     1
   6616   6633     1
   6616   6620     1
   6617   6628     1
   6617   6636     1
   6617   6619     1
   6617   6626     1
   6617   6622     1
   6617   6630     1
   6618   6630     1
   6618   6623     1
   6618   6631     1
   6619   6629     1
   6620   6622     1
   6620   6631     1
   6621   6626     1
   6621   6622     1
   6621   6624     1
   6621   6636     1
   6621   6623     1
   6621   6631     1
   6622   6627     1
   6622   6625     1
   6622   6629     1
   6623   6625     1
   6632   6636     1
   6632   6635     1
   6633   6636     1
   6633   6635     1
   6637   6645     1
   6637   6653     1
   6637   6658     1
   6637   6646     1
   6638   6644     1
   6638   6652     1
   6638   6655     1
   6638   6656     1
   6639   6641     1
   6639   6650     1
   6639   6640     1
   6639   6657     1
   6639   6655     1
   6639   6656     1
   6639   6643     1
   6640   6642     1
   6640   6649     1
   6640   6645     1
   6640   6653     1
   6640   6651     1
   6640   6659     1
   6641   6646     1
   6641   6654     1
   6641   6653     1
   6642   6652     1
   6643   6654     1
   6643   6645     1
   6644   6647     1
   6644   6659     1
   6644   6646     1
   6644   6654     1
   6644   6649     1
   6644   6645     1
   6645   6648     1
   6645   6652     1
   6645   6650     1
   6646   6648     1
   6655   6658     1
   6655   6659     1
   6656   6658     1
   6656   6659     1
   6660   6668     1
   6660   6676     1
   6660   6681     1
   6660   6669     1
   6661   6678     1
   6661   6679     1
   6661   6667     1
   6661   6675     1
   6662   6664     1
   6662   6673     1
   6662   6663     1
   6662   6680     1
   6662   6678     1
   6662   6679     1
   6662   6666     1
   6663   6674     1
   6663   6682     1
   6663   6665     1
   6663   6672     1
   6663   6668     1
   6663   6676     1
   6664   6676     1
   6664   6669     1
   6664   6677     1
   6665   6675     1
   6666   6668     1
   6666   6677     1
   6667   6672     1
   6667   6668     1
   6667   6670     1
   6667   6682     1
   6667   6669     1
   6667   6677     1
   6668   6673     1
   6668   6671     1
   6668   6675     1
   6669   6671     1
   6678   6682     1
   6678   6681     1
   6679   6682     1
   6679   6681     1
   6683   6691     1
   6683   6699     1
   6683   6704     1
   6683   6692     1
   6684   6690     1
   6684   6698     1
   6684   6701     1
   6684   6702     1
   6685   6687     1
   6685   6696     1
   6685   6686     1
   6685   6703     1
   6685   6701     1
   6685   6702     1
   6685   6689     1
   6686   6688     1
   6686   6695     1
   6686   6691     1
   6686   6699     1
   6686   6697     1
   6686   6705     1
   6687   6692     1
   6687   6700     1
   6687   6699     1
   6688   6698     1
   6689   6700     1
   6689   6691     1
   6690   6693     1
   6690   6705     1
   6690   6692     1
   6690   6700     1
   6690   6695     1
   6690   6691     1
   6691   6694     1
   6691   6698     1
   6691   6696     1
   6692   6694     1
   6701   6704     1
   6701   6705     1
   6702   6704     1
   6702   6705     1
   6706   6714     1
   6706   6722     1
   6706   6727     1
   6706   6715     1
   6707   6724     1
   6707   6725     1
   6707   6713     1
   6707   6721     1
   6708   6710     1
   6708   6719     1
   6708   6709     1
   6708   6726     1
   6708   6724     1
   6708   6725     1
   6708   6712     1
   6709   6720     1
   6709   6728     1
   6709   6711     1
   6709   6718     1
   6709   6714     1
   6709   6722     1
   6710   6722     1
   6710   6715     1
   6710   6723     1
   6711   6721     1
   6712   6714     1
   6712   6723     1
   6713   6718     1
   6713   6714     1
   6713   6716     1
   6713   6728     1
   6713   6715     1
   6713   6723     1
   6714   6719     1
   6714   6717     1
   6714   6721     1
   6715   6717     1
   6724   6728     1
   6724   6727     1
   6725   6728     1
   6725   6727     1
   6729   6737     1
   6729   6745     1
   6729   6750     1
   6729   6738     1
   6730   6736     1
   6730   6744     1
   6730   6747     1
   6730   6748     1
   6731   6733     1
   6731   6742     1
   6731   6732     1
   6731   6749     1
   6731   6747     1
   6731   6748     1
   6731   6735     1
   6732   6734     1
   6732   6741     1
   6732   6737     1
   6732   6745     1
   6732   6743     1
   6732   6751     1
   6733   6738     1
   6733   6746     1
   6733   6745     1
   6734   6744     1
   6735   6746     1
   6735   6737     1
   6736   6739     1
   6736   6751     1
   6736   6738     1
   6736   6746     1
   6736   6741     1
   6736   6737     1
   6737   6740     1
   6737   6744     1
   6737   6742     1
   6738   6740     1
   6747   6750     1
   6747   6751     1
   6748   6750     1
   6748   6751     1
   6752   6760     1
   6752   6768     1
   6752   6773     1
   6752   6761     1
   6753   6770     1
   6753   6771     1
   6753   6759     1
   6753   6767     1
   6754   6756     1
   6754   6765     1
   6754   6755     1
   6754   6772     1
   6754   6770     1
   6754   6771     1
   6754   6758     1
   6755   6766     1
   6755   6774     1
   6755   6757     1
   6755   6764     1
   6755   6760     1
   6755   6768     1
   6756   6768     1
   6756   6761     1
   6756   6769     1
   6757   6767     1
   6758   6760     1
   6758   6769     1
   6759   6764     1
   6759   6760     1
   6759   6762     1
   6759   6774     1
   6759   6761     1
   6759   6769     1
   6760   6765     1
   6760   6763     1
   6760   6767     1
   6761   6763     1
   6770   6774     1
   6770   6773     1
   6771   6774     1
   6771   6773     1
   6775   6783     1
   6775   6791     1
   6775   6796     1
   6775   6784     1
   6776   6782     1
   6776   6790     1
   6776   6793     1
   6776   6794     1
   6777   6779     1
   6777   6788     1
   6777   6778     1
   6777   6795     1
   6777   6793     1
   6777   6794     1
   6777   6781     1
   6778   6780     1
   6778   6787     1
   6778   6783     1
   6778   6791     1
   6778   6789     1
   6778   6797     1
   6779   6784     1
   6779   6792     1
   6779   6791     1
   6780   6790     1
   6781   6792     1
   6781   6783     1
   6782   6785     1
   6782   6797     1
   6782   6784     1
   6782   6792     1
   6782   6787     1
   6782   6783     1
   6783   6786     1
   6783   6790     1
   6783   6788     1
   6784   6786     1
   6793   6796     1
   6793   6797     1
   6794   6796     1
   6794   6797     1
   6798   6806     1
   6798   6814     1
   6798   6819     1
   6798   6807     1
   6799   6816     1
   6799   6817     1
   6799   6805     1
   6799   6813     1
   6800   6802     1
   6800   6811     1
   6800   6801     1
   6800   6818     1
   6800   6816     1
   6800   6817     1
   6800   6804     1
   6801   6812     1
   6801   6820     1
   6801   6803     1
   6801   6810     1
   6801   6806     1
   6801   6814     1
   6802   6814     1
   6802   6807     1
   6802   6815     1
   6803   6813     1
   6804   6806     1
   6804   6815     1
   6805   6810     1
   6805   6806     1
   6805   6808     1
   6805   6820     1
   6805   6807     1
   6805   6815     1
   6806   6811     1
   6806   6809     1
   6806   6813     1
   6807   6809     1
   6816   6820     1
   6816   6819     1
   6817   6820     1
   6817   6819     1
   6821   6829     1
   6821   6837     1
   6821   6842     1
   6821   6830     1
   6822   6828     1
   6822   6836     1
   6822   6839     1
   6822   6840     1
   6823   6825     1
   6823   6834     1
   6823   6824     1
   6823   6841     1
   6823   6839     1
   6823   6840     1
   6823   6827     1
   6824   6826     1
   6824   6833     1
   6824   6829     1
   6824   6837     1
   6824   6835     1
   6824   6843     1
   6825   6830     1
   6825   6838     1
   6825   6837     1
   6826   6836     1
   6827   6838     1
   6827   6829     1
   6828   6831     1
   6828   6843     1
   6828   6830     1
   6828   6838     1
   6828   6833     1
   6828   6829     1
   6829   6832     1
   6829   6836     1
   6829   6834     1
   6830   6832     1
   6839   6842     1
   6839   6843     1
   6840   6842     1
   6840   6843     1
   6844   6852     1
   6844   6860     1
   6844   6865     1
   6844   6853     1
   6845   6862     1
   6845   6863     1
   6845   6851     1
   6845   6859     1
   6846   6848     1
   6846   6857     1
   6846   6847     1
   6846   6864     1
   6846   6862     1
   6846   6863     1
   6846   6850     1
   6847   6858     1
   6847   6866     1
   6847   6849     1
   6847   6856     1
   6847   6852     1
   6847   6860     1
   6848   6860     1
   6848   6853     1
   6848   6861     1
   6849   6859     1
   6850   6852     1
   6850   6861     1
   6851   6856     1
   6851   6852     1
   6851   6854     1
   6851   6866     1
   6851   6853     1
   6851   6861     1
   6852   6857     1
   6852   6855     1
   6852   6859     1
   6853   6855     1
   6862   6866     1
   6862   6865     1
   6863   6866     1
   6863   6865     1
   6867   6875     1
   6867   6883     1
   6867   6888     1
   6867   6876     1
   6868   6874     1
   6868   6882     1
   6868   6885     1
   6868   6886     1
   6869   6871     1
   6869   6880     1
   6869   6870     1
   6869   6887     1
   6869   6885     1
   6869   6886     1
   6869   6873     1
   6870   6872     1
   6870   6879     1
   6870   6875     1
   6870   6883     1
   6870   6881     1
   6870   6889     1
   6871   6876     1
   6871   6884     1
   6871   6883     1
   6872   6882     1
   6873   6884     1
   6873   6875     1
   6874   6877     1
   6874   6889     1
   6874   6876     1
   6874   6884     1
   6874   6879     1
   6874   6875     1
   6875   6878     1
   6875   6882     1
   6875   6880     1
   6876   6878     1
   6885   6888     1
   6885   6889     1
   6886   6888     1
   6886   6889     1
   6890   6898     1
   6890   6906     1
   6890   6911     1
   6890   6899     1
   6891   6908     1
   6891   6909     1
   6891   6897     1
   6891   6905     1
   6892   6894     1
   6892   6903     1
   6892   6893     1
   6892   6910     1
   6892   6908     1
   6892   6909     1
   6892   6896     1
   6893   6904     1
   6893   6912     1
   6893   6895     1
   6893   6902     1
   6893   6898     1
   6893   6906     1
   6894   6906     1
   6894   6899     1
   6894   6907     1
   6895   6905     1
   6896   6898     1
   6896   6907     1
   6897   6902     1
   6897   6898     1
   6897   6900     1
   6897   6912     1
   6897   6899     1
   6897   6907     1
   6898   6903     1
   6898   6901     1
   6898   6905     1
   6899   6901     1
   6908   6912     1
   6908   6911     1
   6909   6912     1
   6909   6911     1
   6913   6921     1
   6913   6929     1
   6913   6934     1
   6913   6922     1
   6914   6920     1
   6914   6928     1
   6914   6931     1
   6914   6932     1
   6915   6917     1
   6915   6926     1
   6915   6916     1
   6915   6933     1
   6915   6931     1
   6915   6932     1
   6915   6919     1
   6916   6918     1
   6916   6925     1
   6916   6921     1
   6916   6929     1
   6916   6927     1
   6916   6935     1
   6917   6922     1
   6917   6930     1
   6917   6929     1
   6918   6928     1
   6919   6930     1
   6919   6921     1
   6920   6923     1
   6920   6935     1
   6920   6922     1
   6920   6930     1
   6920   6925     1
   6920   6921     1
   6921   6924     1
   6921   6928     1
   6921   6926     1
   6922   6924     1
   6931   6934     1
   6931   6935     1
   6932   6934     1
   6932   6935     1
   6936   6944     1
   6936   6952     1
   6936   6957     1
   6936   6945     1
   6937   6954     1
   6937   6955     1
   6937   6943     1
   6937   6951     1
   6938   6940     1
   6938   6949     1
   6938   6939     1
   6938   6956     1
   6938   6954     1
   6938   6955     1
   6938   6942     1
   6939   6950     1
   6939   6958     1
   6939   6941     1
   6939   6948     1
   6939   6944     1
   6939   6952     1
   6940   6952     1
   6940   6945     1
   6940   6953     1
   6941   6951     1
   6942   6944     1
   6942   6953     1
   6943   6948     1
   6943   6944     1
   6943   6946     1
   6943   6958     1
   6943   6945     1
   6943   6953     1
   6944   6949     1
   6944   6947     1
   6944   6951     1
   6945   6947     1
   6954   6958     1
   6954   6957     1
   6955   6958     1
   6955   6957     1
   6959   6967     1
   6959   6975     1
   6959   6980     1
   6959   6968     1
   6960   6966     1
   6960   6974     1
   6960   6977     1
   6960   6978     1
   6961   6963     1
   6961   6972     1
   6961   6962     1
   6961   6979     1
   6961   6977     1
   6961   6978     1
   6961   6965     1
   6962   6964     1
   6962   6971     1
   6962   6967     1
   6962   6975     1
   6962   6973     1
   6962   6981     1
   6963   6968     1
   6963   6976     1
   6963   6975     1
   6964   6974     1
   6965   6976     1
   6965   6967     1
   6966   6969     1
   6966   6981     1
   6966   6968     1
   6966   6976     1
   6966   6971     1
   6966   6967     1
   6967   6970     1
   6967   6974     1
   6967   6972     1
   6968   6970     1
   6977   6980     1
   6977   6981     1
   6978   6980     1
   6978   6981     1
   6982   6990     1
   6982   6998     1
   6982   7003     1
   6982   6991     1
   6983   7000     1
   6983   7001     1
   6983   6989     1
   6983   6997     1
   6984   6986     1
   6984   6995     1
   6984   6985     1
   6984   7002     1
   6984   7000     1
   6984   7001     1
   6984   6988     1
   6985   6996     1
   6985   7004     1
   6985   6987     1
   6985   6994     1
   6985   6990     1
   6985   6998     1
   6986   6998     1
   6986   6991     1
   6986   6999     1
   6987   6997     1
   6988   6990     1
   6988   6999     1
   6989   6994     1
   6989   6990     1
   6989   6992     1
   6989   7004     1
   6989   6991     1
   6989   6999     1
   6990   6995     1
   6990   6993     1
   6990   6997     1
   6991   6993     1
   7000   7004     1
   7000   7003     1
   7001   7004     1
   7001   7003     1
   7005   7013     1
   7005   7021     1
   7005   7026     1
   7005   7014     1
   7006   7012     1
   7006   7020     1
   7006   7023     1
   7006   7024     1
   7007   7009     1
   7007   7018     1
   7007   7008     1
   7007   7025     1
   7007   7023     1
   7007   7024     1
   7007   7011     1
   7008   7010     1
   7008   7017     1
   7008   7013     1
   7008   7021     1
   7008   7019     1
   7008   7027     1
   7009   7014     1
   7009   7022     1
   7009   7021     1
   7010   7020     1
   7011   7022     1
   7011   7013     1
   7012   7015     1
   7012   7027     1
   7012   7014     1
   7012   7022     1
   7012   7017     1
   7012   7013     1
   7013   7016     1
   7013   7020     1
   7013   7018     1
   7014   7016     1
   7023   7026     1
   7023   7027     1
   7024   7026     1
   7024   7027     1
   7028   7036     1
   7028   7044     1
   7028   7049     1
   7028   7037     1
   7029   7046     1
   7029   7047     1
   7029   7035     1
   7029   7043     1
   7030   7032     1
   7030   7041     1
   7030   7031     1
   7030   7048     1
   7030   7046     1
   7030   7047     1
   7030   7034     1
   7031   7042     1
   7031   7050     1
   7031   7033     1
   7031   7040     1
   7031   7036     1
   7031   7044     1
   7032   7044     1
   7032   7037     1
   7032   7045     1
   7033   7043     1
   7034   7036     1
   7034   7045     1
   7035   7040     1
   7035   7036     1
   7035   7038     1
   7035   7050     1
   7035   7037     1
   7035   7045     1
   7036   7041     1
   7036   7039     1
   7036   7043     1
   7037   7039     1
   7046   7050     1
   7046   7049     1
   7047   7050     1
   7047   7049     1
   7051   7059     1
   7051   7067     1
   7051   7072     1
   7051   7060     1
   7052   7058     1
   7052   7066     1
   7052   7069     1
   7052   7070     1
   7053   7055     1
   7053   7064     1
   7053   7054     1
   7053   7071     1
   7053   7069     1
   7053   7070     1
   7053   7057     1
   7054   7056     1
   7054   7063     1
   7054   7059     1
   7054   7067     1
   7054   7065     1
   7054   7073     1
   7055   7060     1
   7055   7068     1
   7055   7067     1
   7056   7066     1
   7057   7068     1
   7057   7059     1
   7058   7061     1
   7058   7073     1
   7058   7060     1
   7058   7068     1
   7058   7063     1
   7058   7059     1
   7059   7062     1
   7059   7066     1
   7059   7064     1
   7060   7062     1
   7069   7072     1
   7069   7073     1
   7070   7072     1
   7070   7073     1
   7074   7082     1
   7074   7090     1
   7074   7095     1
   7074   7083     1
   7075   7092     1
   7075   7093     1
   7075   7081     1
   7075   7089     1
   7076   7078     1
   7076   7087     1
   7076   7077     1
   7076   7094     1
   7076   7092     1
   7076   7093     1
   7076   7080     1
   7077   7088     1
   7077   7096     1
   7077   7079     1
   7077   7086     1
   7077   7082     1
   7077   7090     1
   7078   7090     1
   7078   7083     1
   7078   7091     1
   7079   7089     1
   7080   7082     1
   7080   7091     1
   7081   7086     1
   7081   7082     1
   7081   7084     1
   7081   7096     1
   7081   7083     1
   7081   7091     1
   7082   7087     1
   7082   7085     1
   7082   7089     1
   7083   7085     1
   7092   7096     1
   7092   7095     1
   7093   7096     1
   7093   7095     1
   7097   7105     1
   7097   7113     1
   7097   7118     1
   7097   7106     1
   7098   7104     1
   7098   7112     1
   7098   7115     1
   7098   7116     1
   7099   7101     1
   7099   7110     1
   7099   7100     1
   7099   7117     1
   7099   7115     1
   7099   7116     1
   7099   7103     1
   7100   7102     1
   7100   7109     1
   7100   7105     1
   7100   7113     1
   7100   7111     1
   7100   7119     1
   7101   7106     1
   7101   7114     1
   7101   7113     1
   7102   7112     1
   7103   7114     1
   7103   7105     1
   7104   7107     1
   7104   7119     1
   7104   7106     1
   7104   7114     1
   7104   7109     1
   7104   7105     1
   7105   7108     1
   7105   7112     1
   7105   7110     1
   7106   7108     1
   7115   7118     1
   7115   7119     1
   7116   7118     1
   7116   7119     1
   7120   7128     1
   7120   7136     1
   7120   7141     1
   7120   7129     1
   7121   7138     1
   7121   7139     1
   7121   7127     1
   7121   7135     1
   7122   7124     1
   7122   7133     1
   7122   7123     1
   7122   7140     1
   7122   7138     1
   7122   7139     1
   7122   7126     1
   7123   7134     1
   7123   7142     1
   7123   7125     1
   7123   7132     1
   7123   7128     1
   7123   7136     1
   7124   7136     1
   7124   7129     1
   7124   7137     1
   7125   7135     1
   7126   7128     1
   7126   7137     1
   7127   7132     1
   7127   7128     1
   7127   7130     1
   7127   7142     1
   7127   7129     1
   7127   7137     1
   7128   7133     1
   7128   7131     1
   7128   7135     1
   7129   7131     1
   7138   7142     1
   7138   7141     1
   7139   7142     1
   7139   7141     1
   7143   7151     1
   7143   7159     1
   7143   7164     1
   7143   7152     1
   7144   7150     1
   7144   7158     1
   7144   7161     1
   7144   7162     1
   7145   7147     1
   7145   7156     1
   7145   7146     1
   7145   7163     1
   7145   7161     1
   7145   7162     1
   7145   7149     1
   7146   7148     1
   7146   7155     1
   7146   7151     1
   7146   7159     1
   7146   7157     1
   7146   7165     1
   7147   7152     1
   7147   7160     1
   7147   7159     1
   7148   7158     1
   7149   7160     1
   7149   7151     1
   7150   7153     1
   7150   7165     1
   7150   7152     1
   7150   7160     1
   7150   7155     1
   7150   7151     1
   7151   7154     1
   7151   7158     1
   7151   7156     1
   7152   7154     1
   7161   7164     1
   7161   7165     1
   7162   7164     1
   7162   7165     1
   7166   7174     1
   7166   7182     1
   7166   7187     1
   7166   7175     1
   7167   7184     1
   7167   7185     1
   7167   7173     1
   7167   7181     1
   7168   7170     1
   7168   7179     1
   7168   7169     1
   7168   7186     1
   7168   7184     1
   7168   7185     1
   7168   7172     1
   7169   7180     1
   7169   7188     1
   7169   7171     1
   7169   7178     1
   7169   7174     1
   7169   7182     1
   7170   7182     1
   7170   7175     1
   7170   7183     1
   7171   7181     1
   7172   7174     1
   7172   7183     1
   7173   7178     1
   7173   7174     1
   7173   7176     1
   7173   7188     1
   7173   7175     1
   7173   7183     1
   7174   7179     1
   7174   7177     1
   7174   7181     1
   7175   7177     1
   7184   7188     1
   7184   7187     1
   7185   7188     1
   7185   7187     1
   7189   7197     1
   7189   7205     1
   7189   7210     1
   7189   7198     1
   7190   7196     1
   7190   7204     1
   7190   7207     1
   7190   7208     1
   7191   7193     1
   7191   7202     1
   7191   7192     1
   7191   7209     1
   7191   7207     1
   7191   7208     1
   7191   7195     1
   7192   7194     1
   7192   7201     1
   7192   7197     1
   7192   7205     1
   7192   7203     1
   7192   7211     1
   7193   7198     1
   7193   7206     1
   7193   7205     1
   7194   7204     1
   7195   7206     1
   7195   7197     1
   7196   7199     1
   7196   7211     1
   7196   7198     1
   7196   7206     1
   7196   7201     1
   7196   7197     1
   7197   7200     1
   7197   7204     1
   7197   7202     1
   7198   7200     1
   7207   7210     1
   7207   7211     1
   7208   7210     1
   7208   7211     1
   7212   7220     1
   7212   7228     1
   7212   7233     1
   7212   7221     1
   7213   7230     1
   7213   7231     1
   7213   7219     1
   7213   7227     1
   7214   7216     1
   7214   7225     1
   7214   7215     1
   7214   7232     1
   7214   7230     1
   7214   7231     1
   7214   7218     1
   7215   7226     1
   7215   7234     1
   7215   7217     1
   7215   7224     1
   7215   7220     1
   7215   7228     1
   7216   7228     1
   7216   7221     1
   7216   7229     1
   7217   7227     1
   7218   7220     1
   7218   7229     1
   7219   7224     1
   7219   7220     1
   7219   7222     1
   7219   7234     1
   7219   7221     1
   7219   7229     1
   7220   7225     1
   7220   7223     1
   7220   7227     1
   7221   7223     1
   7230   7234     1
   7230   7233     1
   7231   7234     1
   7231   7233     1
   7235   7243     1
   7235   7251     1
   7235   7256     1
   7235   7244     1
   7236   7242     1
   7236   7250     1
   7236   7253     1
   7236   7254     1
   7237   7239     1
   7237   7248     1
   7237   7238     1
   7237   7255     1
   7237   7253     1
   7237   7254     1
   7237   7241     1
   7238   7240     1
   7238   7247     1
   7238   7243     1
   7238   7251     1
   7238   7249     1
   7238   7257     1
   7239   7244     1
   7239   7252     1
   7239   7251     1
   7240   7250     1
   7241   7252     1
   7241   7243     1
   7242   7245     1
   7242   7257     1
   7242   7244     1
   7242   7252     1
   7242   7247     1
   7242   7243     1
   7243   7246     1
   7243   7250     1
   7243   7248     1
   7244   7246     1
   7253   7256     1
   7253   7257     1
   7254   7256     1
   7254   7257     1
   7258   7266     1
   7258   7274     1
   7258   7279     1
   7258   7267     1
   7259   7276     1
   7259   7277     1
   7259   7265     1
   7259   7273     1
   7260   7262     1
   7260   7271     1
   7260   7261     1
   7260   7278     1
   7260   7276     1
   7260   7277     1
   7260   7264     1
   7261   7272     1
   7261   7280     1
   7261   7263     1
   7261   7270     1
   7261   7266     1
   7261   7274     1
   7262   7274     1
   7262   7267     1
   7262   7275     1
   7263   7273     1
   7264   7266     1
   7264   7275     1
   7265   7270     1
   7265   7266     1
   7265   7268     1
   7265   7280     1
   7265   7267     1
   7265   7275     1
   7266   7271     1
   7266   7269     1
   7266   7273     1
   7267   7269     1
   7276   7280     1
   7276   7279     1
   7277   7280     1
   7277   7279     1
   7281   7289     1
   7281   7297     1
   7281   7302     1
   7281   7290     1
   7282   7288     1
   7282   7296     1
   7282   7299     1
   7282   7300     1
   7283   7285     1
   7283   7294     1
   7283   7284     1
   7283   7301     1
   7283   7299     1
   7283   7300     1
   7283   7287     1
   7284   7286     1
   7284   7293     1
   7284   7289     1
   7284   7297     1
   7284   7295     1
   7284   7303     1
   7285   7290     1
   7285   7298     1
   7285   7297     1
   7286   7296     1
   7287   7298     1
   7287   7289     1
   7288   7291     1
   7288   7303     1
   7288   7290     1
   7288   7298     1
   7288   7293     1
   7288   7289     1
   7289   7292     1
   7289   7296     1
   7289   7294     1
   7290   7292     1
   7299   7302     1
   7299   7303     1
   7300   7302     1
   7300   7303     1
   7304   7312     1
   7304   7320     1
   7304   7325     1
   7304   7313     1
   7305   7322     1
   7305   7323     1
   7305   7311     1
   7305   7319     1
   7306   7308     1
   7306   7317     1
   7306   7307     1
   7306   7324     1
   7306   7322     1
   7306   7323     1
   7306   7310     1
   7307   7318     1
   7307   7326     1
   7307   7309     1
   7307   7316     1
   7307   7312     1
   7307   7320     1
   7308   7320     1
   7308   7313     1
   7308   7321     1
   7309   7319     1
   7310   7312     1
   7310   7321     1
   7311   7316     1
   7311   7312     1
   7311   7314     1
   7311   7326     1
   7311   7313     1
   7311   7321     1
   7312   7317     1
   7312   7315     1
   7312   7319     1
   7313   7315     1
   7322   7326     1
   7322   7325     1
   7323   7326     1
   7323   7325     1
   7327   7335     1
   7327   7343     1
   7327   7348     1
   7327   7336     1
   7328   7334     1
   7328   7342     1
   7328   7345     1
   7328   7346     1
   7329   7331     1
   7329   7340     1
   7329   7330     1
   7329   7347     1
   7329   7345     1
   7329   7346     1
   7329   7333     1
   7330   7332     1
   7330   7339     1
   7330   7335     1
   7330   7343     1
   7330   7341     1
   7330   7349     1
   7331   7336     1
   7331   7344     1
   7331   7343     1
   7332   7342     1
   7333   7344     1
   7333   7335     1
   7334   7337     1
   7334   7349     1
   7334   7336     1
   7334   7344     1
   7334   7339     1
   7334   7335     1
   7335   7338     1
   7335   7342     1
   7335   7340     1
   7336   7338     1
   7345   7348     1
   7345   7349     1
   7346   7348     1
   7346   7349     1
   7350   7358     1
   7350   7366     1
   7350   7371     1
   7350   7359     1
   7351   7368     1
   7351   7369     1
   7351   7357     1
   7351   7365     1
   7352   7354     1
   7352   7363     1
   7352   7353     1
   7352   7370     1
   7352   7368     1
   7352   7369     1
   7352   7356     1
   7353   7364     1
   7353   7372     1
   7353   7355     1
   7353   7362     1
   7353   7358     1
   7353   7366     1
   7354   7366     1
   7354   7359     1
   7354   7367     1
   7355   7365     1
   7356   7358     1
   7356   7367     1
   7357   7362     1
   7357   7358     1
   7357   7360     1
   7357   7372     1
   7357   7359     1
   7357   7367     1
   7358   7363     1
   7358   7361     1
   7358   7365     1
   7359   7361     1
   7368   7372     1
   7368   7371     1
   7369   7372     1
   7369   7371     1
   7373   7381     1
   7373   7389     1
   7373   7394     1
   7373   7382     1
   7374   7380     1
   7374   7388     1
   7374   7391     1
   7374   7392     1
   7375   7377     1
   7375   7386     1
   7375   7376     1
   7375   7393     1
   7375   7391     1
   7375   7392     1
   7375   7379     1
   7376   7378     1
   7376   7385     1
   7376   7381     1
   7376   7389     1
   7376   7387     1
   7376   7395     1
   7377   7382     1
   7377   7390     1
   7377   7389     1
   7378   7388     1
   7379   7390     1
   7379   7381     1
   7380   7383     1
   7380   7395     1
   7380   7382     1
   7380   7390     1
   7380   7385     1
   7380   7381     1
   7381   7384     1
   7381   7388     1
   7381   7386     1
   7382   7384     1
   7391   7394     1
   7391   7395     1
   7392   7394     1
   7392   7395     1
   7396   7404     1
   7396   7412     1
   7396   7417     1
   7396   7405     1
   7397   7414     1
   7397   7415     1
   7397   7403     1
   7397   7411     1
   7398   7400     1
   7398   7409     1
   7398   7399     1
   7398   7416     1
   7398   7414     1
   7398   7415     1
   7398   7402     1
   7399   7410     1
   7399   7418     1
   7399   7401     1
   7399   7408     1
   7399   7404     1
   7399   7412     1
   7400   7412     1
   7400   7405     1
   7400   7413     1
   7401   7411     1
   7402   7404     1
   7402   7413     1
   7403   7408     1
   7403   7404     1
   7403   7406     1
   7403   7418     1
   7403   7405     1
   7403   7413     1
   7404   7409     1
   7404   7407     1
   7404   7411     1
   7405   7407     1
   7414   7418     1
   7414   7417     1
   7415   7418     1
   7415   7417     1
   7419   7427     1
   7419   7435     1
   7419   7440     1
   7419   7428     1
   7420   7426     1
   7420   7434     1
   7420   7437     1
   7420   7438     1
   7421   7423     1
   7421   7432     1
   7421   7422     1
   7421   7439     1
   7421   7437     1
   7421   7438     1
   7421   7425     1
   7422   7424     1
   7422   7431     1
   7422   7427     1
   7422   7435     1
   7422   7433     1
   7422   7441     1
   7423   7428     1
   7423   7436     1
   7423   7435     1
   7424   7434     1
   7425   7436     1
   7425   7427     1
   7426   7429     1
   7426   7441     1
   7426   7428     1
   7426   7436     1
   7426   7431     1
   7426   7427     1
   7427   7430     1
   7427   7434     1
   7427   7432     1
   7428   7430     1
   7437   7440     1
   7437   7441     1
   7438   7440     1
   7438   7441     1
   7442   7450     1
   7442   7458     1
   7442   7463     1
   7442   7451     1
   7443   7460     1
   7443   7461     1
   7443   7449     1
   7443   7457     1
   7444   7446     1
   7444   7455     1
   7444   7445     1
   7444   7462     1
   7444   7460     1
   7444   7461     1
   7444   7448     1
   7445   7456     1
   7445   7464     1
   7445   7447     1
   7445   7454     1
   7445   7450     1
   7445   7458     1
   7446   7458     1
   7446   7451     1
   7446   7459     1
   7447   7457     1
   7448   7450     1
   7448   7459     1
   7449   7454     1
   7449   7450     1
   7449   7452     1
   7449   7464     1
   7449   7451     1
   7449   7459     1
   7450   7455     1
   7450   7453     1
   7450   7457     1
   7451   7453     1
   7460   7464     1
   7460   7463     1
   7461   7464     1
   7461   7463     1
   7465   7473     1
   7465   7481     1
   7465   7486     1
   7465   7474     1
   7466   7472     1
   7466   7480     1
   7466   7483     1
   7466   7484     1
   7467   7469     1
   7467   7478     1
   7467   7468     1
   7467   7485     1
   7467   7483     1
   7467   7484     1
   7467   7471     1
   7468   7470     1
   7468   7477     1
   7468   7473     1
   7468   7481     1
   7468   7479     1
   7468   7487     1
   7469   7474     1
   7469   7482     1
   7469   7481     1
   7470   7480     1
   7471   7482     1
   7471   7473     1
   7472   7475     1
   7472   7487     1
   7472   7474     1
   7472   7482     1
   7472   7477     1
   7472   7473     1
   7473   7476     1
   7473   7480     1
   7473   7478     1
   7474   7476     1
   7483   7486     1
   7483   7487     1
   7484   7486     1
   7484   7487     1
   7488   7496     1
   7488   7504     1
   7488   7509     1
   7488   7497     1
   7489   7506     1
   7489   7507     1
   7489   7495     1
   7489   7503     1
   7490   7492     1
   7490   7501     1
   7490   7491     1
   7490   7508     1
   7490   7506     1
   7490   7507     1
   7490   7494     1
   7491   7502     1
   7491   7510     1
   7491   7493     1
   7491   7500     1
   7491   7496     1
   7491   7504     1
   7492   7504     1
   7492   7497     1
   7492   7505     1
   7493   7503     1
   7494   7496     1
   7494   7505     1
   7495   7500     1
   7495   7496     1
   7495   7498     1
   7495   7510     1
   7495   7497     1
   7495   7505     1
   7496   7501     1
   7496   7499     1
   7496   7503     1
   7497   7499     1
   7506   7510     1
   7506   7509     1
   7507   7510     1
   7507   7509     1
   7511   7519     1
   7511   7527     1
   7511   7532     1
   7511   7520     1
   7512   7518     1
   7512   7526     1
   7512   7529     1
   7512   7530     1
   7513   7515     1
   7513   7524     1
   7513   7514     1
   7513   7531     1
   7513   7529     1
   7513   7530     1
   7513   7517     1
   7514   7516     1
   7514   7523     1
   7514   7519     1
   7514   7527     1
   7514   7525     1
   7514   7533     1
   7515   7520     1
   7515   7528     1
   7515   7527     1
   7516   7526     1
   7517   7528     1
   7517   7519     1
   7518   7521     1
   7518   7533     1
   7518   7520     1
   7518   7528     1
   7518   7523     1
   7518   7519     1
   7519   7522     1
   7519   7526     1
   7519   7524     1
   7520   7522     1
   7529   7532     1
   7529   7533     1
   7530   7532     1
   7530   7533     1
   7534   7542     1
   7534   7550     1
   7534   7555     1
   7534   7543     1
   7535   7552     1
   7535   7553     1
   7535   7541     1
   7535   7549     1
   7536   7538     1
   7536   7547     1
   7536   7537     1
   7536   7554     1
   7536   7552     1
   7536   7553     1
   7536   7540     1
   7537   7548     1
   7537   7556     1
   7537   7539     1
   7537   7546     1
   7537   7542     1
   7537   7550     1
   7538   7550     1
   7538   7543     1
   7538   7551     1
   7539   7549     1
   7540   7542     1
   7540   7551     1
   7541   7546     1
   7541   7542     1
   7541   7544     1
   7541   7556     1
   7541   7543     1
   7541   7551     1
   7542   7547     1
   7542   7545     1
   7542   7549     1
   7543   7545     1
   7552   7556     1
   7552   7555     1
   7553   7556     1
   7553   7555     1
   7557   7565     1
   7557   7573     1
   7557   7578     1
   7557   7566     1
   7558   7564     1
   7558   7572     1
   7558   7575     1
   7558   7576     1
   7559   7561     1
   7559   7570     1
   7559   7560     1
   7559   7577     1
   7559   7575     1
   7559   7576     1
   7559   7563     1
   7560   7562     1
   7560   7569     1
   7560   7565     1
   7560   7573     1
   7560   7571     1
   7560   7579     1
   7561   7566     1
   7561   7574     1
   7561   7573     1
   7562   7572     1
   7563   7574     1
   7563   7565     1
   7564   7567     1
   7564   7579     1
   7564   7566     1
   7564   7574     1
   7564   7569     1
   7564   7565     1
   7565   7568     1
   7565   7572     1
   7565   7570     1
   7566   7568     1
   7575   7578     1
   7575   7579     1
   7576   7578     1
   7576   7579     1
   7580   7588     1
   7580   7596     1
   7580   7601     1
   7580   7589     1
   7581   7598     1
   7581   7599     1
   7581   7587     1
   7581   7595     1
   7582   7584     1
   7582   7593     1
   7582   7583     1
   7582   7600     1
   7582   7598     1
   7582   7599     1
   7582   7586     1
   7583   7594     1
   7583   7602     1
   7583   7585     1
   7583   7592     1
   7583   7588     1
   7583   7596     1
   7584   7596     1
   7584   7589     1
   7584   7597     1
   7585   7595     1
   7586   7588     1
   7586   7597     1
   7587   7592     1
   7587   7588     1
   7587   7590     1
   7587   7602     1
   7587   7589     1
   7587   7597     1
   7588   7593     1
   7588   7591     1
   7588   7595     1
   7589   7591     1
   7598   7602     1
   7598   7601     1
   7599   7602     1
   7599   7601     1
   7603   7611     1
   7603   7619     1
   7603   7624     1
   7603   7612     1
   7604   7610     1
   7604   7618     1
   7604   7621     1
   7604   7622     1
   7605   7607     1
   7605   7616     1
   7605   7606     1
   7605   7623     1
   7605   7621     1
   7605   7622     1
   7605   7609     1
   7606   7608     1
   7606   7615     1
   7606   7611     1
   7606   7619     1
   7606   7617     1
   7606   7625     1
   7607   7612     1
   7607   7620     1
   7607   7619     1
   7608   7618     1
   7609   7620     1
   7609   7611     1
   7610   7613     1
   7610   7625     1
   7610   7612     1
   7610   7620     1
   7610   7615     1
   7610   7611     1
   7611   7614     1
   7611   7618     1
   7611   7616     1
   7612   7614     1
   7621   7624     1
   7621   7625     1
   7622   7624     1
   7622   7625     1
   7626   7634     1
   7626   7642     1
   7626   7647     1
   7626   7635     1
   7627   7644     1
   7627   7645     1
   7627   7633     1
   7627   7641     1
   7628   7630     1
   7628   7639     1
   7628   7629     1
   7628   7646     1
   7628   7644     1
   7628   7645     1
   7628   7632     1
   7629   7640     1
   7629   7648     1
   7629   7631     1
   7629   7638     1
   7629   7634     1
   7629   7642     1
   7630   7642     1
   7630   7635     1
   7630   7643     1
   7631   7641     1
   7632   7634     1
   7632   7643     1
   7633   7638     1
   7633   7634     1
   7633   7636     1
   7633   7648     1
   7633   7635     1
   7633   7643     1
   7634   7639     1
   7634   7637     1
   7634   7641     1
   7635   7637     1
   7644   7648     1
   7644   7647     1
   7645   7648     1
   7645   7647     1
   7649   7657     1
   7649   7665     1
   7649   7670     1
   7649   7658     1
   7650   7656     1
   7650   7664     1
   7650   7667     1
   7650   7668     1
   7651   7653     1
   7651   7662     1
   7651   7652     1
   7651   7669     1
   7651   7667     1
   7651   7668     1
   7651   7655     1
   7652   7654     1
   7652   7661     1
   7652   7657     1
   7652   7665     1
   7652   7663     1
   7652   7671     1
   7653   7658     1
   7653   7666     1
   7653   7665     1
   7654   7664     1
   7655   7666     1
   7655   7657     1
   7656   7659     1
   7656   7671     1
   7656   7658     1
   7656   7666     1
   7656   7661     1
   7656   7657     1
   7657   7660     1
   7657   7664     1
   7657   7662     1
   7658   7660     1
   7667   7670     1
   7667   7671     1
   7668   7670     1
   7668   7671     1
   7672   7680     1
   7672   7688     1
   7672   7693     1
   7672   7681     1
   7673   7690     1
   7673   7691     1
   7673   7679     1
   7673   7687     1
   7674   7676     1
   7674   7685     1
   7674   7675     1
   7674   7692     1
   7674   7690     1
   7674   7691     1
   7674   7678     1
   7675   7686     1
   7675   7694     1
   7675   7677     1
   7675   7684     1
   7675   7680     1
   7675   7688     1
   7676   7688     1
   7676   7681     1
   7676   7689     1
   7677   7687     1
   7678   7680     1
   7678   7689     1
   7679   7684     1
   7679   7680     1
   7679   7682     1
   7679   7694     1
   7679   7681     1
   7679   7689     1
   7680   7685     1
   7680   7683     1
   7680   7687     1
   7681   7683     1
   7690   7694     1
   7690   7693     1
   7691   7694     1
   7691   7693     1
   7695   7703     1
   7695   7711     1
   7695   7716     1
   7695   7704     1
   7696   7702     1
   7696   7710     1
   7696   7713     1
   7696   7714     1
   7697   7699     1
   7697   7708     1
   7697   7698     1
   7697   7715     1
   7697   7713     1
   7697   7714     1
   7697   7701     1
   7698   7700     1
   7698   7707     1
   7698   7703     1
   7698   7711     1
   7698   7709     1
   7698   7717     1
   7699   7704     1
   7699   7712     1
   7699   7711     1
   7700   7710     1
   7701   7712     1
   7701   7703     1
   7702   7705     1
   7702   7717     1
   7702   7704     1
   7702   7712     1
   7702   7707     1
   7702   7703     1
   7703   7706     1
   7703   7710     1
   7703   7708     1
   7704   7706     1
   7713   7716     1
   7713   7717     1
   7714   7716     1
   7714   7717     1
   7718   7726     1
   7718   7734     1
   7718   7739     1
   7718   7727     1
   7719   7736     1
   7719   7737     1
   7719   7725     1
   7719   7733     1
   7720   7722     1
   7720   7731     1
   7720   7721     1
   7720   7738     1
   7720   7736     1
   7720   7737     1
   7720   7724     1
   7721   7732     1
   7721   7740     1
   7721   7723     1
   7721   7730     1
   7721   7726     1
   7721   7734     1
   7722   7734     1
   7722   7727     1
   7722   7735     1
   7723   7733     1
   7724   7726     1
   7724   7735     1
   7725   7730     1
   7725   7726     1
   7725   7728     1
   7725   7740     1
   7725   7727     1
   7725   7735     1
   7726   7731     1
   7726   7729     1
   7726   7733     1
   7727   7729     1
   7736   7740     1
   7736   7739     1
   7737   7740     1
   7737   7739     1
   7741   7749     1
   7741   7757     1
   7741   7762     1
   7741   7750     1
   7742   7748     1
   7742   7756     1
   7742   7759     1
   7742   7760     1
   7743   7745     1
   7743   7754     1
   7743   7744     1
   7743   7761     1
   7743   7759     1
   7743   7760     1
   7743   7747     1
   7744   7746     1
   7744   7753     1
   7744   7749     1
   7744   7757     1
   7744   7755     1
   7744   7763     1
   7745   7750     1
   7745   7758     1
   7745   7757     1
   7746   7756     1
   7747   7758     1
   7747   7749     1
   7748   7751     1
   7748   7763     1
   7748   7750     1
   7748   7758     1
   7748   7753     1
   7748   7749     1
   7749   7752     1
   7749   7756     1
   7749   7754     1
   7750   7752     1
   7759   7762     1
   7759   7763     1
   7760   7762     1
   7760   7763     1
   7764   7772     1
   7764   7780     1
   7764   7785     1
   7764   7773     1
   7765   7782     1
   7765   7783     1
   7765   7771     1
   7765   7779     1
   7766   7768     1
   7766   7777     1
   7766   7767     1
   7766   7784     1
   7766   7782     1
   7766   7783     1
   7766   7770     1
   7767   7778     1
   7767   7786     1
   7767   7769     1
   7767   7776     1
   7767   7772     1
   7767   7780     1
   7768   7780     1
   7768   7773     1
   7768   7781     1
   7769   7779     1
   7770   7772     1
   7770   7781     1
   7771   7776     1
   7771   7772     1
   7771   7774     1
   7771   7786     1
   7771   7773     1
   7771   7781     1
   7772   7777     1
   7772   7775     1
   7772   7779     1
   7773   7775     1
   7782   7786     1
   7782   7785     1
   7783   7786     1
   7783   7785     1
   7787   7795     1
   7787   7803     1
   7787   7808     1
   7787   7796     1
   7788   7794     1
   7788   7802     1
   7788   7805     1
   7788   7806     1
   7789   7791     1
   7789   7800     1
   7789   7790     1
   7789   7807     1
   7789   7805     1
   7789   7806     1
   7789   7793     1
   7790   7792     1
   7790   7799     1
   7790   7795     1
   7790   7803     1
   7790   7801     1
   7790   7809     1
   7791   7796     1
   7791   7804     1
   7791   7803     1
   7792   7802     1
   7793   7804     1
   7793   7795     1
   7794   7797     1
   7794   7809     1
   7794   7796     1
   7794   7804     1
   7794   7799     1
   7794   7795     1
   7795   7798     1
   7795   7802     1
   7795   7800     1
   7796   7798     1
   7805   7808     1
   7805   7809     1
   7806   7808     1
   7806   7809     1
   7810   7818     1
   7810   7826     1
   7810   7831     1
   7810   7819     1
   7811   7828     1
   7811   7829     1
   7811   7817     1
   7811   7825     1
   7812   7814     1
   7812   7823     1
   7812   7813     1
   7812   7830     1
   7812   7828     1
   7812   7829     1
   7812   7816     1
   7813   7824     1
   7813   7832     1
   7813   7815     1
   7813   7822     1
   7813   7818     1
   7813   7826     1
   7814   7826     1
   7814   7819     1
   7814   7827     1
   7815   7825     1
   7816   7818     1
   7816   7827     1
   7817   7822     1
   7817   7818     1
   7817   7820     1
   7817   7832     1
   7817   7819     1
   7817   7827     1
   7818   7823     1
   7818   7821     1
   7818   7825     1
   7819   7821     1
   7828   7832     1
   7828   7831     1
   7829   7832     1
   7829   7831     1
   7833   7841     1
   7833   7849     1
   7833   7854     1
   7833   7842     1
   7834   7840     1
   7834   7848     1
   7834   7851     1
   7834   7852     1
   7835   7837     1
   7835   7846     1
   7835   7836     1
   7835   7853     1
   7835   7851     1
   7835   7852     1
   7835   7839     1
   7836   7838     1
   7836   7845     1
   7836   7841     1
   7836   7849     1
   7836   7847     1
   7836   7855     1
   7837   7842     1
   7837   7850     1
   7837   7849     1
   7838   7848     1
   7839   7850     1
   7839   7841     1
   7840   7843     1
   7840   7855     1
   7840   7842     1
   7840   7850     1
   7840   7845     1
   7840   7841     1
   7841   7844     1
   7841   7848     1
   7841   7846     1
   7842   7844     1
   7851   7854     1
   7851   7855     1
   7852   7854     1
   7852   7855     1
   7856   7864     1
   7856   7872     1
   7856   7877     1
   7856   7865     1
   7857   7874     1
   7857   7875     1
   7857   7863     1
   7857   7871     1
   7858   7860     1
   7858   7869     1
   7858   7859     1
   7858   7876     1
   7858   7874     1
   7858   7875     1
   7858   7862     1
   7859   7870     1
   7859   7878     1
   7859   7861     1
   7859   7868     1
   7859   7864     1
   7859   7872     1
   7860   7872     1
   7860   7865     1
   7860   7873     1
   7861   7871     1
   7862   7864     1
   7862   7873     1
   7863   7868     1
   7863   7864     1
   7863   7866     1
   7863   7878     1
   7863   7865     1
   7863   7873     1
   7864   7869     1
   7864   7867     1
   7864   7871     1
   7865   7867     1
   7874   7878     1
   7874   7877     1
   7875   7878     1
   7875   7877     1
   7879   7887     1
   7879   7895     1
   7879   7900     1
   7879   7888     1
   7880   7886     1
   7880   7894     1
   7880   7897     1
   7880   7898     1
   7881   7883     1
   7881   7892     1
   7881   7882     1
   7881   7899     1
   7881   7897     1
   7881   7898     1
   7881   7885     1
   7882   7884     1
   7882   7891     1
   7882   7887     1
   7882   7895     1
   7882   7893     1
   7882   7901     1
   7883   7888     1
   7883   7896     1
   7883   7895     1
   7884   7894     1
   7885   7896     1
   7885   7887     1
   7886   7889     1
   7886   7901     1
   7886   7888     1
   7886   7896     1
   7886   7891     1
   7886   7887     1
   7887   7890     1
   7887   7894     1
   7887   7892     1
   7888   7890     1
   7897   7900     1
   7897   7901     1
   7898   7900     1
   7898   7901     1
   7902   7910     1
   7902   7918     1
   7902   7923     1
   7902   7911     1
   7903   7920     1
   7903   7921     1
   7903   7909     1
   7903   7917     1
   7904   7906     1
   7904   7915     1
   7904   7905     1
   7904   7922     1
   7904   7920     1
   7904   7921     1
   7904   7908     1
   7905   7916     1
   7905   7924     1
   7905   7907     1
   7905   7914     1
   7905   7910     1
   7905   7918     1
   7906   7918     1
   7906   7911     1
   7906   7919     1
   7907   7917     1
   7908   7910     1
   7908   7919     1
   7909   7914     1
   7909   7910     1
   7909   7912     1
   7909   7924     1
   7909   7911     1
   7909   7919     1
   7910   7915     1
   7910   7913     1
   7910   7917     1
   7911   7913     1
   7920   7924     1
   7920   7923     1
   7921   7924     1
   7921   7923     1
   7925   7933     1
   7925   7941     1
   7925   7946     1
   7925   7934     1
   7926   7932     1
   7926   7940     1
   7926   7943     1
   7926   7944     1
   7927   7929     1
   7927   7938     1
   7927   7928     1
   7927   7945     1
   7927   7943     1
   7927   7944     1
   7927   7931     1
   7928   7930     1
   7928   7937     1
   7928   7933     1
   7928   7941     1
   7928   7939     1
   7928   7947     1
   7929   7934     1
   7929   7942     1
   7929   7941     1
   7930   7940     1
   7931   7942     1
   7931   7933     1
   7932   7935     1
   7932   7947     1
   7932   7934     1
   7932   7942     1
   7932   7937     1
   7932   7933     1
   7933   7936     1
   7933   7940     1
   7933   7938     1
   7934   7936     1
   7943   7946     1
   7943   7947     1
   7944   7946     1
   7944   7947     1
   7948   7956     1
   7948   7964     1
   7948   7969     1
   7948   7957     1
   7949   7966     1
   7949   7967     1
   7949   7955     1
   7949   7963     1
   7950   7952     1
   7950   7961     1
   7950   7951     1
   7950   7968     1
   7950   7966     1
   7950   7967     1
   7950   7954     1
   7951   7962     1
   7951   7970     1
   7951   7953     1
   7951   7960     1
   7951   7956     1
   7951   7964     1
   7952   7964     1
   7952   7957     1
   7952   7965     1
   7953   7963     1
   7954   7956     1
   7954   7965     1
   7955   7960     1
   7955   7956     1
   7955   7958     1
   7955   7970     1
   7955   7957     1
   7955   7965     1
   7956   7961     1
   7956   7959     1
   7956   7963     1
   7957   7959     1
   7966   7970     1
   7966   7969     1
   7967   7970     1
   7967   7969     1
   7971   7979     1
   7971   7987     1
   7971   7992     1
   7971   7980     1
   7972   7978     1
   7972   7986     1
   7972   7989     1
   7972   7990     1
   7973   7975     1
   7973   7984     1
   7973   7974     1
   7973   7991     1
   7973   7989     1
   7973   7990     1
   7973   7977     1
   7974   7976     1
   7974   7983     1
   7974   7979     1
   7974   7987     1
   7974   7985     1
   7974   7993     1
   7975   7980     1
   7975   7988     1
   7975   7987     1
   7976   7986     1
   7977   7988     1
   7977   7979     1
   7978   7981     1
   7978   7993     1
   7978   7980     1
   7978   7988     1
   7978   7983     1
   7978   7979     1
   7979   7982     1
   7979   7986     1
   7979   7984     1
   7980   7982     1
   7989   7992     1
   7989   7993     1
   7990   7992     1
   7990   7993     1
   7994   8002     1
   7994   8010     1
   7994   8015     1
   7994   8003     1
   7995   8012     1
   7995   8013     1
   7995   8001     1
   7995   8009     1
   7996   7998     1
   7996   8007     1
   7996   7997     1
   7996   8014     1
   7996   8012     1
   7996   8013     1
   7996   8000     1
   7997   8008     1
   7997   8016     1
   7997   7999     1
   7997   8006     1
   7997   8002     1
   7997   8010     1
   7998   8010     1
   7998   8003     1
   7998   8011     1
   7999   8009     1
   8000   8002     1
   8000   8011     1
   8001   8006     1
   8001   8002     1
   8001   8004     1
   8001   8016     1
   8001   8003     1
   8001   8011     1
   8002   8007     1
   8002   8005     1
   8002   8009     1
   8003   8005     1
   8012   8016     1
   8012   8015     1
   8013   8016     1
   8013   8015     1
   8017   8025     1
   8017   8033     1
   8017   8038     1
   8017   8026     1
   8018   8024     1
   8018   8032     1
   8018   8035     1
   8018   8036     1
   8019   8021     1
   8019   8030     1
   8019   8020     1
   8019   8037     1
   8019   8035     1
   8019   8036     1
   8019   8023     1
   8020   8022     1
   8020   8029     1
   8020   8025     1
   8020   8033     1
   8020   8031     1
   8020   8039     1
   8021   8026     1
   8021   8034     1
   8021   8033     1
   8022   8032     1
   8023   8034     1
   8023   8025     1
   8024   8027     1
   8024   8039     1
   8024   8026     1
   8024   8034     1
   8024   8029     1
   8024   8025     1
   8025   8028     1
   8025   8032     1
   8025   8030     1
   8026   8028     1
   8035   8038     1
   8035   8039     1
   8036   8038     1
   8036   8039     1
   8040   8048     1
   8040   8056     1
   8040   8061     1
   8040   8049     1
   8041   8058     1
   8041   8059     1
   8041   8047     1
   8041   8055     1
   8042   8044     1
   8042   8053     1
   8042   8043     1
   8042   8060     1
   8042   8058     1
   8042   8059     1
   8042   8046     1
   8043   8054     1
   8043   8062     1
   8043   8045     1
   8043   8052     1
   8043   8048     1
   8043   8056     1
   8044   8056     1
   8044   8049     1
   8044   8057     1
   8045   8055     1
   8046   8048     1
   8046   8057     1
   8047   8052     1
   8047   8048     1
   8047   8050     1
   8047   8062     1
   8047   8049     1
   8047   8057     1
   8048   8053     1
   8048   8051     1
   8048   8055     1
   8049   8051     1
   8058   8062     1
   8058   8061     1
   8059   8062     1
   8059   8061     1
   8063   8071     1
   8063   8079     1
   8063   8084     1
   8063   8072     1
   8064   8070     1
   8064   8078     1
   8064   8081     1
   8064   8082     1
   8065   8067     1
   8065   8076     1
   8065   8066     1
   8065   8083     1
   8065   8081     1
   8065   8082     1
   8065   8069     1
   8066   8068     1
   8066   8075     1
   8066   8071     1
   8066   8079     1
   8066   8077     1
   8066   8085     1
   8067   8072     1
   8067   8080     1
   8067   8079     1
   8068   8078     1
   8069   8080     1
   8069   8071     1
   8070   8073     1
   8070   8085     1
   8070   8072     1
   8070   8080     1
   8070   8075     1
   8070   8071     1
   8071   8074     1
   8071   8078     1
   8071   8076     1
   8072   8074     1
   8081   8084     1
   8081   8085     1
   8082   8084     1
   8082   8085     1
   8086   8094     1
   8086   8102     1
   8086   8107     1
   8086   8095     1
   8087   8104     1
   8087   8105     1
   8087   8093     1
   8087   8101     1
   8088   8090     1
   8088   8099     1
   8088   8089     1
   8088   8106     1
   8088   8104     1
   8088   8105     1
   8088   8092     1
   8089   8100     1
   8089   8108     1
   8089   8091     1
   8089   8098     1
   8089   8094     1
   8089   8102     1
   8090   8102     1
   8090   8095     1
   8090   8103     1
   8091   8101     1
   8092   8094     1
   8092   8103     1
   8093   8098     1
   8093   8094     1
   8093   8096     1
   8093   8108     1
   8093   8095     1
   8093   8103     1
   8094   8099     1
   8094   8097     1
   8094   8101     1
   8095   8097     1
   8104   8108     1
   8104   8107     1
   8105   8108     1
   8105   8107     1
   8109   8117     1
   8109   8125     1
   8109   8130     1
   8109   8118     1
   8110   8116     1
   8110   8124     1
   8110   8127     1
   8110   8128     1
   8111   8113     1
   8111   8122     1
   8111   8112     1
   8111   8129     1
   8111   8127     1
   8111   8128     1
   8111   8115     1
   8112   8114     1
   8112   8121     1
   8112   8117     1
   8112   8125     1
   8112   8123     1
   8112   8131     1
   8113   8118     1
   8113   8126     1
   8113   8125     1
   8114   8124     1
   8115   8126     1
   8115   8117     1
   8116   8119     1
   8116   8131     1
   8116   8118     1
   8116   8126     1
   8116   8121     1
   8116   8117     1
   8117   8120     1
   8117   8124     1
   8117   8122     1
   8118   8120     1
   8127   8130     1
   8127   8131     1
   8128   8130     1
   8128   8131     1
   8132   8140     1
   8132   8148     1
   8132   8153     1
   8132   8141     1
   8133   8150     1
   8133   8151     1
   8133   8139     1
   8133   8147     1
   8134   8136     1
   8134   8145     1
   8134   8135     1
   8134   8152     1
   8134   8150     1
   8134   8151     1
   8134   8138     1
   8135   8146     1
   8135   8154     1
   8135   8137     1
   8135   8144     1
   8135   8140     1
   8135   8148     1
   8136   8148     1
   8136   8141     1
   8136   8149     1
   8137   8147     1
   8138   8140     1
   8138   8149     1
   8139   8144     1
   8139   8140     1
   8139   8142     1
   8139   8154     1
   8139   8141     1
   8139   8149     1
   8140   8145     1
   8140   8143     1
   8140   8147     1
   8141   8143     1
   8150   8154     1
   8150   8153     1
   8151   8154     1
   8151   8153     1
   8155   8163     1
   8155   8171     1
   8155   8176     1
   8155   8164     1
   8156   8162     1
   8156   8170     1
   8156   8173     1
   8156   8174     1
   8157   8159     1
   8157   8168     1
   8157   8158     1
   8157   8175     1
   8157   8173     1
   8157   8174     1
   8157   8161     1
   8158   8160     1
   8158   8167     1
   8158   8163     1
   8158   8171     1
   8158   8169     1
   8158   8177     1
   8159   8164     1
   8159   8172     1
   8159   8171     1
   8160   8170     1
   8161   8172     1
   8161   8163     1
   8162   8165     1
   8162   8177     1
   8162   8164     1
   8162   8172     1
   8162   8167     1
   8162   8163     1
   8163   8166     1
   8163   8170     1
   8163   8168     1
   8164   8166     1
   8173   8176     1
   8173   8177     1
   8174   8176     1
   8174   8177     1
   8178   8186     1
   8178   8194     1
   8178   8199     1
   8178   8187     1
   8179   8196     1
   8179   8197     1
   8179   8185     1
   8179   8193     1
   8180   8182     1
   8180   8191     1
   8180   8181     1
   8180   8198     1
   8180   8196     1
   8180   8197     1
   8180   8184     1
   8181   8192     1
   8181   8200     1
   8181   8183     1
   8181   8190     1
   8181   8186     1
   8181   8194     1
   8182   8194     1
   8182   8187     1
   8182   8195     1
   8183   8193     1
   8184   8186     1
   8184   8195     1
   8185   8190     1
   8185   8186     1
   8185   8188     1
   8185   8200     1
   8185   8187     1
   8185   8195     1
   8186   8191     1
   8186   8189     1
   8186   8193     1
   8187   8189     1
   8196   8200     1
   8196   8199     1
   8197   8200     1
   8197   8199     1
   8201   8209     1
   8201   8217     1
   8201   8222     1
   8201   8210     1
   8202   8208     1
   8202   8216     1
   8202   8219     1
   8202   8220     1
   8203   8205     1
   8203   8214     1
   8203   8204     1
   8203   8221     1
   8203   8219     1
   8203   8220     1
   8203   8207     1
   8204   8206     1
   8204   8213     1
   8204   8209     1
   8204   8217     1
   8204   8215     1
   8204   8223     1
   8205   8210     1
   8205   8218     1
   8205   8217     1
   8206   8216     1
   8207   8218     1
   8207   8209     1
   8208   8211     1
   8208   8223     1
   8208   8210     1
   8208   8218     1
   8208   8213     1
   8208   8209     1
   8209   8212     1
   8209   8216     1
   8209   8214     1
   8210   8212     1
   8219   8222     1
   8219   8223     1
   8220   8222     1
   8220   8223     1
   8224   8232     1
   8224   8240     1
   8224   8245     1
   8224   8233     1
   8225   8242     1
   8225   8243     1
   8225   8231     1
   8225   8239     1
   8226   8228     1
   8226   8237     1
   8226   8227     1
   8226   8244     1
   8226   8242     1
   8226   8243     1
   8226   8230     1
   8227   8238     1
   8227   8246     1
   8227   8229     1
   8227   8236     1
   8227   8232     1
   8227   8240     1
   8228   8240     1
   8228   8233     1
   8228   8241     1
   8229   8239     1
   8230   8232     1
   8230   8241     1
   8231   8236     1
   8231   8232     1
   8231   8234     1
   8231   8246     1
   8231   8233     1
   8231   8241     1
   8232   8237     1
   8232   8235     1
   8232   8239     1
   8233   8235     1
   8242   8246     1
   8242   8245     1
   8243   8246     1
   8243   8245     1
   8247   8255     1
   8247   8263     1
   8247   8268     1
   8247   8256     1
   8248   8254     1
   8248   8262     1
   8248   8265     1
   8248   8266     1
   8249   8251     1
   8249   8260     1
   8249   8250     1
   8249   8267     1
   8249   8265     1
   8249   8266     1
   8249   8253     1
   8250   8252     1
   8250   8259     1
   8250   8255     1
   8250   8263     1
   8250   8261     1
   8250   8269     1
   8251   8256     1
   8251   8264     1
   8251   8263     1
   8252   8262     1
   8253   8264     1
   8253   8255     1
   8254   8257     1
   8254   8269     1
   8254   8256     1
   8254   8264     1
   8254   8259     1
   8254   8255     1
   8255   8258     1
   8255   8262     1
   8255   8260     1
   8256   8258     1
   8265   8268     1
   8265   8269     1
   8266   8268     1
   8266   8269     1
   8270   8278     1
   8270   8286     1
   8270   8291     1
   8270   8279     1
   8271   8288     1
   8271   8289     1
   8271   8277     1
   8271   8285     1
   8272   8274     1
   8272   8283     1
   8272   8273     1
   8272   8290     1
   8272   8288     1
   8272   8289     1
   8272   8276     1
   8273   8284     1
   8273   8292     1
   8273   8275     1
   8273   8282     1
   8273   8278     1
   8273   8286     1
   8274   8286     1
   8274   8279     1
   8274   8287     1
   8275   8285     1
   8276   8278     1
   8276   8287     1
   8277   8282     1
   8277   8278     1
   8277   8280     1
   8277   8292     1
   8277   8279     1
   8277   8287     1
   8278   8283     1
   8278   8281     1
   8278   8285     1
   8279   8281     1
   8288   8292     1
   8288   8291     1
   8289   8292     1
   8289   8291     1
   8293   8301     1
   8293   8309     1
   8293   8314     1
   8293   8302     1
   8294   8300     1
   8294   8308     1
   8294   8311     1
   8294   8312     1
   8295   8297     1
   8295   8306     1
   8295   8296     1
   8295   8313     1
   8295   8311     1
   8295   8312     1
   8295   8299     1
   8296   8298     1
   8296   8305     1
   8296   8301     1
   8296   8309     1
   8296   8307     1
   8296   8315     1
   8297   8302     1
   8297   8310     1
   8297   8309     1
   8298   8308     1
   8299   8310     1
   8299   8301     1
   8300   8303     1
   8300   8315     1
   8300   8302     1
   8300   8310     1
   8300   8305     1
   8300   8301     1
   8301   8304     1
   8301   8308     1
   8301   8306     1
   8302   8304     1
   8311   8314     1
   8311   8315     1
   8312   8314     1
   8312   8315     1
   8316   8324     1
   8316   8332     1
   8316   8337     1
   8316   8325     1
   8317   8334     1
   8317   8335     1
   8317   8323     1
   8317   8331     1
   8318   8320     1
   8318   8329     1
   8318   8319     1
   8318   8336     1
   8318   8334     1
   8318   8335     1
   8318   8322     1
   8319   8330     1
   8319   8338     1
   8319   8321     1
   8319   8328     1
   8319   8324     1
   8319   8332     1
   8320   8332     1
   8320   8325     1
   8320   8333     1
   8321   8331     1
   8322   8324     1
   8322   8333     1
   8323   8328     1
   8323   8324     1
   8323   8326     1
   8323   8338     1
   8323   8325     1
   8323   8333     1
   8324   8329     1
   8324   8327     1
   8324   8331     1
   8325   8327     1
   8334   8338     1
   8334   8337     1
   8335   8338     1
   8335   8337     1
   8339   8347     1
   8339   8355     1
   8339   8360     1
   8339   8348     1
   8340   8346     1
   8340   8354     1
   8340   8357     1
   8340   8358     1
   8341   8343     1
   8341   8352     1
   8341   8342     1
   8341   8359     1
   8341   8357     1
   8341   8358     1
   8341   8345     1
   8342   8344     1
   8342   8351     1
   8342   8347     1
   8342   8355     1
   8342   8353     1
   8342   8361     1
   8343   8348     1
   8343   8356     1
   8343   8355     1
   8344   8354     1
   8345   8356     1
   8345   8347     1
   8346   8349     1
   8346   8361     1
   8346   8348     1
   8346   8356     1
   8346   8351     1
   8346   8347     1
   8347   8350     1
   8347   8354     1
   8347   8352     1
   8348   8350     1
   8357   8360     1
   8357   8361     1
   8358   8360     1
   8358   8361     1
   8362   8370     1
   8362   8378     1
   8362   8383     1
   8362   8371     1
   8363   8380     1
   8363   8381     1
   8363   8369     1
   8363   8377     1
   8364   8366     1
   8364   8375     1
   8364   8365     1
   8364   8382     1
   8364   8380     1
   8364   8381     1
   8364   8368     1
   8365   8376     1
   8365   8384     1
   8365   8367     1
   8365   8374     1
   8365   8370     1
   8365   8378     1
   8366   8378     1
   8366   8371     1
   8366   8379     1
   8367   8377     1
   8368   8370     1
   8368   8379     1
   8369   8374     1
   8369   8370     1
   8369   8372     1
   8369   8384     1
   8369   8371     1
   8369   8379     1
   8370   8375     1
   8370   8373     1
   8370   8377     1
   8371   8373     1
   8380   8384     1
   8380   8383     1
   8381   8384     1
   8381   8383     1
   8385   8393     1
   8385   8401     1
   8385   8406     1
   8385   8394     1
   8386   8392     1
   8386   8400     1
   8386   8403     1
   8386   8404     1
   8387   8389     1
   8387   8398     1
   8387   8388     1
   8387   8405     1
   8387   8403     1
   8387   8404     1
   8387   8391     1
   8388   8390     1
   8388   8397     1
   8388   8393     1
   8388   8401     1
   8388   8399     1
   8388   8407     1
   8389   8394     1
   8389   8402     1
   8389   8401     1
   8390   8400     1
   8391   8402     1
   8391   8393     1
   8392   8395     1
   8392   8407     1
   8392   8394     1
   8392   8402     1
   8392   8397     1
   8392   8393     1
   8393   8396     1
   8393   8400     1
   8393   8398     1
   8394   8396     1
   8403   8406     1
   8403   8407     1
   8404   8406     1
   8404   8407     1
   8408   8416     1
   8408   8424     1
   8408   8429     1
   8408   8417     1
   8409   8426     1
   8409   8427     1
   8409   8415     1
   8409   8423     1
   8410   8412     1
   8410   8421     1
   8410   8411     1
   8410   8428     1
   8410   8426     1
   8410   8427     1
   8410   8414     1
   8411   8422     1
   8411   8430     1
   8411   8413     1
   8411   8420     1
   8411   8416     1
   8411   8424     1
   8412   8424     1
   8412   8417     1
   8412   8425     1
   8413   8423     1
   8414   8416     1
   8414   8425     1
   8415   8420     1
   8415   8416     1
   8415   8418     1
   8415   8430     1
   8415   8417     1
   8415   8425     1
   8416   8421     1
   8416   8419     1
   8416   8423     1
   8417   8419     1
   8426   8430     1
   8426   8429     1
   8427   8430     1
   8427   8429     1
   8431   8439     1
   8431   8447     1
   8431   8452     1
   8431   8440     1
   8432   8438     1
   8432   8446     1
   8432   8449     1
   8432   8450     1
   8433   8435     1
   8433   8444     1
   8433   8434     1
   8433   8451     1
   8433   8449     1
   8433   8450     1
   8433   8437     1
   8434   8436     1
   8434   8443     1
   8434   8439     1
   8434   8447     1
   8434   8445     1
   8434   8453     1
   8435   8440     1
   8435   8448     1
   8435   8447     1
   8436   8446     1
   8437   8448     1
   8437   8439     1
   8438   8441     1
   8438   8453     1
   8438   8440     1
   8438   8448     1
   8438   8443     1
   8438   8439     1
   8439   8442     1
   8439   8446     1
   8439   8444     1
   8440   8442     1
   8449   8452     1
   8449   8453     1
   8450   8452     1
   8450   8453     1
   8454   8462     1
   8454   8470     1
   8454   8475     1
   8454   8463     1
   8455   8472     1
   8455   8473     1
   8455   8461     1
   8455   8469     1
   8456   8458     1
   8456   8467     1
   8456   8457     1
   8456   8474     1
   8456   8472     1
   8456   8473     1
   8456   8460     1
   8457   8468     1
   8457   8476     1
   8457   8459     1
   8457   8466     1
   8457   8462     1
   8457   8470     1
   8458   8470     1
   8458   8463     1
   8458   8471     1
   8459   8469     1
   8460   8462     1
   8460   8471     1
   8461   8466     1
   8461   8462     1
   8461   8464     1
   8461   8476     1
   8461   8463     1
   8461   8471     1
   8462   8467     1
   8462   8465     1
   8462   8469     1
   8463   8465     1
   8472   8476     1
   8472   8475     1
   8473   8476     1
   8473   8475     1
   8477   8485     1
   8477   8493     1
   8477   8498     1
   8477   8486     1
   8478   8484     1
   8478   8492     1
   8478   8495     1
   8478   8496     1
   8479   8481     1
   8479   8490     1
   8479   8480     1
   8479   8497     1
   8479   8495     1
   8479   8496     1
   8479   8483     1
   8480   8482     1
   8480   8489     1
   8480   8485     1
   8480   8493     1
   8480   8491     1
   8480   8499     1
   8481   8486     1
   8481   8494     1
   8481   8493     1
   8482   8492     1
   8483   8494     1
   8483   8485     1
   8484   8487     1
   8484   8499     1
   8484   8486     1
   8484   8494     1
   8484   8489     1
   8484   8485     1
   8485   8488     1
   8485   8492     1
   8485   8490     1
   8486   8488     1
   8495   8498     1
   8495   8499     1
   8496   8498     1
   8496   8499     1
   8500   8508     1
   8500   8516     1
   8500   8521     1
   8500   8509     1
   8501   8518     1
   8501   8519     1
   8501   8507     1
   8501   8515     1
   8502   8504     1
   8502   8513     1
   8502   8503     1
   8502   8520     1
   8502   8518     1
   8502   8519     1
   8502   8506     1
   8503   8514     1
   8503   8522     1
   8503   8505     1
   8503   8512     1
   8503   8508     1
   8503   8516     1
   8504   8516     1
   8504   8509     1
   8504   8517     1
   8505   8515     1
   8506   8508     1
   8506   8517     1
   8507   8512     1
   8507   8508     1
   8507   8510     1
   8507   8522     1
   8507   8509     1
   8507   8517     1
   8508   8513     1
   8508   8511     1
   8508   8515     1
   8509   8511     1
   8518   8522     1
   8518   8521     1
   8519   8522     1
   8519   8521     1
   8523   8531     1
   8523   8539     1
   8523   8544     1
   8523   8532     1
   8524   8530     1
   8524   8538     1
   8524   8541     1
   8524   8542     1
   8525   8527     1
   8525   8536     1
   8525   8526     1
   8525   8543     1
   8525   8541     1
   8525   8542     1
   8525   8529     1
   8526   8528     1
   8526   8535     1
   8526   8531     1
   8526   8539     1
   8526   8537     1
   8526   8545     1
   8527   8532     1
   8527   8540     1
   8527   8539     1
   8528   8538     1
   8529   8540     1
   8529   8531     1
   8530   8533     1
   8530   8545     1
   8530   8532     1
   8530   8540     1
   8530   8535     1
   8530   8531     1
   8531   8534     1
   8531   8538     1
   8531   8536     1
   8532   8534     1
   8541   8544     1
   8541   8545     1
   8542   8544     1
   8542   8545     1
   8546   8554     1
   8546   8562     1
   8546   8567     1
   8546   8555     1
   8547   8564     1
   8547   8565     1
   8547   8553     1
   8547   8561     1
   8548   8550     1
   8548   8559     1
   8548   8549     1
   8548   8566     1
   8548   8564     1
   8548   8565     1
   8548   8552     1
   8549   8560     1
   8549   8568     1
   8549   8551     1
   8549   8558     1
   8549   8554     1
   8549   8562     1
   8550   8562     1
   8550   8555     1
   8550   8563     1
   8551   8561     1
   8552   8554     1
   8552   8563     1
   8553   8558     1
   8553   8554     1
   8553   8556     1
   8553   8568     1
   8553   8555     1
   8553   8563     1
   8554   8559     1
   8554   8557     1
   8554   8561     1
   8555   8557     1
   8564   8568     1
   8564   8567     1
   8565   8568     1
   8565   8567     1
   8569   8577     1
   8569   8585     1
   8569   8590     1
   8569   8578     1
   8570   8576     1
   8570   8584     1
   8570   8587     1
   8570   8588     1
   8571   8573     1
   8571   8582     1
   8571   8572     1
   8571   8589     1
   8571   8587     1
   8571   8588     1
   8571   8575     1
   8572   8574     1
   8572   8581     1
   8572   8577     1
   8572   8585     1
   8572   8583     1
   8572   8591     1
   8573   8578     1
   8573   8586     1
   8573   8585     1
   8574   8584     1
   8575   8586     1
   8575   8577     1
   8576   8579     1
   8576   8591     1
   8576   8578     1
   8576   8586     1
   8576   8581     1
   8576   8577     1
   8577   8580     1
   8577   8584     1
   8577   8582     1
   8578   8580     1
   8587   8590     1
   8587   8591     1
   8588   8590     1
   8588   8591     1
   8592   8600     1
   8592   8608     1
   8592   8613     1
   8592   8601     1
   8593   8610     1
   8593   8611     1
   8593   8599     1
   8593   8607     1
   8594   8596     1
   8594   8605     1
   8594   8595     1
   8594   8612     1
   8594   8610     1
   8594   8611     1
   8594   8598     1
   8595   8606     1
   8595   8614     1
   8595   8597     1
   8595   8604     1
   8595   8600     1
   8595   8608     1
   8596   8608     1
   8596   8601     1
   8596   8609     1
   8597   8607     1
   8598   8600     1
   8598   8609     1
   8599   8604     1
   8599   8600     1
   8599   8602     1
   8599   8614     1
   8599   8601     1
   8599   8609     1
   8600   8605     1
   8600   8603     1
   8600   8607     1
   8601   8603     1
   8610   8614     1
   8610   8613     1
   8611   8614     1
   8611   8613     1
   8615   8623     1
   8615   8631     1
   8615   8636     1
   8615   8624     1
   8616   8622     1
   8616   8630     1
   8616   8633     1
   8616   8634     1
   8617   8619     1
   8617   8628     1
   8617   8618     1
   8617   8635     1
   8617   8633     1
   8617   8634     1
   8617   8621     1
   8618   8620     1
   8618   8627     1
   8618   8623     1
   8618   8631     1
   8618   8629     1
   8618   8637     1
   8619   8624     1
   8619   8632     1
   8619   8631     1
   8620   8630     1
   8621   8632     1
   8621   8623     1
   8622   8625     1
   8622   8637     1
   8622   8624     1
   8622   8632     1
   8622   8627     1
   8622   8623     1
   8623   8626     1
   8623   8630     1
   8623   8628     1
   8624   8626     1
   8633   8636     1
   8633   8637     1
   8634   8636     1
   8634   8637     1
   8638   8646     1
   8638   8654     1
   8638   8659     1
   8638   8647     1
   8639   8656     1
   8639   8657     1
   8639   8645     1
   8639   8653     1
   8640   8642     1
   8640   8651     1
   8640   8641     1
   8640   8658     1
   8640   8656     1
   8640   8657     1
   8640   8644     1
   8641   8652     1
   8641   8660     1
   8641   8643     1
   8641   8650     1
   8641   8646     1
   8641   8654     1
   8642   8654     1
   8642   8647     1
   8642   8655     1
   8643   8653     1
   8644   8646     1
   8644   8655     1
   8645   8650     1
   8645   8646     1
   8645   8648     1
   8645   8660     1
   8645   8647     1
   8645   8655     1
   8646   8651     1
   8646   8649     1
   8646   8653     1
   8647   8649     1
   8656   8660     1
   8656   8659     1
   8657   8660     1
   8657   8659     1
   8661   8669     1
   8661   8677     1
   8661   8682     1
   8661   8670     1
   8662   8668     1
   8662   8676     1
   8662   8679     1
   8662   8680     1
   8663   8665     1
   8663   8674     1
   8663   8664     1
   8663   8681     1
   8663   8679     1
   8663   8680     1
   8663   8667     1
   8664   8666     1
   8664   8673     1
   8664   8669     1
   8664   8677     1
   8664   8675     1
   8664   8683     1
   8665   8670     1
   8665   8678     1
   8665   8677     1
   8666   8676     1
   8667   8678     1
   8667   8669     1
   8668   8671     1
   8668   8683     1
   8668   8670     1
   8668   8678     1
   8668   8673     1
   8668   8669     1
   8669   8672     1
   8669   8676     1
   8669   8674     1
   8670   8672     1
   8679   8682     1
   8679   8683     1
   8680   8682     1
   8680   8683     1
   8684   8692     1
   8684   8700     1
   8684   8705     1
   8684   8693     1
   8685   8702     1
   8685   8703     1
   8685   8691     1
   8685   8699     1
   8686   8688     1
   8686   8697     1
   8686   8687     1
   8686   8704     1
   8686   8702     1
   8686   8703     1
   8686   8690     1
   8687   8698     1
   8687   8706     1
   8687   8689     1
   8687   8696     1
   8687   8692     1
   8687   8700     1
   8688   8700     1
   8688   8693     1
   8688   8701     1
   8689   8699     1
   8690   8692     1
   8690   8701     1
   8691   8696     1
   8691   8692     1
   8691   8694     1
   8691   8706     1
   8691   8693     1
   8691   8701     1
   8692   8697     1
   8692   8695     1
   8692   8699     1
   8693   8695     1
   8702   8706     1
   8702   8705     1
   8703   8706     1
   8703   8705     1
   8707   8715     1
   8707   8723     1
   8707   8728     1
   8707   8716     1
   8708   8714     1
   8708   8722     1
   8708   8725     1
   8708   8726     1
   8709   8711     1
   8709   8720     1
   8709   8710     1
   8709   8727     1
   8709   8725     1
   8709   8726     1
   8709   8713     1
   8710   8712     1
   8710   8719     1
   8710   8715     1
   8710   8723     1
   8710   8721     1
   8710   8729     1
   8711   8716     1
   8711   8724     1
   8711   8723     1
   8712   8722     1
   8713   8724     1
   8713   8715     1
   8714   8717     1
   8714   8729     1
   8714   8716     1
   8714   8724     1
   8714   8719     1
   8714   8715     1
   8715   8718     1
   8715   8722     1
   8715   8720     1
   8716   8718     1
   8725   8728     1
   8725   8729     1
   8726   8728     1
   8726   8729     1
   8730   8738     1
   8730   8746     1
   8730   8751     1
   8730   8739     1
   8731   8748     1
   8731   8749     1
   8731   8737     1
   8731   8745     1
   8732   8734     1
   8732   8743     1
   8732   8733     1
   8732   8750     1
   8732   8748     1
   8732   8749     1
   8732   8736     1
   8733   8744     1
   8733   8752     1
   8733   8735     1
   8733   8742     1
   8733   8738     1
   8733   8746     1
   8734   8746     1
   8734   8739     1
   8734   8747     1
   8735   8745     1
   8736   8738     1
   8736   8747     1
   8737   8742     1
   8737   8738     1
   8737   8740     1
   8737   8752     1
   8737   8739     1
   8737   8747     1
   8738   8743     1
   8738   8741     1
   8738   8745     1
   8739   8741     1
   8748   8752     1
   8748   8751     1
   8749   8752     1
   8749   8751     1
   8753   8761     1
   8753   8769     1
   8753   8774     1
   8753   8762     1
   8754   8760     1
   8754   8768     1
   8754   8771     1
   8754   8772     1
   8755   8757     1
   8755   8766     1
   8755   8756     1
   8755   8773     1
   8755   8771     1
   8755   8772     1
   8755   8759     1
   8756   8758     1
   8756   8765     1
   8756   8761     1
   8756   8769     1
   8756   8767     1
   8756   8775     1
   8757   8762     1
   8757   8770     1
   8757   8769     1
   8758   8768     1
   8759   8770     1
   8759   8761     1
   8760   8763     1
   8760   8775     1
   8760   8762     1
   8760   8770     1
   8760   8765     1
   8760   8761     1
   8761   8764     1
   8761   8768     1
   8761   8766     1
   8762   8764     1
   8771   8774     1
   8771   8775     1
   8772   8774     1
   8772   8775     1
   8776   8784     1
   8776   8792     1
   8776   8797     1
   8776   8785     1
   8777   8794     1
   8777   8795     1
   8777   8783     1
   8777   8791     1
   8778   8780     1
   8778   8789     1
   8778   8779     1
   8778   8796     1
   8778   8794     1
   8778   8795     1
   8778   8782     1
   8779   8790     1
   8779   8798     1
   8779   8781     1
   8779   8788     1
   8779   8784     1
   8779   8792     1
   8780   8792     1
   8780   8785     1
   8780   8793     1
   8781   8791     1
   8782   8784     1
   8782   8793     1
   8783   8788     1
   8783   8784     1
   8783   8786     1
   8783   8798     1
   8783   8785     1
   8783   8793     1
   8784   8789     1
   8784   8787     1
   8784   8791     1
   8785   8787     1
   8794   8798     1
   8794   8797     1
   8795   8798     1
   8795   8797     1
   8799   8807     1
   8799   8815     1
   8799   8820     1
   8799   8808     1
   8800   8806     1
   8800   8814     1
   8800   8817     1
   8800   8818     1
   8801   8803     1
   8801   8812     1
   8801   8802     1
   8801   8819     1
   8801   8817     1
   8801   8818     1
   8801   8805     1
   8802   8804     1
   8802   8811     1
   8802   8807     1
   8802   8815     1
   8802   8813     1
   8802   8821     1
   8803   8808     1
   8803   8816     1
   8803   8815     1
   8804   8814     1
   8805   8816     1
   8805   8807     1
   8806   8809     1
   8806   8821     1
   8806   8808     1
   8806   8816     1
   8806   8811     1
   8806   8807     1
   8807   8810     1
   8807   8814     1
   8807   8812     1
   8808   8810     1
   8817   8820     1
   8817   8821     1
   8818   8820     1
   8818   8821     1
   8822   8830     1
   8822   8838     1
   8822   8843     1
   8822   8831     1
   8823   8840     1
   8823   8841     1
   8823   8829     1
   8823   8837     1
   8824   8826     1
   8824   8835     1
   8824   8825     1
   8824   8842     1
   8824   8840     1
   8824   8841     1
   8824   8828     1
   8825   8836     1
   8825   8844     1
   8825   8827     1
   8825   8834     1
   8825   8830     1
   8825   8838     1
   8826   8838     1
   8826   8831     1
   8826   8839     1
   8827   8837     1
   8828   8830     1
   8828   8839     1
   8829   8834     1
   8829   8830     1
   8829   8832     1
   8829   8844     1
   8829   8831     1
   8829   8839     1
   8830   8835     1
   8830   8833     1
   8830   8837     1
   8831   8833     1
   8840   8844     1
   8840   8843     1
   8841   8844     1
   8841   8843     1
   8845   8853     1
   8845   8861     1
   8845   8866     1
   8845   8854     1
   8846   8852     1
   8846   8860     1
   8846   8863     1
   8846   8864     1
   8847   8849     1
   8847   8858     1
   8847   8848     1
   8847   8865     1
   8847   8863     1
   8847   8864     1
   8847   8851     1
   8848   8850     1
   8848   8857     1
   8848   8853     1
   8848   8861     1
   8848   8859     1
   8848   8867     1
   8849   8854     1
   8849   8862     1
   8849   8861     1
   8850   8860     1
   8851   8862     1
   8851   8853     1
   8852   8855     1
   8852   8867     1
   8852   8854     1
   8852   8862     1
   8852   8857     1
   8852   8853     1
   8853   8856     1
   8853   8860     1
   8853   8858     1
   8854   8856     1
   8863   8866     1
   8863   8867     1
   8864   8866     1
   8864   8867     1
   8868   8876     1
   8868   8884     1
   8868   8889     1
   8868   8877     1
   8869   8886     1
   8869   8887     1
   8869   8875     1
   8869   8883     1
   8870   8872     1
   8870   8881     1
   8870   8871     1
   8870   8888     1
   8870   8886     1
   8870   8887     1
   8870   8874     1
   8871   8882     1
   8871   8890     1
   8871   8873     1
   8871   8880     1
   8871   8876     1
   8871   8884     1
   8872   8884     1
   8872   8877     1
   8872   8885     1
   8873   8883     1
   8874   8876     1
   8874   8885     1
   8875   8880     1
   8875   8876     1
   8875   8878     1
   8875   8890     1
   8875   8877     1
   8875   8885     1
   8876   8881     1
   8876   8879     1
   8876   8883     1
   8877   8879     1
   8886   8890     1
   8886   8889     1
   8887   8890     1
   8887   8889     1
   8891   8899     1
   8891   8907     1
   8891   8912     1
   8891   8900     1
   8892   8898     1
   8892   8906     1
   8892   8909     1
   8892   8910     1
   8893   8895     1
   8893   8904     1
   8893   8894     1
   8893   8911     1
   8893   8909     1
   8893   8910     1
   8893   8897     1
   8894   8896     1
   8894   8903     1
   8894   8899     1
   8894   8907     1
   8894   8905     1
   8894   8913     1
   8895   8900     1
   8895   8908     1
   8895   8907     1
   8896   8906     1
   8897   8908     1
   8897   8899     1
   8898   8901     1
   8898   8913     1
   8898   8900     1
   8898   8908     1
   8898   8903     1
   8898   8899     1
   8899   8902     1
   8899   8906     1
   8899   8904     1
   8900   8902     1
   8909   8912     1
   8909   8913     1
   8910   8912     1
   8910   8913     1
   8914   8922     1
   8914   8930     1
   8914   8935     1
   8914   8923     1
   8915   8932     1
   8915   8933     1
   8915   8921     1
   8915   8929     1
   8916   8918     1
   8916   8927     1
   8916   8917     1
   8916   8934     1
   8916   8932     1
   8916   8933     1
   8916   8920     1
   8917   8928     1
   8917   8936     1
   8917   8919     1
   8917   8926     1
   8917   8922     1
   8917   8930     1
   8918   8930     1
   8918   8923     1
   8918   8931     1
   8919   8929     1
   8920   8922     1
   8920   8931     1
   8921   8926     1
   8921   8922     1
   8921   8924     1
   8921   8936     1
   8921   8923     1
   8921   8931     1
   8922   8927     1
   8922   8925     1
   8922   8929     1
   8923   8925     1
   8932   8936     1
   8932   8935     1
   8933   8936     1
   8933   8935     1
   8937   8945     1
   8937   8953     1
   8937   8958     1
   8937   8946     1
   8938   8944     1
   8938   8952     1
   8938   8955     1
   8938   8956     1
   8939   8941     1
   8939   8950     1
   8939   8940     1
   8939   8957     1
   8939   8955     1
   8939   8956     1
   8939   8943     1
   8940   8942     1
   8940   8949     1
   8940   8945     1
   8940   8953     1
   8940   8951     1
   8940   8959     1
   8941   8946     1
   8941   8954     1
   8941   8953     1
   8942   8952     1
   8943   8954     1
   8943   8945     1
   8944   8947     1
   8944   8959     1
   8944   8946     1
   8944   8954     1
   8944   8949     1
   8944   8945     1
   8945   8948     1
   8945   8952     1
   8945   8950     1
   8946   8948     1
   8955   8958     1
   8955   8959     1
   8956   8958     1
   8956   8959     1
   8960   8968     1
   8960   8976     1
   8960   8981     1
   8960   8969     1
   8961   8978     1
   8961   8979     1
   8961   8967     1
   8961   8975     1
   8962   8964     1
   8962   8973     1
   8962   8963     1
   8962   8980     1
   8962   8978     1
   8962   8979     1
   8962   8966     1
   8963   8974     1
   8963   8982     1
   8963   8965     1
   8963   8972     1
   8963   8968     1
   8963   8976     1
   8964   8976     1
   8964   8969     1
   8964   8977     1
   8965   8975     1
   8966   8968     1
   8966   8977     1
   8967   8972     1
   8967   8968     1
   8967   8970     1
   8967   8982     1
   8967   8969     1
   8967   8977     1
   8968   8973     1
   8968   8971     1
   8968   8975     1
   8969   8971     1
   8978   8982     1
   8978   8981     1
   8979   8982     1
   8979   8981     1
   8983   8991     1
   8983   8999     1
   8983   9004     1
   8983   8992     1
   8984   8990     1
   8984   8998     1
   8984   9001     1
   8984   9002     1
   8985   8987     1
   8985   8996     1
   8985   8986     1
   8985   9003     1
   8985   9001     1
   8985   9002     1
   8985   8989     1
   8986   8988     1
   8986   8995     1
   8986   8991     1
   8986   8999     1
   8986   8997     1
   8986   9005     1
   8987   8992     1
   8987   9000     1
   8987   8999     1
   8988   8998     1
   8989   9000     1
   8989   8991     1
   8990   8993     1
   8990   9005     1
   8990   8992     1
   8990   9000     1
   8990   8995     1
   8990   8991     1
   8991   8994     1
   8991   8998     1
   8991   8996     1
   8992   8994     1
   9001   9004     1
   9001   9005     1
   9002   9004     1
   9002   9005     1
   9006   9014     1
   9006   9022     1
   9006   9027     1
   9006   9015     1
   9007   9024     1
   9007   9025     1
   9007   9013     1
   9007   9021     1
   9008   9010     1
   9008   9019     1
   9008   9009     1
   9008   9026     1
   9008   9024     1
   9008   9025     1
   9008   9012     1
   9009   9020     1
   9009   9028     1
   9009   9011     1
   9009   9018     1
   9009   9014     1
   9009   9022     1
   9010   9022     1
   9010   9015     1
   9010   9023     1
   9011   9021     1
   9012   9014     1
   9012   9023     1
   9013   9018     1
   9013   9014     1
   9013   9016     1
   9013   9028     1
   9013   9015     1
   9013   9023     1
   9014   9019     1
   9014   9017     1
   9014   9021     1
   9015   9017     1
   9024   9028     1
   9024   9027     1
   9025   9028     1
   9025   9027     1
   9029   9037     1
   9029   9045     1
   9029   9050     1
   9029   9038     1
   9030   9036     1
   9030   9044     1
   9030   9047     1
   9030   9048     1
   9031   9033     1
   9031   9042     1
   9031   9032     1
   9031   9049     1
   9031   9047     1
   9031   9048     1
   9031   9035     1
   9032   9034     1
   9032   9041     1
   9032   9037     1
   9032   9045     1
   9032   9043     1
   9032   9051     1
   9033   9038     1
   9033   9046     1
   9033   9045     1
   9034   9044     1
   9035   9046     1
   9035   9037     1
   9036   9039     1
   9036   9051     1
   9036   9038     1
   9036   9046     1
   9036   9041     1
   9036   9037     1
   9037   9040     1
   9037   9044     1
   9037   9042     1
   9038   9040     1
   9047   9050     1
   9047   9051     1
   9048   9050     1
   9048   9051     1
   9052   9060     1
   9052   9068     1
   9052   9073     1
   9052   9061     1
   9053   9070     1
   9053   9071     1
   9053   9059     1
   9053   9067     1
   9054   9056     1
   9054   9065     1
   9054   9055     1
   9054   9072     1
   9054   9070     1
   9054   9071     1
   9054   9058     1
   9055   9066     1
   9055   9074     1
   9055   9057     1
   9055   9064     1
   9055   9060     1
   9055   9068     1
   9056   9068     1
   9056   9061     1
   9056   9069     1
   9057   9067     1
   9058   9060     1
   9058   9069     1
   9059   9064     1
   9059   9060     1
   9059   9062     1
   9059   9074     1
   9059   9061     1
   9059   9069     1
   9060   9065     1
   9060   9063     1
   9060   9067     1
   9061   9063     1
   9070   9074     1
   9070   9073     1
   9071   9074     1
   9071   9073     1
   9075   9083     1
   9075   9091     1
   9075   9096     1
   9075   9084     1
   9076   9082     1
   9076   9090     1
   9076   9093     1
   9076   9094     1
   9077   9079     1
   9077   9088     1
   9077   9078     1
   9077   9095     1
   9077   9093     1
   9077   9094     1
   9077   9081     1
   9078   9080     1
   9078   9087     1
   9078   9083     1
   9078   9091     1
   9078   9089     1
   9078   9097     1
   9079   9084     1
   9079   9092     1
   9079   9091     1
   9080   9090     1
   9081   9092     1
   9081   9083     1
   9082   9085     1
   9082   9097     1
   9082   9084     1
   9082   9092     1
   9082   9087     1
   9082   9083     1
   9083   9086     1
   9083   9090     1
   9083   9088     1
   9084   9086     1
   9093   9096     1
   9093   9097     1
   9094   9096     1
   9094   9097     1
   9098   9106     1
   9098   9114     1
   9098   9119     1
   9098   9107     1
   9099   9116     1
   9099   9117     1
   9099   9105     1
   9099   9113     1
   9100   9102     1
   9100   9111     1
   9100   9101     1
   9100   9118     1
   9100   9116     1
   9100   9117     1
   9100   9104     1
   9101   9112     1
   9101   9120     1
   9101   9103     1
   9101   9110     1
   9101   9106     1
   9101   9114     1
   9102   9114     1
   9102   9107     1
   9102   9115     1
   9103   9113     1
   9104   9106     1
   9104   9115     1
   9105   9110     1
   9105   9106     1
   9105   9108     1
   9105   9120     1
   9105   9107     1
   9105   9115     1
   9106   9111     1
   9106   9109     1
   9106   9113     1
   9107   9109     1
   9116   9120     1
   9116   9119     1
   9117   9120     1
   9117   9119     1
   9121   9129     1
   9121   9137     1
   9121   9142     1
   9121   9130     1
   9122   9128     1
   9122   9136     1
   9122   9139     1
   9122   9140     1
   9123   9125     1
   9123   9134     1
   9123   9124     1
   9123   9141     1
   9123   9139     1
   9123   9140     1
   9123   9127     1
   9124   9126     1
   9124   9133     1
   9124   9129     1
   9124   9137     1
   9124   9135     1
   9124   9143     1
   9125   9130     1
   9125   9138     1
   9125   9137     1
   9126   9136     1
   9127   9138     1
   9127   9129     1
   9128   9131     1
   9128   9143     1
   9128   9130     1
   9128   9138     1
   9128   9133     1
   9128   9129     1
   9129   9132     1
   9129   9136     1
   9129   9134     1
   9130   9132     1
   9139   9142     1
   9139   9143     1
   9140   9142     1
   9140   9143     1
   9144   9152     1
   9144   9160     1
   9144   9165     1
   9144   9153     1
   9145   9162     1
   9145   9163     1
   9145   9151     1
   9145   9159     1
   9146   9148     1
   9146   9157     1
   9146   9147     1
   9146   9164     1
   9146   9162     1
   9146   9163     1
   9146   9150     1
   9147   9158     1
   9147   9166     1
   9147   9149     1
   9147   9156     1
   9147   9152     1
   9147   9160     1
   9148   9160     1
   9148   9153     1
   9148   9161     1
   9149   9159     1
   9150   9152     1
   9150   9161     1
   9151   9156     1
   9151   9152     1
   9151   9154     1
   9151   9166     1
   9151   9153     1
   9151   9161     1
   9152   9157     1
   9152   9155     1
   9152   9159     1
   9153   9155     1
   9162   9166     1
   9162   9165     1
   9163   9166     1
   9163   9165     1
   9167   9175     1
   9167   9183     1
   9167   9188     1
   9167   9176     1
   9168   9174     1
   9168   9182     1
   9168   9185     1
   9168   9186     1
   9169   9171     1
   9169   9180     1
   9169   9170     1
   9169   9187     1
   9169   9185     1
   9169   9186     1
   9169   9173     1
   9170   9172     1
   9170   9179     1
   9170   9175     1
   9170   9183     1
   9170   9181     1
   9170   9189     1
   9171   9176     1
   9171   9184     1
   9171   9183     1
   9172   9182     1
   9173   9184     1
   9173   9175     1
   9174   9177     1
   9174   9189     1
   9174   9176     1
   9174   9184     1
   9174   9179     1
   9174   9175     1
   9175   9178     1
   9175   9182     1
   9175   9180     1
   9176   9178     1
   9185   9188     1
   9185   9189     1
   9186   9188     1
   9186   9189     1
   9190   9198     1
   9190   9206     1
   9190   9211     1
   9190   9199     1
   9191   9208     1
   9191   9209     1
   9191   9197     1
   9191   9205     1
   9192   9194     1
   9192   9203     1
   9192   9193     1
   9192   9210     1
   9192   9208     1
   9192   9209     1
   9192   9196     1
   9193   9204     1
   9193   9212     1
   9193   9195     1
   9193   9202     1
   9193   9198     1
   9193   9206     1
   9194   9206     1
   9194   9199     1
   9194   9207     1
   9195   9205     1
   9196   9198     1
   9196   9207     1
   9197   9202     1
   9197   9198     1
   9197   9200     1
   9197   9212     1
   9197   9199     1
   9197   9207     1
   9198   9203     1
   9198   9201     1
   9198   9205     1
   9199   9201     1
   9208   9212     1
   9208   9211     1
   9209   9212     1
   9209   9211     1
   9213   9221     1
   9213   9229     1
   9213   9234     1
   9213   9222     1
   9214   9220     1
   9214   9228     1
   9214   9231     1
   9214   9232     1
   9215   9217     1
   9215   9226     1
   9215   9216     1
   9215   9233     1
   9215   9231     1
   9215   9232     1
   9215   9219     1
   9216   9218     1
   9216   9225     1
   9216   9221     1
   9216   9229     1
   9216   9227     1
   9216   9235     1
   9217   9222     1
   9217   9230     1
   9217   9229     1
   9218   9228     1
   9219   9230     1
   9219   9221     1
   9220   9223     1
   9220   9235     1
   9220   9222     1
   9220   9230     1
   9220   9225     1
   9220   9221     1
   9221   9224     1
   9221   9228     1
   9221   9226     1
   9222   9224     1
   9231   9234     1
   9231   9235     1
   9232   9234     1
   9232   9235     1
   9236   9244     1
   9236   9252     1
   9236   9257     1
   9236   9245     1
   9237   9254     1
   9237   9255     1
   9237   9243     1
   9237   9251     1
   9238   9240     1
   9238   9249     1
   9238   9239     1
   9238   9256     1
   9238   9254     1
   9238   9255     1
   9238   9242     1
   9239   9250     1
   9239   9258     1
   9239   9241     1
   9239   9248     1
   9239   9244     1
   9239   9252     1
   9240   9252     1
   9240   9245     1
   9240   9253     1
   9241   9251     1
   9242   9244     1
   9242   9253     1
   9243   9248     1
   9243   9244     1
   9243   9246     1
   9243   9258     1
   9243   9245     1
   9243   9253     1
   9244   9249     1
   9244   9247     1
   9244   9251     1
   9245   9247     1
   9254   9258     1
   9254   9257     1
   9255   9258     1
   9255   9257     1
   9259   9267     1
   9259   9275     1
   9259   9280     1
   9259   9268     1
   9260   9266     1
   9260   9274     1
   9260   9277     1
   9260   9278     1
   9261   9263     1
   9261   9272     1
   9261   9262     1
   9261   9279     1
   9261   9277     1
   9261   9278     1
   9261   9265     1
   9262   9264     1
   9262   9271     1
   9262   9267     1
   9262   9275     1
   9262   9273     1
   9262   9281     1
   9263   9268     1
   9263   9276     1
   9263   9275     1
   9264   9274     1
   9265   9276     1
   9265   9267     1
   9266   9269     1
   9266   9281     1
   9266   9268     1
   9266   9276     1
   9266   9271     1
   9266   9267     1
   9267   9270     1
   9267   9274     1
   9267   9272     1
   9268   9270     1
   9277   9280     1
   9277   9281     1
   9278   9280     1
   9278   9281     1
   9282   9290     1
   9282   9298     1
   9282   9303     1
   9282   9291     1
   9283   9300     1
   9283   9301     1
   9283   9289     1
   9283   9297     1
   9284   9286     1
   9284   9295     1
   9284   9285     1
   9284   9302     1
   9284   9300     1
   9284   9301     1
   9284   9288     1
   9285   9296     1
   9285   9304     1
   9285   9287     1
   9285   9294     1
   9285   9290     1
   9285   9298     1
   9286   9298     1
   9286   9291     1
   9286   9299     1
   9287   9297     1
   9288   9290     1
   9288   9299     1
   9289   9294     1
   9289   9290     1
   9289   9292     1
   9289   9304     1
   9289   9291     1
   9289   9299     1
   9290   9295     1
   9290   9293     1
   9290   9297     1
   9291   9293     1
   9300   9304     1
   9300   9303     1
   9301   9304     1
   9301   9303     1
   9305   9313     1
   9305   9321     1
   9305   9326     1
   9305   9314     1
   9306   9312     1
   9306   9320     1
   9306   9323     1
   9306   9324     1
   9307   9309     1
   9307   9318     1
   9307   9308     1
   9307   9325     1
   9307   9323     1
   9307   9324     1
   9307   9311     1
   9308   9310     1
   9308   9317     1
   9308   9313     1
   9308   9321     1
   9308   9319     1
   9308   9327     1
   9309   9314     1
   9309   9322     1
   9309   9321     1
   9310   9320     1
   9311   9322     1
   9311   9313     1
   9312   9315     1
   9312   9327     1
   9312   9314     1
   9312   9322     1
   9312   9317     1
   9312   9313     1
   9313   9316     1
   9313   9320     1
   9313   9318     1
   9314   9316     1
   9323   9326     1
   9323   9327     1
   9324   9326     1
   9324   9327     1
   9328   9336     1
   9328   9344     1
   9328   9349     1
   9328   9337     1
   9329   9346     1
   9329   9347     1
   9329   9335     1
   9329   9343     1
   9330   9332     1
   9330   9341     1
   9330   9331     1
   9330   9348     1
   9330   9346     1
   9330   9347     1
   9330   9334     1
   9331   9342     1
   9331   9350     1
   9331   9333     1
   9331   9340     1
   9331   9336     1
   9331   9344     1
   9332   9344     1
   9332   9337     1
   9332   9345     1
   9333   9343     1
   9334   9336     1
   9334   9345     1
   9335   9340     1
   9335   9336     1
   9335   9338     1
   9335   9350     1
   9335   9337     1
   9335   9345     1
   9336   9341     1
   9336   9339     1
   9336   9343     1
   9337   9339     1
   9346   9350     1
   9346   9349     1
   9347   9350     1
   9347   9349     1
   9351   9359     1
   9351   9367     1
   9351   9372     1
   9351   9360     1
   9352   9358     1
   9352   9366     1
   9352   9369     1
   9352   9370     1
   9353   9355     1
   9353   9364     1
   9353   9354     1
   9353   9371     1
   9353   9369     1
   9353   9370     1
   9353   9357     1
   9354   9356     1
   9354   9363     1
   9354   9359     1
   9354   9367     1
   9354   9365     1
   9354   9373     1
   9355   9360     1
   9355   9368     1
   9355   9367     1
   9356   9366     1
   9357   9368     1
   9357   9359     1
   9358   9361     1
   9358   9373     1
   9358   9360     1
   9358   9368     1
   9358   9363     1
   9358   9359     1
   9359   9362     1
   9359   9366     1
   9359   9364     1
   9360   9362     1
   9369   9372     1
   9369   9373     1
   9370   9372     1
   9370   9373     1
   9374   9382     1
   9374   9390     1
   9374   9395     1
   9374   9383     1
   9375   9392     1
   9375   9393     1
   9375   9381     1
   9375   9389     1
   9376   9378     1
   9376   9387     1
   9376   9377     1
   9376   9394     1
   9376   9392     1
   9376   9393     1
   9376   9380     1
   9377   9388     1
   9377   9396     1
   9377   9379     1
   9377   9386     1
   9377   9382     1
   9377   9390     1
   9378   9390     1
   9378   9383     1
   9378   9391     1
   9379   9389     1
   9380   9382     1
   9380   9391     1
   9381   9386     1
   9381   9382     1
   9381   9384     1
   9381   9396     1
   9381   9383     1
   9381   9391     1
   9382   9387     1
   9382   9385     1
   9382   9389     1
   9383   9385     1
   9392   9396     1
   9392   9395     1
   9393   9396     1
   9393   9395     1
   9397   9405     1
   9397   9413     1
   9397   9418     1
   9397   9406     1
   9398   9404     1
   9398   9412     1
   9398   9415     1
   9398   9416     1
   9399   9401     1
   9399   9410     1
   9399   9400     1
   9399   9417     1
   9399   9415     1
   9399   9416     1
   9399   9403     1
   9400   9402     1
   9400   9409     1
   9400   9405     1
   9400   9413     1
   9400   9411     1
   9400   9419     1
   9401   9406     1
   9401   9414     1
   9401   9413     1
   9402   9412     1
   9403   9414     1
   9403   9405     1
   9404   9407     1
   9404   9419     1
   9404   9406     1
   9404   9414     1
   9404   9409     1
   9404   9405     1
   9405   9408     1
   9405   9412     1
   9405   9410     1
   9406   9408     1
   9415   9418     1
   9415   9419     1
   9416   9418     1
   9416   9419     1
   9420   9428     1
   9420   9436     1
   9420   9441     1
   9420   9429     1
   9421   9438     1
   9421   9439     1
   9421   9427     1
   9421   9435     1
   9422   9424     1
   9422   9433     1
   9422   9423     1
   9422   9440     1
   9422   9438     1
   9422   9439     1
   9422   9426     1
   9423   9434     1
   9423   9442     1
   9423   9425     1
   9423   9432     1
   9423   9428     1
   9423   9436     1
   9424   9436     1
   9424   9429     1
   9424   9437     1
   9425   9435     1
   9426   9428     1
   9426   9437     1
   9427   9432     1
   9427   9428     1
   9427   9430     1
   9427   9442     1
   9427   9429     1
   9427   9437     1
   9428   9433     1
   9428   9431     1
   9428   9435     1
   9429   9431     1
   9438   9442     1
   9438   9441     1
   9439   9442     1
   9439   9441     1
   9443   9451     1
   9443   9459     1
   9443   9464     1
   9443   9452     1
   9444   9450     1
   9444   9458     1
   9444   9461     1
   9444   9462     1
   9445   9447     1
   9445   9456     1
   9445   9446     1
   9445   9463     1
   9445   9461     1
   9445   9462     1
   9445   9449     1
   9446   9448     1
   9446   9455     1
   9446   9451     1
   9446   9459     1
   9446   9457     1
   9446   9465     1
   9447   9452     1
   9447   9460     1
   9447   9459     1
   9448   9458     1
   9449   9460     1
   9449   9451     1
   9450   9453     1
   9450   9465     1
   9450   9452     1
   9450   9460     1
   9450   9455     1
   9450   9451     1
   9451   9454     1
   9451   9458     1
   9451   9456     1
   9452   9454     1
   9461   9464     1
   9461   9465     1
   9462   9464     1
   9462   9465     1
   9466   9474     1
   9466   9482     1
   9466   9487     1
   9466   9475     1
   9467   9484     1
   9467   9485     1
   9467   9473     1
   9467   9481     1
   9468   9470     1
   9468   9479     1
   9468   9469     1
   9468   9486     1
   9468   9484     1
   9468   9485     1
   9468   9472     1
   9469   9480     1
   9469   9488     1
   9469   9471     1
   9469   9478     1
   9469   9474     1
   9469   9482     1
   9470   9482     1
   9470   9475     1
   9470   9483     1
   9471   9481     1
   9472   9474     1
   9472   9483     1
   9473   9478     1
   9473   9474     1
   9473   9476     1
   9473   9488     1
   9473   9475     1
   9473   9483     1
   9474   9479     1
   9474   9477     1
   9474   9481     1
   9475   9477     1
   9484   9488     1
   9484   9487     1
   9485   9488     1
   9485   9487     1
   9489   9497     1
   9489   9505     1
   9489   9510     1
   9489   9498     1
   9490   9496     1
   9490   9504     1
   9490   9507     1
   9490   9508     1
   9491   9493     1
   9491   9502     1
   9491   9492     1
   9491   9509     1
   9491   9507     1
   9491   9508     1
   9491   9495     1
   9492   9494     1
   9492   9501     1
   9492   9497     1
   9492   9505     1
   9492   9503     1
   9492   9511     1
   9493   9498     1
   9493   9506     1
   9493   9505     1
   9494   9504     1
   9495   9506     1
   9495   9497     1
   9496   9499     1
   9496   9511     1
   9496   9498     1
   9496   9506     1
   9496   9501     1
   9496   9497     1
   9497   9500     1
   9497   9504     1
   9497   9502     1
   9498   9500     1
   9507   9510     1
   9507   9511     1
   9508   9510     1
   9508   9511     1
   9512   9520     1
   9512   9528     1
   9512   9533     1
   9512   9521     1
   9513   9530     1
   9513   9531     1
   9513   9519     1
   9513   9527     1
   9514   9516     1
   9514   9525     1
   9514   9515     1
   9514   9532     1
   9514   9530     1
   9514   9531     1
   9514   9518     1
   9515   9526     1
   9515   9534     1
   9515   9517     1
   9515   9524     1
   9515   9520     1
   9515   9528     1
   9516   9528     1
   9516   9521     1
   9516   9529     1
   9517   9527     1
   9518   9520     1
   9518   9529     1
   9519   9524     1
   9519   9520     1
   9519   9522     1
   9519   9534     1
   9519   9521     1
   9519   9529     1
   9520   9525     1
   9520   9523     1
   9520   9527     1
   9521   9523     1
   9530   9534     1
   9530   9533     1
   9531   9534     1
   9531   9533     1
   9535   9543     1
   9535   9551     1
   9535   9556     1
   9535   9544     1
   9536   9542     1
   9536   9550     1
   9536   9553     1
   9536   9554     1
   9537   9539     1
   9537   9548     1
   9537   9538     1
   9537   9555     1
   9537   9553     1
   9537   9554     1
   9537   9541     1
   9538   9540     1
   9538   9547     1
   9538   9543     1
   9538   9551     1
   9538   9549     1
   9538   9557     1
   9539   9544     1
   9539   9552     1
   9539   9551     1
   9540   9550     1
   9541   9552     1
   9541   9543     1
   9542   9545     1
   9542   9557     1
   9542   9544     1
   9542   9552     1
   9542   9547     1
   9542   9543     1
   9543   9546     1
   9543   9550     1
   9543   9548     1
   9544   9546     1
   9553   9556     1
   9553   9557     1
   9554   9556     1
   9554   9557     1
   9558   9566     1
   9558   9574     1
   9558   9579     1
   9558   9567     1
   9559   9576     1
   9559   9577     1
   9559   9565     1
   9559   9573     1
   9560   9562     1
   9560   9571     1
   9560   9561     1
   9560   9578     1
   9560   9576     1
   9560   9577     1
   9560   9564     1
   9561   9572     1
   9561   9580     1
   9561   9563     1
   9561   9570     1
   9561   9566     1
   9561   9574     1
   9562   9574     1
   9562   9567     1
   9562   9575     1
   9563   9573     1
   9564   9566     1
   9564   9575     1
   9565   9570     1
   9565   9566     1
   9565   9568     1
   9565   9580     1
   9565   9567     1
   9565   9575     1
   9566   9571     1
   9566   9569     1
   9566   9573     1
   9567   9569     1
   9576   9580     1
   9576   9579     1
   9577   9580     1
   9577   9579     1
   9581   9589     1
   9581   9597     1
   9581   9602     1
   9581   9590     1
   9582   9588     1
   9582   9596     1
   9582   9599     1
   9582   9600     1
   9583   9585     1
   9583   9594     1
   9583   9584     1
   9583   9601     1
   9583   9599     1
   9583   9600     1
   9583   9587     1
   9584   9586     1
   9584   9593     1
   9584   9589     1
   9584   9597     1
   9584   9595     1
   9584   9603     1
   9585   9590     1
   9585   9598     1
   9585   9597     1
   9586   9596     1
   9587   9598     1
   9587   9589     1
   9588   9591     1
   9588   9603     1
   9588   9590     1
   9588   9598     1
   9588   9593     1
   9588   9589     1
   9589   9592     1
   9589   9596     1
   9589   9594     1
   9590   9592     1
   9599   9602     1
   9599   9603     1
   9600   9602     1
   9600   9603     1
   9604   9612     1
   9604   9620     1
   9604   9625     1
   9604   9613     1
   9605   9622     1
   9605   9623     1
   9605   9611     1
   9605   9619     1
   9606   9608     1
   9606   9617     1
   9606   9607     1
   9606   9624     1
   9606   9622     1
   9606   9623     1
   9606   9610     1
   9607   9618     1
   9607   9626     1
   9607   9609     1
   9607   9616     1
   9607   9612     1
   9607   9620     1
   9608   9620     1
   9608   9613     1
   9608   9621     1
   9609   9619     1
   9610   9612     1
   9610   9621     1
   9611   9616     1
   9611   9612     1
   9611   9614     1
   9611   9626     1
   9611   9613     1
   9611   9621     1
   9612   9617     1
   9612   9615     1
   9612   9619     1
   9613   9615     1
   9622   9626     1
   9622   9625     1
   9623   9626     1
   9623   9625     1
   9627   9635     1
   9627   9643     1
   9627   9648     1
   9627   9636     1
   9628   9634     1
   9628   9642     1
   9628   9645     1
   9628   9646     1
   9629   9631     1
   9629   9640     1
   9629   9630     1
   9629   9647     1
   9629   9645     1
   9629   9646     1
   9629   9633     1
   9630   9632     1
   9630   9639     1
   9630   9635     1
   9630   9643     1
   9630   9641     1
   9630   9649     1
   9631   9636     1
   9631   9644     1
   9631   9643     1
   9632   9642     1
   9633   9644     1
   9633   9635     1
   9634   9637     1
   9634   9649     1
   9634   9636     1
   9634   9644     1
   9634   9639     1
   9634   9635     1
   9635   9638     1
   9635   9642     1
   9635   9640     1
   9636   9638     1
   9645   9648     1
   9645   9649     1
   9646   9648     1
   9646   9649     1
   9650   9658     1
   9650   9666     1
   9650   9671     1
   9650   9659     1
   9651   9668     1
   9651   9669     1
   9651   9657     1
   9651   9665     1
   9652   9654     1
   9652   9663     1
   9652   9653     1
   9652   9670     1
   9652   9668     1
   9652   9669     1
   9652   9656     1
   9653   9664     1
   9653   9672     1
   9653   9655     1
   9653   9662     1
   9653   9658     1
   9653   9666     1
   9654   9666     1
   9654   9659     1
   9654   9667     1
   9655   9665     1
   9656   9658     1
   9656   9667     1
   9657   9662     1
   9657   9658     1
   9657   9660     1
   9657   9672     1
   9657   9659     1
   9657   9667     1
   9658   9663     1
   9658   9661     1
   9658   9665     1
   9659   9661     1
   9668   9672     1
   9668   9671     1
   9669   9672     1
   9669   9671     1
   9673   9681     1
   9673   9689     1
   9673   9694     1
   9673   9682     1
   9674   9680     1
   9674   9688     1
   9674   9691     1
   9674   9692     1
   9675   9677     1
   9675   9686     1
   9675   9676     1
   9675   9693     1
   9675   9691     1
   9675   9692     1
   9675   9679     1
   9676   9678     1
   9676   9685     1
   9676   9681     1
   9676   9689     1
   9676   9687     1
   9676   9695     1
   9677   9682     1
   9677   9690     1
   9677   9689     1
   9678   9688     1
   9679   9690     1
   9679   9681     1
   9680   9683     1
   9680   9695     1
   9680   9682     1
   9680   9690     1
   9680   9685     1
   9680   9681     1
   9681   9684     1
   9681   9688     1
   9681   9686     1
   9682   9684     1
   9691   9694     1
   9691   9695     1
   9692   9694     1
   9692   9695     1
   9696   9704     1
   9696   9712     1
   9696   9717     1
   9696   9705     1
   9697   9714     1
   9697   9715     1
   9697   9703     1
   9697   9711     1
   9698   9700     1
   9698   9709     1
   9698   9699     1
   9698   9716     1
   9698   9714     1
   9698   9715     1
   9698   9702     1
   9699   9710     1
   9699   9718     1
   9699   9701     1
   9699   9708     1
   9699   9704     1
   9699   9712     1
   9700   9712     1
   9700   9705     1
   9700   9713     1
   9701   9711     1
   9702   9704     1
   9702   9713     1
   9703   9708     1
   9703   9704     1
   9703   9706     1
   9703   9718     1
   9703   9705     1
   9703   9713     1
   9704   9709     1
   9704   9707     1
   9704   9711     1
   9705   9707     1
   9714   9718     1
   9714   9717     1
   9715   9718     1
   9715   9717     1
   9719   9727     1
   9719   9735     1
   9719   9740     1
   9719   9728     1
   9720   9726     1
   9720   9734     1
   9720   9737     1
   9720   9738     1
   9721   9723     1
   9721   9732     1
   9721   9722     1
   9721   9739     1
   9721   9737     1
   9721   9738     1
   9721   9725     1
   9722   9724     1
   9722   9731     1
   9722   9727     1
   9722   9735     1
   9722   9733     1
   9722   9741     1
   9723   9728     1
   9723   9736     1
   9723   9735     1
   9724   9734     1
   9725   9736     1
   9725   9727     1
   9726   9729     1
   9726   9741     1
   9726   9728     1
   9726   9736     1
   9726   9731     1
   9726   9727     1
   9727   9730     1
   9727   9734     1
   9727   9732     1
   9728   9730     1
   9737   9740     1
   9737   9741     1
   9738   9740     1
   9738   9741     1
   9742   9750     1
   9742   9758     1
   9742   9763     1
   9742   9751     1
   9743   9760     1
   9743   9761     1
   9743   9749     1
   9743   9757     1
   9744   9746     1
   9744   9755     1
   9744   9745     1
   9744   9762     1
   9744   9760     1
   9744   9761     1
   9744   9748     1
   9745   9756     1
   9745   9764     1
   9745   9747     1
   9745   9754     1
   9745   9750     1
   9745   9758     1
   9746   9758     1
   9746   9751     1
   9746   9759     1
   9747   9757     1
   9748   9750     1
   9748   9759     1
   9749   9754     1
   9749   9750     1
   9749   9752     1
   9749   9764     1
   9749   9751     1
   9749   9759     1
   9750   9755     1
   9750   9753     1
   9750   9757     1
   9751   9753     1
   9760   9764     1
   9760   9763     1
   9761   9764     1
   9761   9763     1
   9765   9773     1
   9765   9781     1
   9765   9786     1
   9765   9774     1
   9766   9772     1
   9766   9780     1
   9766   9783     1
   9766   9784     1
   9767   9769     1
   9767   9778     1
   9767   9768     1
   9767   9785     1
   9767   9783     1
   9767   9784     1
   9767   9771     1
   9768   9770     1
   9768   9777     1
   9768   9773     1
   9768   9781     1
   9768   9779     1
   9768   9787     1
   9769   9774     1
   9769   9782     1
   9769   9781     1
   9770   9780     1
   9771   9782     1
   9771   9773     1
   9772   9775     1
   9772   9787     1
   9772   9774     1
   9772   9782     1
   9772   9777     1
   9772   9773     1
   9773   9776     1
   9773   9780     1
   9773   9778     1
   9774   9776     1
   9783   9786     1
   9783   9787     1
   9784   9786     1
   9784   9787     1
   9788   9796     1
   9788   9804     1
   9788   9809     1
   9788   9797     1
   9789   9806     1
   9789   9807     1
   9789   9795     1
   9789   9803     1
   9790   9792     1
   9790   9801     1
   9790   9791     1
   9790   9808     1
   9790   9806     1
   9790   9807     1
   9790   9794     1
   9791   9802     1
   9791   9810     1
   9791   9793     1
   9791   9800     1
   9791   9796     1
   9791   9804     1
   9792   9804     1
   9792   9797     1
   9792   9805     1
   9793   9803     1
   9794   9796     1
   9794   9805     1
   9795   9800     1
   9795   9796     1
   9795   9798     1
   9795   9810     1
   9795   9797     1
   9795   9805     1
   9796   9801     1
   9796   9799     1
   9796   9803     1
   9797   9799     1
   9806   9810     1
   9806   9809     1
   9807   9810     1
   9807   9809     1
   9811   9819     1
   9811   9827     1
   9811   9832     1
   9811   9820     1
   9812   9818     1
   9812   9826     1
   9812   9829     1
   9812   9830     1
   9813   9815     1
   9813   9824     1
   9813   9814     1
   9813   9831     1
   9813   9829     1
   9813   9830     1
   9813   9817     1
   9814   9816     1
   9814   9823     1
   9814   9819     1
   9814   9827     1
   9814   9825     1
   9814   9833     1
   9815   9820     1
   9815   9828     1
   9815   9827     1
   9816   9826     1
   9817   9828     1
   9817   9819     1
   9818   9821     1
   9818   9833     1
   9818   9820     1
   9818   9828     1
   9818   9823     1
   9818   9819     1
   9819   9822     1
   9819   9826     1
   9819   9824     1
   9820   9822     1
   9829   9832     1
   9829   9833     1
   9830   9832     1
   9830   9833     1
   9834   9842     1
   9834   9850     1
   9834   9855     1
   9834   9843     1
   9835   9852     1
   9835   9853     1
   9835   9841     1
   9835   9849     1
   9836   9838     1
   9836   9847     1
   9836   9837     1
   9836   9854     1
   9836   9852     1
   9836   9853     1
   9836   9840     1
   9837   9848     1
   9837   9856     1
   9837   9839     1
   9837   9846     1
   9837   9842     1
   9837   9850     1
   9838   9850     1
   9838   9843     1
   9838   9851     1
   9839   9849     1
   9840   9842     1
   9840   9851     1
   9841   9846     1
   9841   9842     1
   9841   9844     1
   9841   9856     1
   9841   9843     1
   9841   9851     1
   9842   9847     1
   9842   9845     1
   9842   9849     1
   9843   9845     1
   9852   9856     1
   9852   9855     1
   9853   9856     1
   9853   9855     1
   9857   9865     1
   9857   9873     1
   9857   9878     1
   9857   9866     1
   9858   9864     1
   9858   9872     1
   9858   9875     1
   9858   9876     1
   9859   9861     1
   9859   9870     1
   9859   9860     1
   9859   9877     1
   9859   9875     1
   9859   9876     1
   9859   9863     1
   9860   9862     1
   9860   9869     1
   9860   9865     1
   9860   9873     1
   9860   9871     1
   9860   9879     1
   9861   9866     1
   9861   9874     1
   9861   9873     1
   9862   9872     1
   9863   9874     1
   9863   9865     1
   9864   9867     1
   9864   9879     1
   9864   9866     1
   9864   9874     1
   9864   9869     1
   9864   9865     1
   9865   9868     1
   9865   9872     1
   9865   9870     1
   9866   9868     1
   9875   9878     1
   9875   9879     1
   9876   9878     1
   9876   9879     1
   9880   9888     1
   9880   9896     1
   9880   9901     1
   9880   9889     1
   9881   9898     1
   9881   9899     1
   9881   9887     1
   9881   9895     1
   9882   9884     1
   9882   9893     1
   9882   9883     1
   9882   9900     1
   9882   9898     1
   9882   9899     1
   9882   9886     1
   9883   9894     1
   9883   9902     1
   9883   9885     1
   9883   9892     1
   9883   9888     1
   9883   9896     1
   9884   9896     1
   9884   9889     1
   9884   9897     1
   9885   9895     1
   9886   9888     1
   9886   9897     1
   9887   9892     1
   9887   9888     1
   9887   9890     1
   9887   9902     1
   9887   9889     1
   9887   9897     1
   9888   9893     1
   9888   9891     1
   9888   9895     1
   9889   9891     1
   9898   9902     1
   9898   9901     1
   9899   9902     1
   9899   9901     1
   9903   9911     1
   9903   9919     1
   9903   9924     1
   9903   9912     1
   9904   9910     1
   9904   9918     1
   9904   9921     1
   9904   9922     1
   9905   9907     1
   9905   9916     1
   9905   9906     1
   9905   9923     1
   9905   9921     1
   9905   9922     1
   9905   9909     1
   9906   9908     1
   9906   9915     1
   9906   9911     1
   9906   9919     1
   9906   9917     1
   9906   9925     1
   9907   9912     1
   9907   9920     1
   9907   9919     1
   9908   9918     1
   9909   9920     1
   9909   9911     1
   9910   9913     1
   9910   9925     1
   9910   9912     1
   9910   9920     1
   9910   9915     1
   9910   9911     1
   9911   9914     1
   9911   9918     1
   9911   9916     1
   9912   9914     1
   9921   9924     1
   9921   9925     1
   9922   9924     1
   9922   9925     1

[ angles ]
;    ai     aj     ak funct         c0         c1         c2         c3
      1      2     14     1   111.0400475 552.288000
      1      5     17     1   111.0400475 552.288000
      1      8     11     1   111.0400475 552.288000
      2      1      5     1   112.3500484 533.878400
      2      1      8     1   112.3500484 533.878400
      2     14     26     1   111.5100476 526.347200
      5      1      8     1   112.3500484 533.878400
      5     17     20     1   111.5100476 526.347200
      8     11     23     1   111.5100476 526.347200
     11     23     86     1   107.9700462 569.024000
     14     26    115     1   107.9700462 569.024000
     17     20     57     1   107.9700462 569.024000
     20     57     48     1   112.4800480 524.673600
     23     86     77     1   112.4800480 524.673600
     26    115    106     1   112.4800480 524.673600
     29     30     42     1   111.0400475 552.288000
     29     33     45     1   111.0400475 552.288000
     29     36     39     1   111.0400475 552.288000
     30     29     33     1   112.3500484 533.878400
     30     29     36     1   112.3500484 533.878400
     30     42     54     1   111.5100476 526.347200
     33     29     36     1   112.3500484 533.878400
     33     45     51     1   111.5100476 526.347200
     36     39     48     1   111.5100476 526.347200
     39     48     57     1   107.9700462 569.024000
     42     54    173     1   107.9700462 569.024000
     45     51    144     1   107.9700462 569.024000
     51    144    135     1   112.4800480 524.673600
     54    173    164     1   112.4800480 524.673600
     58     59     71     1   111.0400475 552.288000
     58     62     74     1   111.0400475 552.288000
     58     65     68     1   111.0400475 552.288000
     59     58     62     1   112.3500484 533.878400
     59     58     65     1   112.3500484 533.878400
     59     71     83     1   111.5100476 526.347200
     62     58     65     1   112.3500484 533.878400
     62     74     80     1   111.5100476 526.347200
     65     68     77     1   111.5100476 526.347200
     68     77     86     1   107.9700462 569.024000
     71     83    231     1   107.9700462 569.024000
     74     80    202     1   107.9700462 569.024000
     80    202    193     1   112.4800480 524.673600
     83    231    222     1   112.4800480 524.673600
     87     88    100     1   111.0400475 552.288000
     87     91    103     1   111.0400475 552.288000
     87     94     97     1   111.0400475 552.288000
     88     87     91     1   112.3500484 533.878400
     88     87     94     1   112.3500484 533.878400
     88    100    112     1   111.5100476 526.347200
     91     87     94     1   112.3500484 533.878400
     91    103    109     1   111.5100476 526.347200
     94     97    106     1   111.5100476 526.347200
     97    106    115     1   107.9700462 569.024000
    100    112    289     1   107.9700462 569.024000
    103    109    260     1   107.9700462 569.024000
    109    260    251     1   112.4800480 524.673600
    112    289    280     1   112.4800480 524.673600
    116    117    129     1   111.0400475 552.288000
    116    120    132     1   111.0400475 552.288000
    116    123    126     1   111.0400475 552.288000
    117    116    120     1   112.3500484 533.878400
    117    116    123     1   112.3500484 533.878400
    117    129    141     1   111.5100476 526.347200
    120    116    123     1   112.3500484 533.878400
    120    132    138     1   111.5100476 526.347200
    123    126    135     1   111.5100476 526.347200
    126    135    144     1   107.9700462 569.024000
    129    141    347     1   107.9700462 569.024000
    132    138    318     1   107.9700462 569.024000
    138    318    309     1   112.4800480 524.673600
    141    347    338     1   112.4800480 524.673600
    145    146    158     1   111.0400475 552.288000
    145    149    161     1   111.0400475 552.288000
    145    152    155     1   111.0400475 552.288000
    146    145    149     1   112.3500484 533.878400
    146    145    152     1   112.3500484 533.878400
    146    158    170     1   111.5100476 526.347200
    149    145    152     1   112.3500484 533.878400
    149    161    167     1   111.5100476 526.347200
    152    155    164     1   111.5100476 526.347200
    155    164    173     1   107.9700462 569.024000
    158    170    405     1   107.9700462 569.024000
    161    167    376     1   107.9700462 569.024000
    167    376    367     1   112.4800480 524.673600
    170    405    396     1   112.4800480 524.673600
    174    175    187     1   111.0400475 552.288000
    174    178    190     1   111.0400475 552.288000
    174    181    184     1   111.0400475 552.288000
    175    174    178     1   112.3500484 533.878400
    175    174    181     1   112.3500484 533.878400
    175    187    199     1   111.5100476 526.347200
    178    174    181     1   112.3500484 533.878400
    178    190    196     1   111.5100476 526.347200
    181    184    193     1   111.5100476 526.347200
    184    193    202     1   107.9700462 569.024000
    187    199    463     1   107.9700462 569.024000
    190    196    434     1   107.9700462 569.024000
    196    434    425     1   112.4800480 524.673600
    199    463    454     1   112.4800480 524.673600
    203    204    216     1   111.0400475 552.288000
    203    207    219     1   111.0400475 552.288000
    203    210    213     1   111.0400475 552.288000
    204    203    207     1   112.3500484 533.878400
    204    203    210     1   112.3500484 533.878400
    204    216    228     1   111.5100476 526.347200
    207    203    210     1   112.3500484 533.878400
    207    219    225     1   111.5100476 526.347200
    210    213    222     1   111.5100476 526.347200
    213    222    231     1   107.9700462 569.024000
    216    228    521     1   107.9700462 569.024000
    219    225    492     1   107.9700462 569.024000
    225    492    483     1   112.4800480 524.673600
    228    521    512     1   112.4800480 524.673600
    232    233    245     1   111.0400475 552.288000
    232    236    248     1   111.0400475 552.288000
    232    239    242     1   111.0400475 552.288000
    233    232    236     1   112.3500484 533.878400
    233    232    239     1   112.3500484 533.878400
    233    245    257     1   111.5100476 526.347200
    236    232    239     1   112.3500484 533.878400
    236    248    254     1   111.5100476 526.347200
    239    242    251     1   111.5100476 526.347200
    242    251    260     1   107.9700462 569.024000
    245    257    579     1   107.9700462 569.024000
    248    254    550     1   107.9700462 569.024000
    254    550    541     1   112.4800480 524.673600
    257    579    570     1   112.4800480 524.673600
    261    262    274     1   111.0400475 552.288000
    261    265    277     1   111.0400475 552.288000
    261    268    271     1   111.0400475 552.288000
    262    261    265     1   112.3500484 533.878400
    262    261    268     1   112.3500484 533.878400
    262    274    286     1   111.5100476 526.347200
    265    261    268     1   112.3500484 533.878400
    265    277    283     1   111.5100476 526.347200
    268    271    280     1   111.5100476 526.347200
    271    280    289     1   107.9700462 569.024000
    274    286    637     1   107.9700462 569.024000
    277    283    608     1   107.9700462 569.024000
    283    608    599     1   112.4800480 524.673600
    286    637    628     1   112.4800480 524.673600
    290    291    303     1   111.0400475 552.288000
    290    294    306     1   111.0400475 552.288000
    290    297    300     1   111.0400475 552.288000
    291    290    294     1   112.3500484 533.878400
    291    290    297     1   112.3500484 533.878400
    291    303    315     1   111.5100476 526.347200
    294    290    297     1   112.3500484 533.878400
    294    306    312     1   111.5100476 526.347200
    297    300    309     1   111.5100476 526.347200
    300    309    318     1   107.9700462 569.024000
    303    315    695     1   107.9700462 569.024000
    306    312    666     1   107.9700462 569.024000
    312    666    657     1   112.4800480 524.673600
    315    695    686     1   112.4800480 524.673600
    319    320    332     1   111.0400475 552.288000
    319    323    335     1   111.0400475 552.288000
    319    326    329     1   111.0400475 552.288000
    320    319    323     1   112.3500484 533.878400
    320    319    326     1   112.3500484 533.878400
    320    332    344     1   111.5100476 526.347200
    323    319    326     1   112.3500484 533.878400
    323    335    341     1   111.5100476 526.347200
    326    329    338     1   111.5100476 526.347200
    329    338    347     1   107.9700462 569.024000
    332    344    753     1   107.9700462 569.024000
    335    341    724     1   107.9700462 569.024000
    341    724    715     1   112.4800480 524.673600
    344    753    744     1   112.4800480 524.673600
    348    349    361     1   111.0400475 552.288000
    348    352    364     1   111.0400475 552.288000
    348    355    358     1   111.0400475 552.288000
    349    348    352     1   112.3500484 533.878400
    349    348    355     1   112.3500484 533.878400
    349    361    373     1   111.5100476 526.347200
    352    348    355     1   112.3500484 533.878400
    352    364    370     1   111.5100476 526.347200
    355    358    367     1   111.5100476 526.347200
    358    367    376     1   107.9700462 569.024000
    361    373    811     1   107.9700462 569.024000
    364    370    782     1   107.9700462 569.024000
    370    782    773     1   112.4800480 524.673600
    373    811    802     1   112.4800480 524.673600
    377    378    390     1   111.0400475 552.288000
    377    381    393     1   111.0400475 552.288000
    377    384    387     1   111.0400475 552.288000
    378    377    381     1   112.3500484 533.878400
    378    377    384     1   112.3500484 533.878400
    378    390    402     1   111.5100476 526.347200
    381    377    384     1   112.3500484 533.878400
    381    393    399     1   111.5100476 526.347200
    384    387    396     1   111.5100476 526.347200
    387    396    405     1   107.9700462 569.024000
    390    402    869     1   107.9700462 569.024000
    393    399    840     1   107.9700462 569.024000
    399    840    831     1   112.4800480 524.673600
    402    869    860     1   112.4800480 524.673600
    406    407    419     1   111.0400475 552.288000
    406    410    422     1   111.0400475 552.288000
    406    413    416     1   111.0400475 552.288000
    407    406    410     1   112.3500484 533.878400
    407    406    413     1   112.3500484 533.878400
    407    419    431     1   111.5100476 526.347200
    410    406    413     1   112.3500484 533.878400
    410    422    428     1   111.5100476 526.347200
    413    416    425     1   111.5100476 526.347200
    416    425    434     1   107.9700462 569.024000
    419    431    927     1   107.9700462 569.024000
    422    428    898     1   107.9700462 569.024000
    428    898    889     1   112.4800480 524.673600
    431    927    918     1   112.4800480 524.673600
    435    436    448     1   111.0400475 552.288000
    435    439    451     1   111.0400475 552.288000
    435    442    445     1   111.0400475 552.288000
    436    435    439     1   112.3500484 533.878400
    436    435    442     1   112.3500484 533.878400
    436    448    460     1   111.5100476 526.347200
    439    435    442     1   112.3500484 533.878400
    439    451    457     1   111.5100476 526.347200
    442    445    454     1   111.5100476 526.347200
    445    454    463     1   107.9700462 569.024000
    448    460    985     1   107.9700462 569.024000
    451    457    956     1   107.9700462 569.024000
    457    956    947     1   112.4800480 524.673600
    460    985    976     1   112.4800480 524.673600
    464    465    477     1   111.0400475 552.288000
    464    468    480     1   111.0400475 552.288000
    464    471    474     1   111.0400475 552.288000
    465    464    468     1   112.3500484 533.878400
    465    464    471     1   112.3500484 533.878400
    465    477    489     1   111.5100476 526.347200
    468    464    471     1   112.3500484 533.878400
    468    480    486     1   111.5100476 526.347200
    471    474    483     1   111.5100476 526.347200
    474    483    492     1   107.9700462 569.024000
    477    489   1043     1   107.9700462 569.024000
    480    486   1014     1   107.9700462 569.024000
    486   1014   1005     1   112.4800480 524.673600
    489   1043   1034     1   112.4800480 524.673600
    493    494    506     1   111.0400475 552.288000
    493    497    509     1   111.0400475 552.288000
    493    500    503     1   111.0400475 552.288000
    494    493    497     1   112.3500484 533.878400
    494    493    500     1   112.3500484 533.878400
    494    506    518     1   111.5100476 526.347200
    497    493    500     1   112.3500484 533.878400
    497    509    515     1   111.5100476 526.347200
    500    503    512     1   111.5100476 526.347200
    503    512    521     1   107.9700462 569.024000
    506    518   1101     1   107.9700462 569.024000
    509    515   1072     1   107.9700462 569.024000
    515   1072   1063     1   112.4800480 524.673600
    518   1101   1092     1   112.4800480 524.673600
    522    523    535     1   111.0400475 552.288000
    522    526    538     1   111.0400475 552.288000
    522    529    532     1   111.0400475 552.288000
    523    522    526     1   112.3500484 533.878400
    523    522    529     1   112.3500484 533.878400
    523    535    547     1   111.5100476 526.347200
    526    522    529     1   112.3500484 533.878400
    526    538    544     1   111.5100476 526.347200
    529    532    541     1   111.5100476 526.347200
    532    541    550     1   107.9700462 569.024000
    535    547   1159     1   107.9700462 569.024000
    538    544   1130     1   107.9700462 569.024000
    544   1130   1121     1   112.4800480 524.673600
    547   1159   1150     1   112.4800480 524.673600
    551    552    564     1   111.0400475 552.288000
    551    555    567     1   111.0400475 552.288000
    551    558    561     1   111.0400475 552.288000
    552    551    555     1   112.3500484 533.878400
    552    551    558     1   112.3500484 533.878400
    552    564    576     1   111.5100476 526.347200
    555    551    558     1   112.3500484 533.878400
    555    567    573     1   111.5100476 526.347200
    558    561    570     1   111.5100476 526.347200
    561    570    579     1   107.9700462 569.024000
    564    576   1217     1   107.9700462 569.024000
    567    573   1188     1   107.9700462 569.024000
    573   1188   1179     1   112.4800480 524.673600
    576   1217   1208     1   112.4800480 524.673600
    580    581    593     1   111.0400475 552.288000
    580    584    596     1   111.0400475 552.288000
    580    587    590     1   111.0400475 552.288000
    581    580    584     1   112.3500484 533.878400
    581    580    587     1   112.3500484 533.878400
    581    593    605     1   111.5100476 526.347200
    584    580    587     1   112.3500484 533.878400
    584    596    602     1   111.5100476 526.347200
    587    590    599     1   111.5100476 526.347200
    590    599    608     1   107.9700462 569.024000
    593    605   1275     1   107.9700462 569.024000
    596    602   1246     1   107.9700462 569.024000
    602   1246   1237     1   112.4800480 524.673600
    605   1275   1266     1   112.4800480 524.673600
    609    610    622     1   111.0400475 552.288000
    609    613    625     1   111.0400475 552.288000
    609    616    619     1   111.0400475 552.288000
    610    609    613     1   112.3500484 533.878400
    610    609    616     1   112.3500484 533.878400
    610    622    634     1   111.5100476 526.347200
    613    609    616     1   112.3500484 533.878400
    613    625    631     1   111.5100476 526.347200
    616    619    628     1   111.5100476 526.347200
    619    628    637     1   107.9700462 569.024000
    622    634   1333     1   107.9700462 569.024000
    625    631   1304     1   107.9700462 569.024000
    631   1304   1295     1   112.4800480 524.673600
    634   1333   1324     1   112.4800480 524.673600
    638    639    651     1   111.0400475 552.288000
    638    642    654     1   111.0400475 552.288000
    638    645    648     1   111.0400475 552.288000
    639    638    642     1   112.3500484 533.878400
    639    638    645     1   112.3500484 533.878400
    639    651    663     1   111.5100476 526.347200
    642    638    645     1   112.3500484 533.878400
    642    654    660     1   111.5100476 526.347200
    645    648    657     1   111.5100476 526.347200
    648    657    666     1   107.9700462 569.024000
    651    663   1391     1   107.9700462 569.024000
    654    660   1362     1   107.9700462 569.024000
    660   1362   1353     1   112.4800480 524.673600
    663   1391   1382     1   112.4800480 524.673600
    667    668    680     1   111.0400475 552.288000
    667    671    683     1   111.0400475 552.288000
    667    674    677     1   111.0400475 552.288000
    668    667    671     1   112.3500484 533.878400
    668    667    674     1   112.3500484 533.878400
    668    680    692     1   111.5100476 526.347200
    671    667    674     1   112.3500484 533.878400
    671    683    689     1   111.5100476 526.347200
    674    677    686     1   111.5100476 526.347200
    677    686    695     1   107.9700462 569.024000
    680    692   1449     1   107.9700462 569.024000
    683    689   1420     1   107.9700462 569.024000
    689   1420   1411     1   112.4800480 524.673600
    692   1449   1440     1   112.4800480 524.673600
    696    697    709     1   111.0400475 552.288000
    696    700    712     1   111.0400475 552.288000
    696    703    706     1   111.0400475 552.288000
    697    696    700     1   112.3500484 533.878400
    697    696    703     1   112.3500484 533.878400
    697    709    721     1   111.5100476 526.347200
    700    696    703     1   112.3500484 533.878400
    700    712    718     1   111.5100476 526.347200
    703    706    715     1   111.5100476 526.347200
    706    715    724     1   107.9700462 569.024000
    709    721   1507     1   107.9700462 569.024000
    712    718   1478     1   107.9700462 569.024000
    718   1478   1469     1   112.4800480 524.673600
    721   1507   1498     1   112.4800480 524.673600
    725    726    738     1   111.0400475 552.288000
    725    729    741     1   111.0400475 552.288000
    725    732    735     1   111.0400475 552.288000
    726    725    729     1   112.3500484 533.878400
    726    725    732     1   112.3500484 533.878400
    726    738    750     1   111.5100476 526.347200
    729    725    732     1   112.3500484 533.878400
    729    741    747     1   111.5100476 526.347200
    732    735    744     1   111.5100476 526.347200
    735    744    753     1   107.9700462 569.024000
    738    750   1565     1   107.9700462 569.024000
    741    747   1536     1   107.9700462 569.024000
    747   1536   1527     1   112.4800480 524.673600
    750   1565   1556     1   112.4800480 524.673600
    754    755    767     1   111.0400475 552.288000
    754    758    770     1   111.0400475 552.288000
    754    761    764     1   111.0400475 552.288000
    755    754    758     1   112.3500484 533.878400
    755    754    761     1   112.3500484 533.878400
    755    767    779     1   111.5100476 526.347200
    758    754    761     1   112.3500484 533.878400
    758    770    776     1   111.5100476 526.347200
    761    764    773     1   111.5100476 526.347200
    764    773    782     1   107.9700462 569.024000
    767    779   1623     1   107.9700462 569.024000
    770    776   1594     1   107.9700462 569.024000
    776   1594   1585     1   112.4800480 524.673600
    779   1623   1614     1   112.4800480 524.673600
    783    784    796     1   111.0400475 552.288000
    783    787    799     1   111.0400475 552.288000
    783    790    793     1   111.0400475 552.288000
    784    783    787     1   112.3500484 533.878400
    784    783    790     1   112.3500484 533.878400
    784    796    808     1   111.5100476 526.347200
    787    783    790     1   112.3500484 533.878400
    787    799    805     1   111.5100476 526.347200
    790    793    802     1   111.5100476 526.347200
    793    802    811     1   107.9700462 569.024000
    796    808   1681     1   107.9700462 569.024000
    799    805   1652     1   107.9700462 569.024000
    805   1652   1643     1   112.4800480 524.673600
    808   1681   1672     1   112.4800480 524.673600
    812    813    825     1   111.0400475 552.288000
    812    816    828     1   111.0400475 552.288000
    812    819    822     1   111.0400475 552.288000
    813    812    816     1   112.3500484 533.878400
    813    812    819     1   112.3500484 533.878400
    813    825    837     1   111.5100476 526.347200
    816    812    819     1   112.3500484 533.878400
    816    828    834     1   111.5100476 526.347200
    819    822    831     1   111.5100476 526.347200
    822    831    840     1   107.9700462 569.024000
    825    837   1739     1   107.9700462 569.024000
    828    834   1710     1   107.9700462 569.024000
    834   1710   1701     1   112.4800480 524.673600
    837   1739   1730     1   112.4800480 524.673600
    841    842    854     1   111.0400475 552.288000
    841    845    857     1   111.0400475 552.288000
    841    848    851     1   111.0400475 552.288000
    842    841    845     1   112.3500484 533.878400
    842    841    848     1   112.3500484 533.878400
    842    854    866     1   111.5100476 526.347200
    845    841    848     1   112.3500484 533.878400
    845    857    863     1   111.5100476 526.347200
    848    851    860     1   111.5100476 526.347200
    851    860    869     1   107.9700462 569.024000
    854    866   1797     1   107.9700462 569.024000
    857    863   1768     1   107.9700462 569.024000
    863   1768   1759     1   112.4800480 524.673600
    866   1797   1788     1   112.4800480 524.673600
    870    871    883     1   111.0400475 552.288000
    870    874    886     1   111.0400475 552.288000
    870    877    880     1   111.0400475 552.288000
    871    870    874     1   112.3500484 533.878400
    871    870    877     1   112.3500484 533.878400
    871    883    895     1   111.5100476 526.347200
    874    870    877     1   112.3500484 533.878400
    874    886    892     1   111.5100476 526.347200
    877    880    889     1   111.5100476 526.347200
    880    889    898     1   107.9700462 569.024000
    883    895   1855     1   107.9700462 569.024000
    886    892   1826     1   107.9700462 569.024000
    892   1826   1817     1   112.4800480 524.673600
    895   1855   1846     1   112.4800480 524.673600
    899    900    912     1   111.0400475 552.288000
    899    903    915     1   111.0400475 552.288000
    899    906    909     1   111.0400475 552.288000
    900    899    903     1   112.3500484 533.878400
    900    899    906     1   112.3500484 533.878400
    900    912    924     1   111.5100476 526.347200
    903    899    906     1   112.3500484 533.878400
    903    915    921     1   111.5100476 526.347200
    906    909    918     1   111.5100476 526.347200
    909    918    927     1   107.9700462 569.024000
    912    924   1913     1   107.9700462 569.024000
    915    921   1884     1   107.9700462 569.024000
    921   1884   1875     1   112.4800480 524.673600
    924   1913   1904     1   112.4800480 524.673600
    928    929    941     1   111.0400475 552.288000
    928    932    944     1   111.0400475 552.288000
    928    935    938     1   111.0400475 552.288000
    929    928    932     1   112.3500484 533.878400
    929    928    935     1   112.3500484 533.878400
    929    941    953     1   111.5100476 526.347200
    932    928    935     1   112.3500484 533.878400
    932    944    950     1   111.5100476 526.347200
    935    938    947     1   111.5100476 526.347200
    938    947    956     1   107.9700462 569.024000
    941    953   1971     1   107.9700462 569.024000
    944    950   1942     1   107.9700462 569.024000
    950   1942   1933     1   112.4800480 524.673600
    953   1971   1962     1   112.4800480 524.673600
    957    958    970     1   111.0400475 552.288000
    957    961    973     1   111.0400475 552.288000
    957    964    967     1   111.0400475 552.288000
    958    957    961     1   112.3500484 533.878400
    958    957    964     1   112.3500484 533.878400
    958    970    982     1   111.5100476 526.347200
    961    957    964     1   112.3500484 533.878400
    961    973    979     1   111.5100476 526.347200
    964    967    976     1   111.5100476 526.347200
    967    976    985     1   107.9700462 569.024000
    970    982   2029     1   107.9700462 569.024000
    973    979   2000     1   107.9700462 569.024000
    979   2000   1991     1   112.4800480 524.673600
    982   2029   2020     1   112.4800480 524.673600
    986    987    999     1   111.0400475 552.288000
    986    990   1002     1   111.0400475 552.288000
    986    993    996     1   111.0400475 552.288000
    987    986    990     1   112.3500484 533.878400
    987    986    993     1   112.3500484 533.878400
    987    999   1011     1   111.5100476 526.347200
    990    986    993     1   112.3500484 533.878400
    990   1002   1008     1   111.5100476 526.347200
    993    996   1005     1   111.5100476 526.347200
    996   1005   1014     1   107.9700462 569.024000
    999   1011   2087     1   107.9700462 569.024000
   1002   1008   2058     1   107.9700462 569.024000
   1008   2058   2049     1   112.4800480 524.673600
   1011   2087   2078     1   112.4800480 524.673600
   1015   1016   1028     1   111.0400475 552.288000
   1015   1019   1031     1   111.0400475 552.288000
   1015   1022   1025     1   111.0400475 552.288000
   1016   1015   1019     1   112.3500484 533.878400
   1016   1015   1022     1   112.3500484 533.878400
   1016   1028   1040     1   111.5100476 526.347200
   1019   1015   1022     1   112.3500484 533.878400
   1019   1031   1037     1   111.5100476 526.347200
   1022   1025   1034     1   111.5100476 526.347200
   1025   1034   1043     1   107.9700462 569.024000
   1028   1040   2145     1   107.9700462 569.024000
   1031   1037   2116     1   107.9700462 569.024000
   1037   2116   2107     1   112.4800480 524.673600
   1040   2145   2136     1   112.4800480 524.673600
   1044   1045   1057     1   111.0400475 552.288000
   1044   1048   1060     1   111.0400475 552.288000
   1044   1051   1054     1   111.0400475 552.288000
   1045   1044   1048     1   112.3500484 533.878400
   1045   1044   1051     1   112.3500484 533.878400
   1045   1057   1069     1   111.5100476 526.347200
   1048   1044   1051     1   112.3500484 533.878400
   1048   1060   1066     1   111.5100476 526.347200
   1051   1054   1063     1   111.5100476 526.347200
   1054   1063   1072     1   107.9700462 569.024000
   1057   1069   2203     1   107.9700462 569.024000
   1060   1066   2174     1   107.9700462 569.024000
   1066   2174   2165     1   112.4800480 524.673600
   1069   2203   2194     1   112.4800480 524.673600
   1073   1074   1086     1   111.0400475 552.288000
   1073   1077   1089     1   111.0400475 552.288000
   1073   1080   1083     1   111.0400475 552.288000
   1074   1073   1077     1   112.3500484 533.878400
   1074   1073   1080     1   112.3500484 533.878400
   1074   1086   1098     1   111.5100476 526.347200
   1077   1073   1080     1   112.3500484 533.878400
   1077   1089   1095     1   111.5100476 526.347200
   1080   1083   1092     1   111.5100476 526.347200
   1083   1092   1101     1   107.9700462 569.024000
   1086   1098   2261     1   107.9700462 569.024000
   1089   1095   2232     1   107.9700462 569.024000
   1095   2232   2223     1   112.4800480 524.673600
   1098   2261   2252     1   112.4800480 524.673600
   1102   1103   1115     1   111.0400475 552.288000
   1102   1106   1118     1   111.0400475 552.288000
   1102   1109   1112     1   111.0400475 552.288000
   1103   1102   1106     1   112.3500484 533.878400
   1103   1102   1109     1   112.3500484 533.878400
   1103   1115   1127     1   111.5100476 526.347200
   1106   1102   1109     1   112.3500484 533.878400
   1106   1118   1124     1   111.5100476 526.347200
   1109   1112   1121     1   111.5100476 526.347200
   1112   1121   1130     1   107.9700462 569.024000
   1115   1127   2319     1   107.9700462 569.024000
   1118   1124   2290     1   107.9700462 569.024000
   1124   2290   2281     1   112.4800480 524.673600
   1127   2319   2310     1   112.4800480 524.673600
   1131   1132   1144     1   111.0400475 552.288000
   1131   1135   1147     1   111.0400475 552.288000
   1131   1138   1141     1   111.0400475 552.288000
   1132   1131   1135     1   112.3500484 533.878400
   1132   1131   1138     1   112.3500484 533.878400
   1132   1144   1156     1   111.5100476 526.347200
   1135   1131   1138     1   112.3500484 533.878400
   1135   1147   1153     1   111.5100476 526.347200
   1138   1141   1150     1   111.5100476 526.347200
   1141   1150   1159     1   107.9700462 569.024000
   1144   1156   2377     1   107.9700462 569.024000
   1147   1153   2348     1   107.9700462 569.024000
   1153   2348   2339     1   112.4800480 524.673600
   1156   2377   2368     1   112.4800480 524.673600
   1160   1161   1173     1   111.0400475 552.288000
   1160   1164   1176     1   111.0400475 552.288000
   1160   1167   1170     1   111.0400475 552.288000
   1161   1160   1164     1   112.3500484 533.878400
   1161   1160   1167     1   112.3500484 533.878400
   1161   1173   1185     1   111.5100476 526.347200
   1164   1160   1167     1   112.3500484 533.878400
   1164   1176   1182     1   111.5100476 526.347200
   1167   1170   1179     1   111.5100476 526.347200
   1170   1179   1188     1   107.9700462 569.024000
   1173   1185   2435     1   107.9700462 569.024000
   1176   1182   2406     1   107.9700462 569.024000
   1182   2406   2397     1   112.4800480 524.673600
   1185   2435   2426     1   112.4800480 524.673600
   1189   1190   1202     1   111.0400475 552.288000
   1189   1193   1205     1   111.0400475 552.288000
   1189   1196   1199     1   111.0400475 552.288000
   1190   1189   1193     1   112.3500484 533.878400
   1190   1189   1196     1   112.3500484 533.878400
   1190   1202   1214     1   111.5100476 526.347200
   1193   1189   1196     1   112.3500484 533.878400
   1193   1205   1211     1   111.5100476 526.347200
   1196   1199   1208     1   111.5100476 526.347200
   1199   1208   1217     1   107.9700462 569.024000
   1202   1214   2493     1   107.9700462 569.024000
   1205   1211   2464     1   107.9700462 569.024000
   1211   2464   2455     1   112.4800480 524.673600
   1214   2493   2484     1   112.4800480 524.673600
   1218   1219   1231     1   111.0400475 552.288000
   1218   1222   1234     1   111.0400475 552.288000
   1218   1225   1228     1   111.0400475 552.288000
   1219   1218   1222     1   112.3500484 533.878400
   1219   1218   1225     1   112.3500484 533.878400
   1219   1231   1243     1   111.5100476 526.347200
   1222   1218   1225     1   112.3500484 533.878400
   1222   1234   1240     1   111.5100476 526.347200
   1225   1228   1237     1   111.5100476 526.347200
   1228   1237   1246     1   107.9700462 569.024000
   1231   1243   2551     1   107.9700462 569.024000
   1234   1240   2522     1   107.9700462 569.024000
   1240   2522   2513     1   112.4800480 524.673600
   1243   2551   2542     1   112.4800480 524.673600
   1247   1248   1260     1   111.0400475 552.288000
   1247   1251   1263     1   111.0400475 552.288000
   1247   1254   1257     1   111.0400475 552.288000
   1248   1247   1251     1   112.3500484 533.878400
   1248   1247   1254     1   112.3500484 533.878400
   1248   1260   1272     1   111.5100476 526.347200
   1251   1247   1254     1   112.3500484 533.878400
   1251   1263   1269     1   111.5100476 526.347200
   1254   1257   1266     1   111.5100476 526.347200
   1257   1266   1275     1   107.9700462 569.024000
   1260   1272   2609     1   107.9700462 569.024000
   1263   1269   2580     1   107.9700462 569.024000
   1269   2580   2571     1   112.4800480 524.673600
   1272   2609   2600     1   112.4800480 524.673600
   1276   1277   1289     1   111.0400475 552.288000
   1276   1280   1292     1   111.0400475 552.288000
   1276   1283   1286     1   111.0400475 552.288000
   1277   1276   1280     1   112.3500484 533.878400
   1277   1276   1283     1   112.3500484 533.878400
   1277   1289   1301     1   111.5100476 526.347200
   1280   1276   1283     1   112.3500484 533.878400
   1280   1292   1298     1   111.5100476 526.347200
   1283   1286   1295     1   111.5100476 526.347200
   1286   1295   1304     1   107.9700462 569.024000
   1289   1301   2667     1   107.9700462 569.024000
   1292   1298   2638     1   107.9700462 569.024000
   1298   2638   2629     1   112.4800480 524.673600
   1301   2667   2658     1   112.4800480 524.673600
   1305   1306   1318     1   111.0400475 552.288000
   1305   1309   1321     1   111.0400475 552.288000
   1305   1312   1315     1   111.0400475 552.288000
   1306   1305   1309     1   112.3500484 533.878400
   1306   1305   1312     1   112.3500484 533.878400
   1306   1318   1330     1   111.5100476 526.347200
   1309   1305   1312     1   112.3500484 533.878400
   1309   1321   1327     1   111.5100476 526.347200
   1312   1315   1324     1   111.5100476 526.347200
   1315   1324   1333     1   107.9700462 569.024000
   1318   1330   2725     1   107.9700462 569.024000
   1321   1327   2696     1   107.9700462 569.024000
   1327   2696   2687     1   112.4800480 524.673600
   1330   2725   2716     1   112.4800480 524.673600
   1334   1335   1347     1   111.0400475 552.288000
   1334   1338   1350     1   111.0400475 552.288000
   1334   1341   1344     1   111.0400475 552.288000
   1335   1334   1338     1   112.3500484 533.878400
   1335   1334   1341     1   112.3500484 533.878400
   1335   1347   1359     1   111.5100476 526.347200
   1338   1334   1341     1   112.3500484 533.878400
   1338   1350   1356     1   111.5100476 526.347200
   1341   1344   1353     1   111.5100476 526.347200
   1344   1353   1362     1   107.9700462 569.024000
   1347   1359   2783     1   107.9700462 569.024000
   1350   1356   2754     1   107.9700462 569.024000
   1356   2754   2745     1   112.4800480 524.673600
   1359   2783   2774     1   112.4800480 524.673600
   1363   1364   1376     1   111.0400475 552.288000
   1363   1367   1379     1   111.0400475 552.288000
   1363   1370   1373     1   111.0400475 552.288000
   1364   1363   1367     1   112.3500484 533.878400
   1364   1363   1370     1   112.3500484 533.878400
   1364   1376   1388     1   111.5100476 526.347200
   1367   1363   1370     1   112.3500484 533.878400
   1367   1379   1385     1   111.5100476 526.347200
   1370   1373   1382     1   111.5100476 526.347200
   1373   1382   1391     1   107.9700462 569.024000
   1376   1388   2841     1   107.9700462 569.024000
   1379   1385   2812     1   107.9700462 569.024000
   1385   2812   2803     1   112.4800480 524.673600
   1388   2841   2832     1   112.4800480 524.673600
   1392   1393   1405     1   111.0400475 552.288000
   1392   1396   1408     1   111.0400475 552.288000
   1392   1399   1402     1   111.0400475 552.288000
   1393   1392   1396     1   112.3500484 533.878400
   1393   1392   1399     1   112.3500484 533.878400
   1393   1405   1417     1   111.5100476 526.347200
   1396   1392   1399     1   112.3500484 533.878400
   1396   1408   1414     1   111.5100476 526.347200
   1399   1402   1411     1   111.5100476 526.347200
   1402   1411   1420     1   107.9700462 569.024000
   1405   1417   2899     1   107.9700462 569.024000
   1408   1414   2870     1   107.9700462 569.024000
   1414   2870   2861     1   112.4800480 524.673600
   1417   2899   2890     1   112.4800480 524.673600
   1421   1422   1434     1   111.0400475 552.288000
   1421   1425   1437     1   111.0400475 552.288000
   1421   1428   1431     1   111.0400475 552.288000
   1422   1421   1425     1   112.3500484 533.878400
   1422   1421   1428     1   112.3500484 533.878400
   1422   1434   1446     1   111.5100476 526.347200
   1425   1421   1428     1   112.3500484 533.878400
   1425   1437   1443     1   111.5100476 526.347200
   1428   1431   1440     1   111.5100476 526.347200
   1431   1440   1449     1   107.9700462 569.024000
   1434   1446   2957     1   107.9700462 569.024000
   1437   1443   2928     1   107.9700462 569.024000
   1443   2928   2919     1   112.4800480 524.673600
   1446   2957   2948     1   112.4800480 524.673600
   1450   1451   1463     1   111.0400475 552.288000
   1450   1454   1466     1   111.0400475 552.288000
   1450   1457   1460     1   111.0400475 552.288000
   1451   1450   1454     1   112.3500484 533.878400
   1451   1450   1457     1   112.3500484 533.878400
   1451   1463   1475     1   111.5100476 526.347200
   1454   1450   1457     1   112.3500484 533.878400
   1454   1466   1472     1   111.5100476 526.347200
   1457   1460   1469     1   111.5100476 526.347200
   1460   1469   1478     1   107.9700462 569.024000
   1463   1475   3015     1   107.9700462 569.024000
   1466   1472   2986     1   107.9700462 569.024000
   1472   2986   2977     1   112.4800480 524.673600
   1475   3015   3006     1   112.4800480 524.673600
   1479   1480   1492     1   111.0400475 552.288000
   1479   1483   1495     1   111.0400475 552.288000
   1479   1486   1489     1   111.0400475 552.288000
   1480   1479   1483     1   112.3500484 533.878400
   1480   1479   1486     1   112.3500484 533.878400
   1480   1492   1504     1   111.5100476 526.347200
   1483   1479   1486     1   112.3500484 533.878400
   1483   1495   1501     1   111.5100476 526.347200
   1486   1489   1498     1   111.5100476 526.347200
   1489   1498   1507     1   107.9700462 569.024000
   1492   1504   3073     1   107.9700462 569.024000
   1495   1501   3044     1   107.9700462 569.024000
   1501   3044   3035     1   112.4800480 524.673600
   1504   3073   3064     1   112.4800480 524.673600
   1508   1509   1521     1   111.0400475 552.288000
   1508   1512   1524     1   111.0400475 552.288000
   1508   1515   1518     1   111.0400475 552.288000
   1509   1508   1512     1   112.3500484 533.878400
   1509   1508   1515     1   112.3500484 533.878400
   1509   1521   1533     1   111.5100476 526.347200
   1512   1508   1515     1   112.3500484 533.878400
   1512   1524   1530     1   111.5100476 526.347200
   1515   1518   1527     1   111.5100476 526.347200
   1518   1527   1536     1   107.9700462 569.024000
   1521   1533   3131     1   107.9700462 569.024000
   1524   1530   3102     1   107.9700462 569.024000
   1530   3102   3093     1   112.4800480 524.673600
   1533   3131   3122     1   112.4800480 524.673600
   1537   1538   1550     1   111.0400475 552.288000
   1537   1541   1553     1   111.0400475 552.288000
   1537   1544   1547     1   111.0400475 552.288000
   1538   1537   1541     1   112.3500484 533.878400
   1538   1537   1544     1   112.3500484 533.878400
   1538   1550   1562     1   111.5100476 526.347200
   1541   1537   1544     1   112.3500484 533.878400
   1541   1553   1559     1   111.5100476 526.347200
   1544   1547   1556     1   111.5100476 526.347200
   1547   1556   1565     1   107.9700462 569.024000
   1550   1562   3189     1   107.9700462 569.024000
   1553   1559   3160     1   107.9700462 569.024000
   1559   3160   3151     1   112.4800480 524.673600
   1562   3189   3180     1   112.4800480 524.673600
   1566   1567   1579     1   111.0400475 552.288000
   1566   1570   1582     1   111.0400475 552.288000
   1566   1573   1576     1   111.0400475 552.288000
   1567   1566   1570     1   112.3500484 533.878400
   1567   1566   1573     1   112.3500484 533.878400
   1567   1579   1591     1   111.5100476 526.347200
   1570   1566   1573     1   112.3500484 533.878400
   1570   1582   1588     1   111.5100476 526.347200
   1573   1576   1585     1   111.5100476 526.347200
   1576   1585   1594     1   107.9700462 569.024000
   1579   1591   3247     1   107.9700462 569.024000
   1582   1588   3218     1   107.9700462 569.024000
   1588   3218   3209     1   112.4800480 524.673600
   1591   3247   3238     1   112.4800480 524.673600
   1595   1596   1608     1   111.0400475 552.288000
   1595   1599   1611     1   111.0400475 552.288000
   1595   1602   1605     1   111.0400475 552.288000
   1596   1595   1599     1   112.3500484 533.878400
   1596   1595   1602     1   112.3500484 533.878400
   1596   1608   1620     1   111.5100476 526.347200
   1599   1595   1602     1   112.3500484 533.878400
   1599   1611   1617     1   111.5100476 526.347200
   1602   1605   1614     1   111.5100476 526.347200
   1605   1614   1623     1   107.9700462 569.024000
   1608   1620   3305     1   107.9700462 569.024000
   1611   1617   3276     1   107.9700462 569.024000
   1617   3276   3267     1   112.4800480 524.673600
   1620   3305   3296     1   112.4800480 524.673600
   1624   1625   1637     1   111.0400475 552.288000
   1624   1628   1640     1   111.0400475 552.288000
   1624   1631   1634     1   111.0400475 552.288000
   1625   1624   1628     1   112.3500484 533.878400
   1625   1624   1631     1   112.3500484 533.878400
   1625   1637   1649     1   111.5100476 526.347200
   1628   1624   1631     1   112.3500484 533.878400
   1628   1640   1646     1   111.5100476 526.347200
   1631   1634   1643     1   111.5100476 526.347200
   1634   1643   1652     1   107.9700462 569.024000
   1637   1649   3363     1   107.9700462 569.024000
   1640   1646   3334     1   107.9700462 569.024000
   1646   3334   3325     1   112.4800480 524.673600
   1649   3363   3354     1   112.4800480 524.673600
   1653   1654   1666     1   111.0400475 552.288000
   1653   1657   1669     1   111.0400475 552.288000
   1653   1660   1663     1   111.0400475 552.288000
   1654   1653   1657     1   112.3500484 533.878400
   1654   1653   1660     1   112.3500484 533.878400
   1654   1666   1678     1   111.5100476 526.347200
   1657   1653   1660     1   112.3500484 533.878400
   1657   1669   1675     1   111.5100476 526.347200
   1660   1663   1672     1   111.5100476 526.347200
   1663   1672   1681     1   107.9700462 569.024000
   1666   1678   3421     1   107.9700462 569.024000
   1669   1675   3392     1   107.9700462 569.024000
   1675   3392   3383     1   112.4800480 524.673600
   1678   3421   3412     1   112.4800480 524.673600
   1682   1683   1695     1   111.0400475 552.288000
   1682   1686   1698     1   111.0400475 552.288000
   1682   1689   1692     1   111.0400475 552.288000
   1683   1682   1686     1   112.3500484 533.878400
   1683   1682   1689     1   112.3500484 533.878400
   1683   1695   1707     1   111.5100476 526.347200
   1686   1682   1689     1   112.3500484 533.878400
   1686   1698   1704     1   111.5100476 526.347200
   1689   1692   1701     1   111.5100476 526.347200
   1692   1701   1710     1   107.9700462 569.024000
   1695   1707   3479     1   107.9700462 569.024000
   1698   1704   3450     1   107.9700462 569.024000
   1704   3450   3441     1   112.4800480 524.673600
   1707   3479   3470     1   112.4800480 524.673600
   1711   1712   1724     1   111.0400475 552.288000
   1711   1715   1727     1   111.0400475 552.288000
   1711   1718   1721     1   111.0400475 552.288000
   1712   1711   1715     1   112.3500484 533.878400
   1712   1711   1718     1   112.3500484 533.878400
   1712   1724   1736     1   111.5100476 526.347200
   1715   1711   1718     1   112.3500484 533.878400
   1715   1727   1733     1   111.5100476 526.347200
   1718   1721   1730     1   111.5100476 526.347200
   1721   1730   1739     1   107.9700462 569.024000
   1724   1736   3537     1   107.9700462 569.024000
   1727   1733   3508     1   107.9700462 569.024000
   1733   3508   3499     1   112.4800480 524.673600
   1736   3537   3528     1   112.4800480 524.673600
   1740   1741   1753     1   111.0400475 552.288000
   1740   1744   1756     1   111.0400475 552.288000
   1740   1747   1750     1   111.0400475 552.288000
   1741   1740   1744     1   112.3500484 533.878400
   1741   1740   1747     1   112.3500484 533.878400
   1741   1753   1765     1   111.5100476 526.347200
   1744   1740   1747     1   112.3500484 533.878400
   1744   1756   1762     1   111.5100476 526.347200
   1747   1750   1759     1   111.5100476 526.347200
   1750   1759   1768     1   107.9700462 569.024000
   1753   1765   3595     1   107.9700462 569.024000
   1756   1762   3566     1   107.9700462 569.024000
   1762   3566   3557     1   112.4800480 524.673600
   1765   3595   3586     1   112.4800480 524.673600
   1769   1770   1782     1   111.0400475 552.288000
   1769   1773   1785     1   111.0400475 552.288000
   1769   1776   1779     1   111.0400475 552.288000
   1770   1769   1773     1   112.3500484 533.878400
   1770   1769   1776     1   112.3500484 533.878400
   1770   1782   1794     1   111.5100476 526.347200
   1773   1769   1776     1   112.3500484 533.878400
   1773   1785   1791     1   111.5100476 526.347200
   1776   1779   1788     1   111.5100476 526.347200
   1779   1788   1797     1   107.9700462 569.024000
   1782   1794   3653     1   107.9700462 569.024000
   1785   1791   3624     1   107.9700462 569.024000
   1791   3624   3615     1   112.4800480 524.673600
   1794   3653   3644     1   112.4800480 524.673600
   1798   1799   1811     1   111.0400475 552.288000
   1798   1802   1814     1   111.0400475 552.288000
   1798   1805   1808     1   111.0400475 552.288000
   1799   1798   1802     1   112.3500484 533.878400
   1799   1798   1805     1   112.3500484 533.878400
   1799   1811   1823     1   111.5100476 526.347200
   1802   1798   1805     1   112.3500484 533.878400
   1802   1814   1820     1   111.5100476 526.347200
   1805   1808   1817     1   111.5100476 526.347200
   1808   1817   1826     1   107.9700462 569.024000
   1811   1823   3711     1   107.9700462 569.024000
   1814   1820   3682     1   107.9700462 569.024000
   1820   3682   3673     1   112.4800480 524.673600
   1823   3711   3702     1   112.4800480 524.673600
   1827   1828   1840     1   111.0400475 552.288000
   1827   1831   1843     1   111.0400475 552.288000
   1827   1834   1837     1   111.0400475 552.288000
   1828   1827   1831     1   112.3500484 533.878400
   1828   1827   1834     1   112.3500484 533.878400
   1828   1840   1852     1   111.5100476 526.347200
   1831   1827   1834     1   112.3500484 533.878400
   1831   1843   1849     1   111.5100476 526.347200
   1834   1837   1846     1   111.5100476 526.347200
   1837   1846   1855     1   107.9700462 569.024000
   1840   1852   3769     1   107.9700462 569.024000
   1843   1849   3740     1   107.9700462 569.024000
   1849   3740   3731     1   112.4800480 524.673600
   1852   3769   3760     1   112.4800480 524.673600
   1856   1857   1869     1   111.0400475 552.288000
   1856   1860   1872     1   111.0400475 552.288000
   1856   1863   1866     1   111.0400475 552.288000
   1857   1856   1860     1   112.3500484 533.878400
   1857   1856   1863     1   112.3500484 533.878400
   1857   1869   1881     1   111.5100476 526.347200
   1860   1856   1863     1   112.3500484 533.878400
   1860   1872   1878     1   111.5100476 526.347200
   1863   1866   1875     1   111.5100476 526.347200
   1866   1875   1884     1   107.9700462 569.024000
   1869   1881   3827     1   107.9700462 569.024000
   1872   1878   3798     1   107.9700462 569.024000
   1878   3798   3789     1   112.4800480 524.673600
   1881   3827   3818     1   112.4800480 524.673600
   1885   1886   1898     1   111.0400475 552.288000
   1885   1889   1901     1   111.0400475 552.288000
   1885   1892   1895     1   111.0400475 552.288000
   1886   1885   1889     1   112.3500484 533.878400
   1886   1885   1892     1   112.3500484 533.878400
   1886   1898   1910     1   111.5100476 526.347200
   1889   1885   1892     1   112.3500484 533.878400
   1889   1901   1907     1   111.5100476 526.347200
   1892   1895   1904     1   111.5100476 526.347200
   1895   1904   1913     1   107.9700462 569.024000
   1898   1910   3885     1   107.9700462 569.024000
   1901   1907   3856     1   107.9700462 569.024000
   1907   3856   3847     1   112.4800480 524.673600
   1910   3885   3876     1   112.4800480 524.673600
   1914   1915   1927     1   111.0400475 552.288000
   1914   1918   1930     1   111.0400475 552.288000
   1914   1921   1924     1   111.0400475 552.288000
   1915   1914   1918     1   112.3500484 533.878400
   1915   1914   1921     1   112.3500484 533.878400
   1915   1927   1939     1   111.5100476 526.347200
   1918   1914   1921     1   112.3500484 533.878400
   1918   1930   1936     1   111.5100476 526.347200
   1921   1924   1933     1   111.5100476 526.347200
   1924   1933   1942     1   107.9700462 569.024000
   1927   1939   3943     1   107.9700462 569.024000
   1930   1936   3914     1   107.9700462 569.024000
   1936   3914   3905     1   112.4800480 524.673600
   1939   3943   3934     1   112.4800480 524.673600
   1943   1944   1956     1   111.0400475 552.288000
   1943   1947   1959     1   111.0400475 552.288000
   1943   1950   1953     1   111.0400475 552.288000
   1944   1943   1947     1   112.3500484 533.878400
   1944   1943   1950     1   112.3500484 533.878400
   1944   1956   1968     1   111.5100476 526.347200
   1947   1943   1950     1   112.3500484 533.878400
   1947   1959   1965     1   111.5100476 526.347200
   1950   1953   1962     1   111.5100476 526.347200
   1953   1962   1971     1   107.9700462 569.024000
   1956   1968   4001     1   107.9700462 569.024000
   1959   1965   3972     1   107.9700462 569.024000
   1965   3972   3963     1   112.4800480 524.673600
   1968   4001   3992     1   112.4800480 524.673600
   1972   1973   1985     1   111.0400475 552.288000
   1972   1976   1988     1   111.0400475 552.288000
   1972   1979   1982     1   111.0400475 552.288000
   1973   1972   1976     1   112.3500484 533.878400
   1973   1972   1979     1   112.3500484 533.878400
   1973   1985   1997     1   111.5100476 526.347200
   1976   1972   1979     1   112.3500484 533.878400
   1976   1988   1994     1   111.5100476 526.347200
   1979   1982   1991     1   111.5100476 526.347200
   1982   1991   2000     1   107.9700462 569.024000
   1985   1997   4059     1   107.9700462 569.024000
   1988   1994   4030     1   107.9700462 569.024000
   1994   4030   4021     1   112.4800480 524.673600
   1997   4059   4050     1   112.4800480 524.673600
   2001   2002   2014     1   111.0400475 552.288000
   2001   2005   2017     1   111.0400475 552.288000
   2001   2008   2011     1   111.0400475 552.288000
   2002   2001   2005     1   112.3500484 533.878400
   2002   2001   2008     1   112.3500484 533.878400
   2002   2014   2026     1   111.5100476 526.347200
   2005   2001   2008     1   112.3500484 533.878400
   2005   2017   2023     1   111.5100476 526.347200
   2008   2011   2020     1   111.5100476 526.347200
   2011   2020   2029     1   107.9700462 569.024000
   2014   2026   4117     1   107.9700462 569.024000
   2017   2023   4088     1   107.9700462 569.024000
   2023   4088   4079     1   112.4800480 524.673600
   2026   4117   4108     1   112.4800480 524.673600
   2030   2031   2043     1   111.0400475 552.288000
   2030   2034   2046     1   111.0400475 552.288000
   2030   2037   2040     1   111.0400475 552.288000
   2031   2030   2034     1   112.3500484 533.878400
   2031   2030   2037     1   112.3500484 533.878400
   2031   2043   2055     1   111.5100476 526.347200
   2034   2030   2037     1   112.3500484 533.878400
   2034   2046   2052     1   111.5100476 526.347200
   2037   2040   2049     1   111.5100476 526.347200
   2040   2049   2058     1   107.9700462 569.024000
   2043   2055   4175     1   107.9700462 569.024000
   2046   2052   4146     1   107.9700462 569.024000
   2052   4146   4137     1   112.4800480 524.673600
   2055   4175   4166     1   112.4800480 524.673600
   2059   2060   2072     1   111.0400475 552.288000
   2059   2063   2075     1   111.0400475 552.288000
   2059   2066   2069     1   111.0400475 552.288000
   2060   2059   2063     1   112.3500484 533.878400
   2060   2059   2066     1   112.3500484 533.878400
   2060   2072   2084     1   111.5100476 526.347200
   2063   2059   2066     1   112.3500484 533.878400
   2063   2075   2081     1   111.5100476 526.347200
   2066   2069   2078     1   111.5100476 526.347200
   2069   2078   2087     1   107.9700462 569.024000
   2072   2084   4233     1   107.9700462 569.024000
   2075   2081   4204     1   107.9700462 569.024000
   2081   4204   4195     1   112.4800480 524.673600
   2084   4233   4224     1   112.4800480 524.673600
   2088   2089   2101     1   111.0400475 552.288000
   2088   2092   2104     1   111.0400475 552.288000
   2088   2095   2098     1   111.0400475 552.288000
   2089   2088   2092     1   112.3500484 533.878400
   2089   2088   2095     1   112.3500484 533.878400
   2089   2101   2113     1   111.5100476 526.347200
   2092   2088   2095     1   112.3500484 533.878400
   2092   2104   2110     1   111.5100476 526.347200
   2095   2098   2107     1   111.5100476 526.347200
   2098   2107   2116     1   107.9700462 569.024000
   2101   2113   4291     1   107.9700462 569.024000
   2104   2110   4262     1   107.9700462 569.024000
   2110   4262   4253     1   112.4800480 524.673600
   2113   4291   4282     1   112.4800480 524.673600
   2117   2118   2130     1   111.0400475 552.288000
   2117   2121   2133     1   111.0400475 552.288000
   2117   2124   2127     1   111.0400475 552.288000
   2118   2117   2121     1   112.3500484 533.878400
   2118   2117   2124     1   112.3500484 533.878400
   2118   2130   2142     1   111.5100476 526.347200
   2121   2117   2124     1   112.3500484 533.878400
   2121   2133   2139     1   111.5100476 526.347200
   2124   2127   2136     1   111.5100476 526.347200
   2127   2136   2145     1   107.9700462 569.024000
   2130   2142   4349     1   107.9700462 569.024000
   2133   2139   4320     1   107.9700462 569.024000
   2139   4320   4311     1   112.4800480 524.673600
   2142   4349   4340     1   112.4800480 524.673600
   2146   2147   2159     1   111.0400475 552.288000
   2146   2150   2162     1   111.0400475 552.288000
   2146   2153   2156     1   111.0400475 552.288000
   2147   2146   2150     1   112.3500484 533.878400
   2147   2146   2153     1   112.3500484 533.878400
   2147   2159   2171     1   111.5100476 526.347200
   2150   2146   2153     1   112.3500484 533.878400
   2150   2162   2168     1   111.5100476 526.347200
   2153   2156   2165     1   111.5100476 526.347200
   2156   2165   2174     1   107.9700462 569.024000
   2159   2171   4407     1   107.9700462 569.024000
   2162   2168   4378     1   107.9700462 569.024000
   2168   4378   4369     1   112.4800480 524.673600
   2171   4407   4398     1   112.4800480 524.673600
   2175   2176   2188     1   111.0400475 552.288000
   2175   2179   2191     1   111.0400475 552.288000
   2175   2182   2185     1   111.0400475 552.288000
   2176   2175   2179     1   112.3500484 533.878400
   2176   2175   2182     1   112.3500484 533.878400
   2176   2188   2200     1   111.5100476 526.347200
   2179   2175   2182     1   112.3500484 533.878400
   2179   2191   2197     1   111.5100476 526.347200
   2182   2185   2194     1   111.5100476 526.347200
   2185   2194   2203     1   107.9700462 569.024000
   2188   2200   4465     1   107.9700462 569.024000
   2191   2197   4436     1   107.9700462 569.024000
   2197   4436   4427     1   112.4800480 524.673600
   2200   4465   4456     1   112.4800480 524.673600
   2204   2205   2217     1   111.0400475 552.288000
   2204   2208   2220     1   111.0400475 552.288000
   2204   2211   2214     1   111.0400475 552.288000
   2205   2204   2208     1   112.3500484 533.878400
   2205   2204   2211     1   112.3500484 533.878400
   2205   2217   2229     1   111.5100476 526.347200
   2208   2204   2211     1   112.3500484 533.878400
   2208   2220   2226     1   111.5100476 526.347200
   2211   2214   2223     1   111.5100476 526.347200
   2214   2223   2232     1   107.9700462 569.024000
   2217   2229   4523     1   107.9700462 569.024000
   2220   2226   4494     1   107.9700462 569.024000
   2226   4494   4485     1   112.4800480 524.673600
   2229   4523   4514     1   112.4800480 524.673600
   2233   2234   2246     1   111.0400475 552.288000
   2233   2237   2249     1   111.0400475 552.288000
   2233   2240   2243     1   111.0400475 552.288000
   2234   2233   2237     1   112.3500484 533.878400
   2234   2233   2240     1   112.3500484 533.878400
   2234   2246   2258     1   111.5100476 526.347200
   2237   2233   2240     1   112.3500484 533.878400
   2237   2249   2255     1   111.5100476 526.347200
   2240   2243   2252     1   111.5100476 526.347200
   2243   2252   2261     1   107.9700462 569.024000
   2246   2258   4581     1   107.9700462 569.024000
   2249   2255   4552     1   107.9700462 569.024000
   2255   4552   4543     1   112.4800480 524.673600
   2258   4581   4572     1   112.4800480 524.673600
   2262   2263   2275     1   111.0400475 552.288000
   2262   2266   2278     1   111.0400475 552.288000
   2262   2269   2272     1   111.0400475 552.288000
   2263   2262   2266     1   112.3500484 533.878400
   2263   2262   2269     1   112.3500484 533.878400
   2263   2275   2287     1   111.5100476 526.347200
   2266   2262   2269     1   112.3500484 533.878400
   2266   2278   2284     1   111.5100476 526.347200
   2269   2272   2281     1   111.5100476 526.347200
   2272   2281   2290     1   107.9700462 569.024000
   2275   2287   4639     1   107.9700462 569.024000
   2278   2284   4610     1   107.9700462 569.024000
   2284   4610   4601     1   112.4800480 524.673600
   2287   4639   4630     1   112.4800480 524.673600
   2291   2292   2304     1   111.0400475 552.288000
   2291   2295   2307     1   111.0400475 552.288000
   2291   2298   2301     1   111.0400475 552.288000
   2292   2291   2295     1   112.3500484 533.878400
   2292   2291   2298     1   112.3500484 533.878400
   2292   2304   2316     1   111.5100476 526.347200
   2295   2291   2298     1   112.3500484 533.878400
   2295   2307   2313     1   111.5100476 526.347200
   2298   2301   2310     1   111.5100476 526.347200
   2301   2310   2319     1   107.9700462 569.024000
   2304   2316   4697     1   107.9700462 569.024000
   2307   2313   4668     1   107.9700462 569.024000
   2313   4668   4659     1   112.4800480 524.673600
   2316   4697   4688     1   112.4800480 524.673600
   2320   2321   2333     1   111.0400475 552.288000
   2320   2324   2336     1   111.0400475 552.288000
   2320   2327   2330     1   111.0400475 552.288000
   2321   2320   2324     1   112.3500484 533.878400
   2321   2320   2327     1   112.3500484 533.878400
   2321   2333   2345     1   111.5100476 526.347200
   2324   2320   2327     1   112.3500484 533.878400
   2324   2336   2342     1   111.5100476 526.347200
   2327   2330   2339     1   111.5100476 526.347200
   2330   2339   2348     1   107.9700462 569.024000
   2333   2345   4755     1   107.9700462 569.024000
   2336   2342   4726     1   107.9700462 569.024000
   2342   4726   4717     1   112.4800480 524.673600
   2345   4755   4746     1   112.4800480 524.673600
   2349   2350   2362     1   111.0400475 552.288000
   2349   2353   2365     1   111.0400475 552.288000
   2349   2356   2359     1   111.0400475 552.288000
   2350   2349   2353     1   112.3500484 533.878400
   2350   2349   2356     1   112.3500484 533.878400
   2350   2362   2374     1   111.5100476 526.347200
   2353   2349   2356     1   112.3500484 533.878400
   2353   2365   2371     1   111.5100476 526.347200
   2356   2359   2368     1   111.5100476 526.347200
   2359   2368   2377     1   107.9700462 569.024000
   2362   2374   4813     1   107.9700462 569.024000
   2365   2371   4784     1   107.9700462 569.024000
   2371   4784   4775     1   112.4800480 524.673600
   2374   4813   4804     1   112.4800480 524.673600
   2378   2379   2391     1   111.0400475 552.288000
   2378   2382   2394     1   111.0400475 552.288000
   2378   2385   2388     1   111.0400475 552.288000
   2379   2378   2382     1   112.3500484 533.878400
   2379   2378   2385     1   112.3500484 533.878400
   2379   2391   2403     1   111.5100476 526.347200
   2382   2378   2385     1   112.3500484 533.878400
   2382   2394   2400     1   111.5100476 526.347200
   2385   2388   2397     1   111.5100476 526.347200
   2388   2397   2406     1   107.9700462 569.024000
   2391   2403   4871     1   107.9700462 569.024000
   2394   2400   4842     1   107.9700462 569.024000
   2400   4842   4833     1   112.4800480 524.673600
   2403   4871   4862     1   112.4800480 524.673600
   2407   2408   2420     1   111.0400475 552.288000
   2407   2411   2423     1   111.0400475 552.288000
   2407   2414   2417     1   111.0400475 552.288000
   2408   2407   2411     1   112.3500484 533.878400
   2408   2407   2414     1   112.3500484 533.878400
   2408   2420   2432     1   111.5100476 526.347200
   2411   2407   2414     1   112.3500484 533.878400
   2411   2423   2429     1   111.5100476 526.347200
   2414   2417   2426     1   111.5100476 526.347200
   2417   2426   2435     1   107.9700462 569.024000
   2420   2432   4929     1   107.9700462 569.024000
   2423   2429   4900     1   107.9700462 569.024000
   2429   4900   4891     1   112.4800480 524.673600
   2432   4929   4920     1   112.4800480 524.673600
   2436   2437   2449     1   111.0400475 552.288000
   2436   2440   2452     1   111.0400475 552.288000
   2436   2443   2446     1   111.0400475 552.288000
   2437   2436   2440     1   112.3500484 533.878400
   2437   2436   2443     1   112.3500484 533.878400
   2437   2449   2461     1   111.5100476 526.347200
   2440   2436   2443     1   112.3500484 533.878400
   2440   2452   2458     1   111.5100476 526.347200
   2443   2446   2455     1   111.5100476 526.347200
   2446   2455   2464     1   107.9700462 569.024000
   2449   2461   4987     1   107.9700462 569.024000
   2452   2458   4958     1   107.9700462 569.024000
   2458   4958   4949     1   112.4800480 524.673600
   2461   4987   4978     1   112.4800480 524.673600
   2465   2466   2478     1   111.0400475 552.288000
   2465   2469   2481     1   111.0400475 552.288000
   2465   2472   2475     1   111.0400475 552.288000
   2466   2465   2469     1   112.3500484 533.878400
   2466   2465   2472     1   112.3500484 533.878400
   2466   2478   2490     1   111.5100476 526.347200
   2469   2465   2472     1   112.3500484 533.878400
   2469   2481   2487     1   111.5100476 526.347200
   2472   2475   2484     1   111.5100476 526.347200
   2475   2484   2493     1   107.9700462 569.024000
   2478   2490   5045     1   107.9700462 569.024000
   2481   2487   5016     1   107.9700462 569.024000
   2487   5016   5007     1   112.4800480 524.673600
   2490   5045   5036     1   112.4800480 524.673600
   2494   2495   2507     1   111.0400475 552.288000
   2494   2498   2510     1   111.0400475 552.288000
   2494   2501   2504     1   111.0400475 552.288000
   2495   2494   2498     1   112.3500484 533.878400
   2495   2494   2501     1   112.3500484 533.878400
   2495   2507   2519     1   111.5100476 526.347200
   2498   2494   2501     1   112.3500484 533.878400
   2498   2510   2516     1   111.5100476 526.347200
   2501   2504   2513     1   111.5100476 526.347200
   2504   2513   2522     1   107.9700462 569.024000
   2507   2519   5103     1   107.9700462 569.024000
   2510   2516   5074     1   107.9700462 569.024000
   2516   5074   5065     1   112.4800480 524.673600
   2519   5103   5094     1   112.4800480 524.673600
   2523   2524   2536     1   111.0400475 552.288000
   2523   2527   2539     1   111.0400475 552.288000
   2523   2530   2533     1   111.0400475 552.288000
   2524   2523   2527     1   112.3500484 533.878400
   2524   2523   2530     1   112.3500484 533.878400
   2524   2536   2548     1   111.5100476 526.347200
   2527   2523   2530     1   112.3500484 533.878400
   2527   2539   2545     1   111.5100476 526.347200
   2530   2533   2542     1   111.5100476 526.347200
   2533   2542   2551     1   107.9700462 569.024000
   2536   2548   5161     1   107.9700462 569.024000
   2539   2545   5132     1   107.9700462 569.024000
   2545   5132   5123     1   112.4800480 524.673600
   2548   5161   5152     1   112.4800480 524.673600
   2552   2553   2565     1   111.0400475 552.288000
   2552   2556   2568     1   111.0400475 552.288000
   2552   2559   2562     1   111.0400475 552.288000
   2553   2552   2556     1   112.3500484 533.878400
   2553   2552   2559     1   112.3500484 533.878400
   2553   2565   2577     1   111.5100476 526.347200
   2556   2552   2559     1   112.3500484 533.878400
   2556   2568   2574     1   111.5100476 526.347200
   2559   2562   2571     1   111.5100476 526.347200
   2562   2571   2580     1   107.9700462 569.024000
   2565   2577   5219     1   107.9700462 569.024000
   2568   2574   5190     1   107.9700462 569.024000
   2574   5190   5181     1   112.4800480 524.673600
   2577   5219   5210     1   112.4800480 524.673600
   2581   2582   2594     1   111.0400475 552.288000
   2581   2585   2597     1   111.0400475 552.288000
   2581   2588   2591     1   111.0400475 552.288000
   2582   2581   2585     1   112.3500484 533.878400
   2582   2581   2588     1   112.3500484 533.878400
   2582   2594   2606     1   111.5100476 526.347200
   2585   2581   2588     1   112.3500484 533.878400
   2585   2597   2603     1   111.5100476 526.347200
   2588   2591   2600     1   111.5100476 526.347200
   2591   2600   2609     1   107.9700462 569.024000
   2594   2606   5277     1   107.9700462 569.024000
   2597   2603   5248     1   107.9700462 569.024000
   2603   5248   5239     1   112.4800480 524.673600
   2606   5277   5268     1   112.4800480 524.673600
   2610   2611   2623     1   111.0400475 552.288000
   2610   2614   2626     1   111.0400475 552.288000
   2610   2617   2620     1   111.0400475 552.288000
   2611   2610   2614     1   112.3500484 533.878400
   2611   2610   2617     1   112.3500484 533.878400
   2611   2623   2635     1   111.5100476 526.347200
   2614   2610   2617     1   112.3500484 533.878400
   2614   2626   2632     1   111.5100476 526.347200
   2617   2620   2629     1   111.5100476 526.347200
   2620   2629   2638     1   107.9700462 569.024000
   2623   2635   5335     1   107.9700462 569.024000
   2626   2632   5306     1   107.9700462 569.024000
   2632   5306   5297     1   112.4800480 524.673600
   2635   5335   5326     1   112.4800480 524.673600
   2639   2640   2652     1   111.0400475 552.288000
   2639   2643   2655     1   111.0400475 552.288000
   2639   2646   2649     1   111.0400475 552.288000
   2640   2639   2643     1   112.3500484 533.878400
   2640   2639   2646     1   112.3500484 533.878400
   2640   2652   2664     1   111.5100476 526.347200
   2643   2639   2646     1   112.3500484 533.878400
   2643   2655   2661     1   111.5100476 526.347200
   2646   2649   2658     1   111.5100476 526.347200
   2649   2658   2667     1   107.9700462 569.024000
   2652   2664   5393     1   107.9700462 569.024000
   2655   2661   5364     1   107.9700462 569.024000
   2661   5364   5355     1   112.4800480 524.673600
   2664   5393   5384     1   112.4800480 524.673600
   2668   2669   2681     1   111.0400475 552.288000
   2668   2672   2684     1   111.0400475 552.288000
   2668   2675   2678     1   111.0400475 552.288000
   2669   2668   2672     1   112.3500484 533.878400
   2669   2668   2675     1   112.3500484 533.878400
   2669   2681   2693     1   111.5100476 526.347200
   2672   2668   2675     1   112.3500484 533.878400
   2672   2684   2690     1   111.5100476 526.347200
   2675   2678   2687     1   111.5100476 526.347200
   2678   2687   2696     1   107.9700462 569.024000
   2681   2693   5451     1   107.9700462 569.024000
   2684   2690   5422     1   107.9700462 569.024000
   2690   5422   5413     1   112.4800480 524.673600
   2693   5451   5442     1   112.4800480 524.673600
   2697   2698   2710     1   111.0400475 552.288000
   2697   2701   2713     1   111.0400475 552.288000
   2697   2704   2707     1   111.0400475 552.288000
   2698   2697   2701     1   112.3500484 533.878400
   2698   2697   2704     1   112.3500484 533.878400
   2698   2710   2722     1   111.5100476 526.347200
   2701   2697   2704     1   112.3500484 533.878400
   2701   2713   2719     1   111.5100476 526.347200
   2704   2707   2716     1   111.5100476 526.347200
   2707   2716   2725     1   107.9700462 569.024000
   2710   2722   5509     1   107.9700462 569.024000
   2713   2719   5480     1   107.9700462 569.024000
   2719   5480   5471     1   112.4800480 524.673600
   2722   5509   5500     1   112.4800480 524.673600
   2726   2727   2739     1   111.0400475 552.288000
   2726   2730   2742     1   111.0400475 552.288000
   2726   2733   2736     1   111.0400475 552.288000
   2727   2726   2730     1   112.3500484 533.878400
   2727   2726   2733     1   112.3500484 533.878400
   2727   2739   2751     1   111.5100476 526.347200
   2730   2726   2733     1   112.3500484 533.878400
   2730   2742   2748     1   111.5100476 526.347200
   2733   2736   2745     1   111.5100476 526.347200
   2736   2745   2754     1   107.9700462 569.024000
   2739   2751   5543     1   107.9700462 569.024000
   2742   2748   5520     1   107.9700462 569.024000
   2748   5520   5516     1   112.4800480 524.673600
   2751   5543   5539     1   112.4800480 524.673600
   2755   2756   2768     1   111.0400475 552.288000
   2755   2759   2771     1   111.0400475 552.288000
   2755   2762   2765     1   111.0400475 552.288000
   2756   2755   2759     1   112.3500484 533.878400
   2756   2755   2762     1   112.3500484 533.878400
   2756   2768   2780     1   111.5100476 526.347200
   2759   2755   2762     1   112.3500484 533.878400
   2759   2771   2777     1   111.5100476 526.347200
   2762   2765   2774     1   111.5100476 526.347200
   2765   2774   2783     1   107.9700462 569.024000
   2768   2780   5589     1   107.9700462 569.024000
   2771   2777   5566     1   107.9700462 569.024000
   2777   5566   5562     1   112.4800480 524.673600
   2780   5589   5585     1   112.4800480 524.673600
   2784   2785   2797     1   111.0400475 552.288000
   2784   2788   2800     1   111.0400475 552.288000
   2784   2791   2794     1   111.0400475 552.288000
   2785   2784   2788     1   112.3500484 533.878400
   2785   2784   2791     1   112.3500484 533.878400
   2785   2797   2809     1   111.5100476 526.347200
   2788   2784   2791     1   112.3500484 533.878400
   2788   2800   2806     1   111.5100476 526.347200
   2791   2794   2803     1   111.5100476 526.347200
   2794   2803   2812     1   107.9700462 569.024000
   2797   2809   5635     1   107.9700462 569.024000
   2800   2806   5612     1   107.9700462 569.024000
   2806   5612   5608     1   112.4800480 524.673600
   2809   5635   5631     1   112.4800480 524.673600
   2813   2814   2826     1   111.0400475 552.288000
   2813   2817   2829     1   111.0400475 552.288000
   2813   2820   2823     1   111.0400475 552.288000
   2814   2813   2817     1   112.3500484 533.878400
   2814   2813   2820     1   112.3500484 533.878400
   2814   2826   2838     1   111.5100476 526.347200
   2817   2813   2820     1   112.3500484 533.878400
   2817   2829   2835     1   111.5100476 526.347200
   2820   2823   2832     1   111.5100476 526.347200
   2823   2832   2841     1   107.9700462 569.024000
   2826   2838   5681     1   107.9700462 569.024000
   2829   2835   5658     1   107.9700462 569.024000
   2835   5658   5654     1   112.4800480 524.673600
   2838   5681   5677     1   112.4800480 524.673600
   2842   2843   2855     1   111.0400475 552.288000
   2842   2846   2858     1   111.0400475 552.288000
   2842   2849   2852     1   111.0400475 552.288000
   2843   2842   2846     1   112.3500484 533.878400
   2843   2842   2849     1   112.3500484 533.878400
   2843   2855   2867     1   111.5100476 526.347200
   2846   2842   2849     1   112.3500484 533.878400
   2846   2858   2864     1   111.5100476 526.347200
   2849   2852   2861     1   111.5100476 526.347200
   2852   2861   2870     1   107.9700462 569.024000
   2855   2867   5727     1   107.9700462 569.024000
   2858   2864   5704     1   107.9700462 569.024000
   2864   5704   5700     1   112.4800480 524.673600
   2867   5727   5723     1   112.4800480 524.673600
   2871   2872   2884     1   111.0400475 552.288000
   2871   2875   2887     1   111.0400475 552.288000
   2871   2878   2881     1   111.0400475 552.288000
   2872   2871   2875     1   112.3500484 533.878400
   2872   2871   2878     1   112.3500484 533.878400
   2872   2884   2896     1   111.5100476 526.347200
   2875   2871   2878     1   112.3500484 533.878400
   2875   2887   2893     1   111.5100476 526.347200
   2878   2881   2890     1   111.5100476 526.347200
   2881   2890   2899     1   107.9700462 569.024000
   2884   2896   5773     1   107.9700462 569.024000
   2887   2893   5750     1   107.9700462 569.024000
   2893   5750   5746     1   112.4800480 524.673600
   2896   5773   5769     1   112.4800480 524.673600
   2900   2901   2913     1   111.0400475 552.288000
   2900   2904   2916     1   111.0400475 552.288000
   2900   2907   2910     1   111.0400475 552.288000
   2901   2900   2904     1   112.3500484 533.878400
   2901   2900   2907     1   112.3500484 533.878400
   2901   2913   2925     1   111.5100476 526.347200
   2904   2900   2907     1   112.3500484 533.878400
   2904   2916   2922     1   111.5100476 526.347200
   2907   2910   2919     1   111.5100476 526.347200
   2910   2919   2928     1   107.9700462 569.024000
   2913   2925   5819     1   107.9700462 569.024000
   2916   2922   5796     1   107.9700462 569.024000
   2922   5796   5792     1   112.4800480 524.673600
   2925   5819   5815     1   112.4800480 524.673600
   2929   2930   2942     1   111.0400475 552.288000
   2929   2933   2945     1   111.0400475 552.288000
   2929   2936   2939     1   111.0400475 552.288000
   2930   2929   2933     1   112.3500484 533.878400
   2930   2929   2936     1   112.3500484 533.878400
   2930   2942   2954     1   111.5100476 526.347200
   2933   2929   2936     1   112.3500484 533.878400
   2933   2945   2951     1   111.5100476 526.347200
   2936   2939   2948     1   111.5100476 526.347200
   2939   2948   2957     1   107.9700462 569.024000
   2942   2954   5865     1   107.9700462 569.024000
   2945   2951   5842     1   107.9700462 569.024000
   2951   5842   5838     1   112.4800480 524.673600
   2954   5865   5861     1   112.4800480 524.673600
   2958   2959   2971     1   111.0400475 552.288000
   2958   2962   2974     1   111.0400475 552.288000
   2958   2965   2968     1   111.0400475 552.288000
   2959   2958   2962     1   112.3500484 533.878400
   2959   2958   2965     1   112.3500484 533.878400
   2959   2971   2983     1   111.5100476 526.347200
   2962   2958   2965     1   112.3500484 533.878400
   2962   2974   2980     1   111.5100476 526.347200
   2965   2968   2977     1   111.5100476 526.347200
   2968   2977   2986     1   107.9700462 569.024000
   2971   2983   5911     1   107.9700462 569.024000
   2974   2980   5888     1   107.9700462 569.024000
   2980   5888   5884     1   112.4800480 524.673600
   2983   5911   5907     1   112.4800480 524.673600
   2987   2988   3000     1   111.0400475 552.288000
   2987   2991   3003     1   111.0400475 552.288000
   2987   2994   2997     1   111.0400475 552.288000
   2988   2987   2991     1   112.3500484 533.878400
   2988   2987   2994     1   112.3500484 533.878400
   2988   3000   3012     1   111.5100476 526.347200
   2991   2987   2994     1   112.3500484 533.878400
   2991   3003   3009     1   111.5100476 526.347200
   2994   2997   3006     1   111.5100476 526.347200
   2997   3006   3015     1   107.9700462 569.024000
   3000   3012   5957     1   107.9700462 569.024000
   3003   3009   5934     1   107.9700462 569.024000
   3009   5934   5930     1   112.4800480 524.673600
   3012   5957   5953     1   112.4800480 524.673600
   3016   3017   3029     1   111.0400475 552.288000
   3016   3020   3032     1   111.0400475 552.288000
   3016   3023   3026     1   111.0400475 552.288000
   3017   3016   3020     1   112.3500484 533.878400
   3017   3016   3023     1   112.3500484 533.878400
   3017   3029   3041     1   111.5100476 526.347200
   3020   3016   3023     1   112.3500484 533.878400
   3020   3032   3038     1   111.5100476 526.347200
   3023   3026   3035     1   111.5100476 526.347200
   3026   3035   3044     1   107.9700462 569.024000
   3029   3041   6003     1   107.9700462 569.024000
   3032   3038   5980     1   107.9700462 569.024000
   3038   5980   5976     1   112.4800480 524.673600
   3041   6003   5999     1   112.4800480 524.673600
   3045   3046   3058     1   111.0400475 552.288000
   3045   3049   3061     1   111.0400475 552.288000
   3045   3052   3055     1   111.0400475 552.288000
   3046   3045   3049     1   112.3500484 533.878400
   3046   3045   3052     1   112.3500484 533.878400
   3046   3058   3070     1   111.5100476 526.347200
   3049   3045   3052     1   112.3500484 533.878400
   3049   3061   3067     1   111.5100476 526.347200
   3052   3055   3064     1   111.5100476 526.347200
   3055   3064   3073     1   107.9700462 569.024000
   3058   3070   6049     1   107.9700462 569.024000
   3061   3067   6026     1   107.9700462 569.024000
   3067   6026   6022     1   112.4800480 524.673600
   3070   6049   6045     1   112.4800480 524.673600
   3074   3075   3087     1   111.0400475 552.288000
   3074   3078   3090     1   111.0400475 552.288000
   3074   3081   3084     1   111.0400475 552.288000
   3075   3074   3078     1   112.3500484 533.878400
   3075   3074   3081     1   112.3500484 533.878400
   3075   3087   3099     1   111.5100476 526.347200
   3078   3074   3081     1   112.3500484 533.878400
   3078   3090   3096     1   111.5100476 526.347200
   3081   3084   3093     1   111.5100476 526.347200
   3084   3093   3102     1   107.9700462 569.024000
   3087   3099   6095     1   107.9700462 569.024000
   3090   3096   6072     1   107.9700462 569.024000
   3096   6072   6068     1   112.4800480 524.673600
   3099   6095   6091     1   112.4800480 524.673600
   3103   3104   3116     1   111.0400475 552.288000
   3103   3107   3119     1   111.0400475 552.288000
   3103   3110   3113     1   111.0400475 552.288000
   3104   3103   3107     1   112.3500484 533.878400
   3104   3103   3110     1   112.3500484 533.878400
   3104   3116   3128     1   111.5100476 526.347200
   3107   3103   3110     1   112.3500484 533.878400
   3107   3119   3125     1   111.5100476 526.347200
   3110   3113   3122     1   111.5100476 526.347200
   3113   3122   3131     1   107.9700462 569.024000
   3116   3128   6141     1   107.9700462 569.024000
   3119   3125   6118     1   107.9700462 569.024000
   3125   6118   6114     1   112.4800480 524.673600
   3128   6141   6137     1   112.4800480 524.673600
   3132   3133   3145     1   111.0400475 552.288000
   3132   3136   3148     1   111.0400475 552.288000
   3132   3139   3142     1   111.0400475 552.288000
   3133   3132   3136     1   112.3500484 533.878400
   3133   3132   3139     1   112.3500484 533.878400
   3133   3145   3157     1   111.5100476 526.347200
   3136   3132   3139     1   112.3500484 533.878400
   3136   3148   3154     1   111.5100476 526.347200
   3139   3142   3151     1   111.5100476 526.347200
   3142   3151   3160     1   107.9700462 569.024000
   3145   3157   6187     1   107.9700462 569.024000
   3148   3154   6164     1   107.9700462 569.024000
   3154   6164   6160     1   112.4800480 524.673600
   3157   6187   6183     1   112.4800480 524.673600
   3161   3162   3174     1   111.0400475 552.288000
   3161   3165   3177     1   111.0400475 552.288000
   3161   3168   3171     1   111.0400475 552.288000
   3162   3161   3165     1   112.3500484 533.878400
   3162   3161   3168     1   112.3500484 533.878400
   3162   3174   3186     1   111.5100476 526.347200
   3165   3161   3168     1   112.3500484 533.878400
   3165   3177   3183     1   111.5100476 526.347200
   3168   3171   3180     1   111.5100476 526.347200
   3171   3180   3189     1   107.9700462 569.024000
   3174   3186   6233     1   107.9700462 569.024000
   3177   3183   6210     1   107.9700462 569.024000
   3183   6210   6206     1   112.4800480 524.673600
   3186   6233   6229     1   112.4800480 524.673600
   3190   3191   3203     1   111.0400475 552.288000
   3190   3194   3206     1   111.0400475 552.288000
   3190   3197   3200     1   111.0400475 552.288000
   3191   3190   3194     1   112.3500484 533.878400
   3191   3190   3197     1   112.3500484 533.878400
   3191   3203   3215     1   111.5100476 526.347200
   3194   3190   3197     1   112.3500484 533.878400
   3194   3206   3212     1   111.5100476 526.347200
   3197   3200   3209     1   111.5100476 526.347200
   3200   3209   3218     1   107.9700462 569.024000
   3203   3215   6279     1   107.9700462 569.024000
   3206   3212   6256     1   107.9700462 569.024000
   3212   6256   6252     1   112.4800480 524.673600
   3215   6279   6275     1   112.4800480 524.673600
   3219   3220   3232     1   111.0400475 552.288000
   3219   3223   3235     1   111.0400475 552.288000
   3219   3226   3229     1   111.0400475 552.288000
   3220   3219   3223     1   112.3500484 533.878400
   3220   3219   3226     1   112.3500484 533.878400
   3220   3232   3244     1   111.5100476 526.347200
   3223   3219   3226     1   112.3500484 533.878400
   3223   3235   3241     1   111.5100476 526.347200
   3226   3229   3238     1   111.5100476 526.347200
   3229   3238   3247     1   107.9700462 569.024000
   3232   3244   6325     1   107.9700462 569.024000
   3235   3241   6302     1   107.9700462 569.024000
   3241   6302   6298     1   112.4800480 524.673600
   3244   6325   6321     1   112.4800480 524.673600
   3248   3249   3261     1   111.0400475 552.288000
   3248   3252   3264     1   111.0400475 552.288000
   3248   3255   3258     1   111.0400475 552.288000
   3249   3248   3252     1   112.3500484 533.878400
   3249   3248   3255     1   112.3500484 533.878400
   3249   3261   3273     1   111.5100476 526.347200
   3252   3248   3255     1   112.3500484 533.878400
   3252   3264   3270     1   111.5100476 526.347200
   3255   3258   3267     1   111.5100476 526.347200
   3258   3267   3276     1   107.9700462 569.024000
   3261   3273   6371     1   107.9700462 569.024000
   3264   3270   6348     1   107.9700462 569.024000
   3270   6348   6344     1   112.4800480 524.673600
   3273   6371   6367     1   112.4800480 524.673600
   3277   3278   3290     1   111.0400475 552.288000
   3277   3281   3293     1   111.0400475 552.288000
   3277   3284   3287     1   111.0400475 552.288000
   3278   3277   3281     1   112.3500484 533.878400
   3278   3277   3284     1   112.3500484 533.878400
   3278   3290   3302     1   111.5100476 526.347200
   3281   3277   3284     1   112.3500484 533.878400
   3281   3293   3299     1   111.5100476 526.347200
   3284   3287   3296     1   111.5100476 526.347200
   3287   3296   3305     1   107.9700462 569.024000
   3290   3302   6417     1   107.9700462 569.024000
   3293   3299   6394     1   107.9700462 569.024000
   3299   6394   6390     1   112.4800480 524.673600
   3302   6417   6413     1   112.4800480 524.673600
   3306   3307   3319     1   111.0400475 552.288000
   3306   3310   3322     1   111.0400475 552.288000
   3306   3313   3316     1   111.0400475 552.288000
   3307   3306   3310     1   112.3500484 533.878400
   3307   3306   3313     1   112.3500484 533.878400
   3307   3319   3331     1   111.5100476 526.347200
   3310   3306   3313     1   112.3500484 533.878400
   3310   3322   3328     1   111.5100476 526.347200
   3313   3316   3325     1   111.5100476 526.347200
   3316   3325   3334     1   107.9700462 569.024000
   3319   3331   6463     1   107.9700462 569.024000
   3322   3328   6440     1   107.9700462 569.024000
   3328   6440   6436     1   112.4800480 524.673600
   3331   6463   6459     1   112.4800480 524.673600
   3335   3336   3348     1   111.0400475 552.288000
   3335   3339   3351     1   111.0400475 552.288000
   3335   3342   3345     1   111.0400475 552.288000
   3336   3335   3339     1   112.3500484 533.878400
   3336   3335   3342     1   112.3500484 533.878400
   3336   3348   3360     1   111.5100476 526.347200
   3339   3335   3342     1   112.3500484 533.878400
   3339   3351   3357     1   111.5100476 526.347200
   3342   3345   3354     1   111.5100476 526.347200
   3345   3354   3363     1   107.9700462 569.024000
   3348   3360   6509     1   107.9700462 569.024000
   3351   3357   6486     1   107.9700462 569.024000
   3357   6486   6482     1   112.4800480 524.673600
   3360   6509   6505     1   112.4800480 524.673600
   3364   3365   3377     1   111.0400475 552.288000
   3364   3368   3380     1   111.0400475 552.288000
   3364   3371   3374     1   111.0400475 552.288000
   3365   3364   3368     1   112.3500484 533.878400
   3365   3364   3371     1   112.3500484 533.878400
   3365   3377   3389     1   111.5100476 526.347200
   3368   3364   3371     1   112.3500484 533.878400
   3368   3380   3386     1   111.5100476 526.347200
   3371   3374   3383     1   111.5100476 526.347200
   3374   3383   3392     1   107.9700462 569.024000
   3377   3389   6555     1   107.9700462 569.024000
   3380   3386   6532     1   107.9700462 569.024000
   3386   6532   6528     1   112.4800480 524.673600
   3389   6555   6551     1   112.4800480 524.673600
   3393   3394   3406     1   111.0400475 552.288000
   3393   3397   3409     1   111.0400475 552.288000
   3393   3400   3403     1   111.0400475 552.288000
   3394   3393   3397     1   112.3500484 533.878400
   3394   3393   3400     1   112.3500484 533.878400
   3394   3406   3418     1   111.5100476 526.347200
   3397   3393   3400     1   112.3500484 533.878400
   3397   3409   3415     1   111.5100476 526.347200
   3400   3403   3412     1   111.5100476 526.347200
   3403   3412   3421     1   107.9700462 569.024000
   3406   3418   6601     1   107.9700462 569.024000
   3409   3415   6578     1   107.9700462 569.024000
   3415   6578   6574     1   112.4800480 524.673600
   3418   6601   6597     1   112.4800480 524.673600
   3422   3423   3435     1   111.0400475 552.288000
   3422   3426   3438     1   111.0400475 552.288000
   3422   3429   3432     1   111.0400475 552.288000
   3423   3422   3426     1   112.3500484 533.878400
   3423   3422   3429     1   112.3500484 533.878400
   3423   3435   3447     1   111.5100476 526.347200
   3426   3422   3429     1   112.3500484 533.878400
   3426   3438   3444     1   111.5100476 526.347200
   3429   3432   3441     1   111.5100476 526.347200
   3432   3441   3450     1   107.9700462 569.024000
   3435   3447   6647     1   107.9700462 569.024000
   3438   3444   6624     1   107.9700462 569.024000
   3444   6624   6620     1   112.4800480 524.673600
   3447   6647   6643     1   112.4800480 524.673600
   3451   3452   3464     1   111.0400475 552.288000
   3451   3455   3467     1   111.0400475 552.288000
   3451   3458   3461     1   111.0400475 552.288000
   3452   3451   3455     1   112.3500484 533.878400
   3452   3451   3458     1   112.3500484 533.878400
   3452   3464   3476     1   111.5100476 526.347200
   3455   3451   3458     1   112.3500484 533.878400
   3455   3467   3473     1   111.5100476 526.347200
   3458   3461   3470     1   111.5100476 526.347200
   3461   3470   3479     1   107.9700462 569.024000
   3464   3476   6693     1   107.9700462 569.024000
   3467   3473   6670     1   107.9700462 569.024000
   3473   6670   6666     1   112.4800480 524.673600
   3476   6693   6689     1   112.4800480 524.673600
   3480   3481   3493     1   111.0400475 552.288000
   3480   3484   3496     1   111.0400475 552.288000
   3480   3487   3490     1   111.0400475 552.288000
   3481   3480   3484     1   112.3500484 533.878400
   3481   3480   3487     1   112.3500484 533.878400
   3481   3493   3505     1   111.5100476 526.347200
   3484   3480   3487     1   112.3500484 533.878400
   3484   3496   3502     1   111.5100476 526.347200
   3487   3490   3499     1   111.5100476 526.347200
   3490   3499   3508     1   107.9700462 569.024000
   3493   3505   6739     1   107.9700462 569.024000
   3496   3502   6716     1   107.9700462 569.024000
   3502   6716   6712     1   112.4800480 524.673600
   3505   6739   6735     1   112.4800480 524.673600
   3509   3510   3522     1   111.0400475 552.288000
   3509   3513   3525     1   111.0400475 552.288000
   3509   3516   3519     1   111.0400475 552.288000
   3510   3509   3513     1   112.3500484 533.878400
   3510   3509   3516     1   112.3500484 533.878400
   3510   3522   3534     1   111.5100476 526.347200
   3513   3509   3516     1   112.3500484 533.878400
   3513   3525   3531     1   111.5100476 526.347200
   3516   3519   3528     1   111.5100476 526.347200
   3519   3528   3537     1   107.9700462 569.024000
   3522   3534   6785     1   107.9700462 569.024000
   3525   3531   6762     1   107.9700462 569.024000
   3531   6762   6758     1   112.4800480 524.673600
   3534   6785   6781     1   112.4800480 524.673600
   3538   3539   3551     1   111.0400475 552.288000
   3538   3542   3554     1   111.0400475 552.288000
   3538   3545   3548     1   111.0400475 552.288000
   3539   3538   3542     1   112.3500484 533.878400
   3539   3538   3545     1   112.3500484 533.878400
   3539   3551   3563     1   111.5100476 526.347200
   3542   3538   3545     1   112.3500484 533.878400
   3542   3554   3560     1   111.5100476 526.347200
   3545   3548   3557     1   111.5100476 526.347200
   3548   3557   3566     1   107.9700462 569.024000
   3551   3563   6831     1   107.9700462 569.024000
   3554   3560   6808     1   107.9700462 569.024000
   3560   6808   6804     1   112.4800480 524.673600
   3563   6831   6827     1   112.4800480 524.673600
   3567   3568   3580     1   111.0400475 552.288000
   3567   3571   3583     1   111.0400475 552.288000
   3567   3574   3577     1   111.0400475 552.288000
   3568   3567   3571     1   112.3500484 533.878400
   3568   3567   3574     1   112.3500484 533.878400
   3568   3580   3592     1   111.5100476 526.347200
   3571   3567   3574     1   112.3500484 533.878400
   3571   3583   3589     1   111.5100476 526.347200
   3574   3577   3586     1   111.5100476 526.347200
   3577   3586   3595     1   107.9700462 569.024000
   3580   3592   6877     1   107.9700462 569.024000
   3583   3589   6854     1   107.9700462 569.024000
   3589   6854   6850     1   112.4800480 524.673600
   3592   6877   6873     1   112.4800480 524.673600
   3596   3597   3609     1   111.0400475 552.288000
   3596   3600   3612     1   111.0400475 552.288000
   3596   3603   3606     1   111.0400475 552.288000
   3597   3596   3600     1   112.3500484 533.878400
   3597   3596   3603     1   112.3500484 533.878400
   3597   3609   3621     1   111.5100476 526.347200
   3600   3596   3603     1   112.3500484 533.878400
   3600   3612   3618     1   111.5100476 526.347200
   3603   3606   3615     1   111.5100476 526.347200
   3606   3615   3624     1   107.9700462 569.024000
   3609   3621   6923     1   107.9700462 569.024000
   3612   3618   6900     1   107.9700462 569.024000
   3618   6900   6896     1   112.4800480 524.673600
   3621   6923   6919     1   112.4800480 524.673600
   3625   3626   3638     1   111.0400475 552.288000
   3625   3629   3641     1   111.0400475 552.288000
   3625   3632   3635     1   111.0400475 552.288000
   3626   3625   3629     1   112.3500484 533.878400
   3626   3625   3632     1   112.3500484 533.878400
   3626   3638   3650     1   111.5100476 526.347200
   3629   3625   3632     1   112.3500484 533.878400
   3629   3641   3647     1   111.5100476 526.347200
   3632   3635   3644     1   111.5100476 526.347200
   3635   3644   3653     1   107.9700462 569.024000
   3638   3650   6969     1   107.9700462 569.024000
   3641   3647   6946     1   107.9700462 569.024000
   3647   6946   6942     1   112.4800480 524.673600
   3650   6969   6965     1   112.4800480 524.673600
   3654   3655   3667     1   111.0400475 552.288000
   3654   3658   3670     1   111.0400475 552.288000
   3654   3661   3664     1   111.0400475 552.288000
   3655   3654   3658     1   112.3500484 533.878400
   3655   3654   3661     1   112.3500484 533.878400
   3655   3667   3679     1   111.5100476 526.347200
   3658   3654   3661     1   112.3500484 533.878400
   3658   3670   3676     1   111.5100476 526.347200
   3661   3664   3673     1   111.5100476 526.347200
   3664   3673   3682     1   107.9700462 569.024000
   3667   3679   7015     1   107.9700462 569.024000
   3670   3676   6992     1   107.9700462 569.024000
   3676   6992   6988     1   112.4800480 524.673600
   3679   7015   7011     1   112.4800480 524.673600
   3683   3684   3696     1   111.0400475 552.288000
   3683   3687   3699     1   111.0400475 552.288000
   3683   3690   3693     1   111.0400475 552.288000
   3684   3683   3687     1   112.3500484 533.878400
   3684   3683   3690     1   112.3500484 533.878400
   3684   3696   3708     1   111.5100476 526.347200
   3687   3683   3690     1   112.3500484 533.878400
   3687   3699   3705     1   111.5100476 526.347200
   3690   3693   3702     1   111.5100476 526.347200
   3693   3702   3711     1   107.9700462 569.024000
   3696   3708   7061     1   107.9700462 569.024000
   3699   3705   7038     1   107.9700462 569.024000
   3705   7038   7034     1   112.4800480 524.673600
   3708   7061   7057     1   112.4800480 524.673600
   3712   3713   3725     1   111.0400475 552.288000
   3712   3716   3728     1   111.0400475 552.288000
   3712   3719   3722     1   111.0400475 552.288000
   3713   3712   3716     1   112.3500484 533.878400
   3713   3712   3719     1   112.3500484 533.878400
   3713   3725   3737     1   111.5100476 526.347200
   3716   3712   3719     1   112.3500484 533.878400
   3716   3728   3734     1   111.5100476 526.347200
   3719   3722   3731     1   111.5100476 526.347200
   3722   3731   3740     1   107.9700462 569.024000
   3725   3737   7107     1   107.9700462 569.024000
   3728   3734   7084     1   107.9700462 569.024000
   3734   7084   7080     1   112.4800480 524.673600
   3737   7107   7103     1   112.4800480 524.673600
   3741   3742   3754     1   111.0400475 552.288000
   3741   3745   3757     1   111.0400475 552.288000
   3741   3748   3751     1   111.0400475 552.288000
   3742   3741   3745     1   112.3500484 533.878400
   3742   3741   3748     1   112.3500484 533.878400
   3742   3754   3766     1   111.5100476 526.347200
   3745   3741   3748     1   112.3500484 533.878400
   3745   3757   3763     1   111.5100476 526.347200
   3748   3751   3760     1   111.5100476 526.347200
   3751   3760   3769     1   107.9700462 569.024000
   3754   3766   7153     1   107.9700462 569.024000
   3757   3763   7130     1   107.9700462 569.024000
   3763   7130   7126     1   112.4800480 524.673600
   3766   7153   7149     1   112.4800480 524.673600
   3770   3771   3783     1   111.0400475 552.288000
   3770   3774   3786     1   111.0400475 552.288000
   3770   3777   3780     1   111.0400475 552.288000
   3771   3770   3774     1   112.3500484 533.878400
   3771   3770   3777     1   112.3500484 533.878400
   3771   3783   3795     1   111.5100476 526.347200
   3774   3770   3777     1   112.3500484 533.878400
   3774   3786   3792     1   111.5100476 526.347200
   3777   3780   3789     1   111.5100476 526.347200
   3780   3789   3798     1   107.9700462 569.024000
   3783   3795   7199     1   107.9700462 569.024000
   3786   3792   7176     1   107.9700462 569.024000
   3792   7176   7172     1   112.4800480 524.673600
   3795   7199   7195     1   112.4800480 524.673600
   3799   3800   3812     1   111.0400475 552.288000
   3799   3803   3815     1   111.0400475 552.288000
   3799   3806   3809     1   111.0400475 552.288000
   3800   3799   3803     1   112.3500484 533.878400
   3800   3799   3806     1   112.3500484 533.878400
   3800   3812   3824     1   111.5100476 526.347200
   3803   3799   3806     1   112.3500484 533.878400
   3803   3815   3821     1   111.5100476 526.347200
   3806   3809   3818     1   111.5100476 526.347200
   3809   3818   3827     1   107.9700462 569.024000
   3812   3824   7245     1   107.9700462 569.024000
   3815   3821   7222     1   107.9700462 569.024000
   3821   7222   7218     1   112.4800480 524.673600
   3824   7245   7241     1   112.4800480 524.673600
   3828   3829   3841     1   111.0400475 552.288000
   3828   3832   3844     1   111.0400475 552.288000
   3828   3835   3838     1   111.0400475 552.288000
   3829   3828   3832     1   112.3500484 533.878400
   3829   3828   3835     1   112.3500484 533.878400
   3829   3841   3853     1   111.5100476 526.347200
   3832   3828   3835     1   112.3500484 533.878400
   3832   3844   3850     1   111.5100476 526.347200
   3835   3838   3847     1   111.5100476 526.347200
   3838   3847   3856     1   107.9700462 569.024000
   3841   3853   7291     1   107.9700462 569.024000
   3844   3850   7268     1   107.9700462 569.024000
   3850   7268   7264     1   112.4800480 524.673600
   3853   7291   7287     1   112.4800480 524.673600
   3857   3858   3870     1   111.0400475 552.288000
   3857   3861   3873     1   111.0400475 552.288000
   3857   3864   3867     1   111.0400475 552.288000
   3858   3857   3861     1   112.3500484 533.878400
   3858   3857   3864     1   112.3500484 533.878400
   3858   3870   3882     1   111.5100476 526.347200
   3861   3857   3864     1   112.3500484 533.878400
   3861   3873   3879     1   111.5100476 526.347200
   3864   3867   3876     1   111.5100476 526.347200
   3867   3876   3885     1   107.9700462 569.024000
   3870   3882   7337     1   107.9700462 569.024000
   3873   3879   7314     1   107.9700462 569.024000
   3879   7314   7310     1   112.4800480 524.673600
   3882   7337   7333     1   112.4800480 524.673600
   3886   3887   3899     1   111.0400475 552.288000
   3886   3890   3902     1   111.0400475 552.288000
   3886   3893   3896     1   111.0400475 552.288000
   3887   3886   3890     1   112.3500484 533.878400
   3887   3886   3893     1   112.3500484 533.878400
   3887   3899   3911     1   111.5100476 526.347200
   3890   3886   3893     1   112.3500484 533.878400
   3890   3902   3908     1   111.5100476 526.347200
   3893   3896   3905     1   111.5100476 526.347200
   3896   3905   3914     1   107.9700462 569.024000
   3899   3911   7383     1   107.9700462 569.024000
   3902   3908   7360     1   107.9700462 569.024000
   3908   7360   7356     1   112.4800480 524.673600
   3911   7383   7379     1   112.4800480 524.673600
   3915   3916   3928     1   111.0400475 552.288000
   3915   3919   3931     1   111.0400475 552.288000
   3915   3922   3925     1   111.0400475 552.288000
   3916   3915   3919     1   112.3500484 533.878400
   3916   3915   3922     1   112.3500484 533.878400
   3916   3928   3940     1   111.5100476 526.347200
   3919   3915   3922     1   112.3500484 533.878400
   3919   3931   3937     1   111.5100476 526.347200
   3922   3925   3934     1   111.5100476 526.347200
   3925   3934   3943     1   107.9700462 569.024000
   3928   3940   7429     1   107.9700462 569.024000
   3931   3937   7406     1   107.9700462 569.024000
   3937   7406   7402     1   112.4800480 524.673600
   3940   7429   7425     1   112.4800480 524.673600
   3944   3945   3957     1   111.0400475 552.288000
   3944   3948   3960     1   111.0400475 552.288000
   3944   3951   3954     1   111.0400475 552.288000
   3945   3944   3948     1   112.3500484 533.878400
   3945   3944   3951     1   112.3500484 533.878400
   3945   3957   3969     1   111.5100476 526.347200
   3948   3944   3951     1   112.3500484 533.878400
   3948   3960   3966     1   111.5100476 526.347200
   3951   3954   3963     1   111.5100476 526.347200
   3954   3963   3972     1   107.9700462 569.024000
   3957   3969   7475     1   107.9700462 569.024000
   3960   3966   7452     1   107.9700462 569.024000
   3966   7452   7448     1   112.4800480 524.673600
   3969   7475   7471     1   112.4800480 524.673600
   3973   3974   3986     1   111.0400475 552.288000
   3973   3977   3989     1   111.0400475 552.288000
   3973   3980   3983     1   111.0400475 552.288000
   3974   3973   3977     1   112.3500484 533.878400
   3974   3973   3980     1   112.3500484 533.878400
   3974   3986   3998     1   111.5100476 526.347200
   3977   3973   3980     1   112.3500484 533.878400
   3977   3989   3995     1   111.5100476 526.347200
   3980   3983   3992     1   111.5100476 526.347200
   3983   3992   4001     1   107.9700462 569.024000
   3986   3998   7521     1   107.9700462 569.024000
   3989   3995   7498     1   107.9700462 569.024000
   3995   7498   7494     1   112.4800480 524.673600
   3998   7521   7517     1   112.4800480 524.673600
   4002   4003   4015     1   111.0400475 552.288000
   4002   4006   4018     1   111.0400475 552.288000
   4002   4009   4012     1   111.0400475 552.288000
   4003   4002   4006     1   112.3500484 533.878400
   4003   4002   4009     1   112.3500484 533.878400
   4003   4015   4027     1   111.5100476 526.347200
   4006   4002   4009     1   112.3500484 533.878400
   4006   4018   4024     1   111.5100476 526.347200
   4009   4012   4021     1   111.5100476 526.347200
   4012   4021   4030     1   107.9700462 569.024000
   4015   4027   7567     1   107.9700462 569.024000
   4018   4024   7544     1   107.9700462 569.024000
   4024   7544   7540     1   112.4800480 524.673600
   4027   7567   7563     1   112.4800480 524.673600
   4031   4032   4044     1   111.0400475 552.288000
   4031   4035   4047     1   111.0400475 552.288000
   4031   4038   4041     1   111.0400475 552.288000
   4032   4031   4035     1   112.3500484 533.878400
   4032   4031   4038     1   112.3500484 533.878400
   4032   4044   4056     1   111.5100476 526.347200
   4035   4031   4038     1   112.3500484 533.878400
   4035   4047   4053     1   111.5100476 526.347200
   4038   4041   4050     1   111.5100476 526.347200
   4041   4050   4059     1   107.9700462 569.024000
   4044   4056   7613     1   107.9700462 569.024000
   4047   4053   7590     1   107.9700462 569.024000
   4053   7590   7586     1   112.4800480 524.673600
   4056   7613   7609     1   112.4800480 524.673600
   4060   4061   4073     1   111.0400475 552.288000
   4060   4064   4076     1   111.0400475 552.288000
   4060   4067   4070     1   111.0400475 552.288000
   4061   4060   4064     1   112.3500484 533.878400
   4061   4060   4067     1   112.3500484 533.878400
   4061   4073   4085     1   111.5100476 526.347200
   4064   4060   4067     1   112.3500484 533.878400
   4064   4076   4082     1   111.5100476 526.347200
   4067   4070   4079     1   111.5100476 526.347200
   4070   4079   4088     1   107.9700462 569.024000
   4073   4085   7659     1   107.9700462 569.024000
   4076   4082   7636     1   107.9700462 569.024000
   4082   7636   7632     1   112.4800480 524.673600
   4085   7659   7655     1   112.4800480 524.673600
   4089   4090   4102     1   111.0400475 552.288000
   4089   4093   4105     1   111.0400475 552.288000
   4089   4096   4099     1   111.0400475 552.288000
   4090   4089   4093     1   112.3500484 533.878400
   4090   4089   4096     1   112.3500484 533.878400
   4090   4102   4114     1   111.5100476 526.347200
   4093   4089   4096     1   112.3500484 533.878400
   4093   4105   4111     1   111.5100476 526.347200
   4096   4099   4108     1   111.5100476 526.347200
   4099   4108   4117     1   107.9700462 569.024000
   4102   4114   7705     1   107.9700462 569.024000
   4105   4111   7682     1   107.9700462 569.024000
   4111   7682   7678     1   112.4800480 524.673600
   4114   7705   7701     1   112.4800480 524.673600
   4118   4119   4131     1   111.0400475 552.288000
   4118   4122   4134     1   111.0400475 552.288000
   4118   4125   4128     1   111.0400475 552.288000
   4119   4118   4122     1   112.3500484 533.878400
   4119   4118   4125     1   112.3500484 533.878400
   4119   4131   4143     1   111.5100476 526.347200
   4122   4118   4125     1   112.3500484 533.878400
   4122   4134   4140     1   111.5100476 526.347200
   4125   4128   4137     1   111.5100476 526.347200
   4128   4137   4146     1   107.9700462 569.024000
   4131   4143   7751     1   107.9700462 569.024000
   4134   4140   7728     1   107.9700462 569.024000
   4140   7728   7724     1   112.4800480 524.673600
   4143   7751   7747     1   112.4800480 524.673600
   4147   4148   4160     1   111.0400475 552.288000
   4147   4151   4163     1   111.0400475 552.288000
   4147   4154   4157     1   111.0400475 552.288000
   4148   4147   4151     1   112.3500484 533.878400
   4148   4147   4154     1   112.3500484 533.878400
   4148   4160   4172     1   111.5100476 526.347200
   4151   4147   4154     1   112.3500484 533.878400
   4151   4163   4169     1   111.5100476 526.347200
   4154   4157   4166     1   111.5100476 526.347200
   4157   4166   4175     1   107.9700462 569.024000
   4160   4172   7797     1   107.9700462 569.024000
   4163   4169   7774     1   107.9700462 569.024000
   4169   7774   7770     1   112.4800480 524.673600
   4172   7797   7793     1   112.4800480 524.673600
   4176   4177   4189     1   111.0400475 552.288000
   4176   4180   4192     1   111.0400475 552.288000
   4176   4183   4186     1   111.0400475 552.288000
   4177   4176   4180     1   112.3500484 533.878400
   4177   4176   4183     1   112.3500484 533.878400
   4177   4189   4201     1   111.5100476 526.347200
   4180   4176   4183     1   112.3500484 533.878400
   4180   4192   4198     1   111.5100476 526.347200
   4183   4186   4195     1   111.5100476 526.347200
   4186   4195   4204     1   107.9700462 569.024000
   4189   4201   7843     1   107.9700462 569.024000
   4192   4198   7820     1   107.9700462 569.024000
   4198   7820   7816     1   112.4800480 524.673600
   4201   7843   7839     1   112.4800480 524.673600
   4205   4206   4218     1   111.0400475 552.288000
   4205   4209   4221     1   111.0400475 552.288000
   4205   4212   4215     1   111.0400475 552.288000
   4206   4205   4209     1   112.3500484 533.878400
   4206   4205   4212     1   112.3500484 533.878400
   4206   4218   4230     1   111.5100476 526.347200
   4209   4205   4212     1   112.3500484 533.878400
   4209   4221   4227     1   111.5100476 526.347200
   4212   4215   4224     1   111.5100476 526.347200
   4215   4224   4233     1   107.9700462 569.024000
   4218   4230   7889     1   107.9700462 569.024000
   4221   4227   7866     1   107.9700462 569.024000
   4227   7866   7862     1   112.4800480 524.673600
   4230   7889   7885     1   112.4800480 524.673600
   4234   4235   4247     1   111.0400475 552.288000
   4234   4238   4250     1   111.0400475 552.288000
   4234   4241   4244     1   111.0400475 552.288000
   4235   4234   4238     1   112.3500484 533.878400
   4235   4234   4241     1   112.3500484 533.878400
   4235   4247   4259     1   111.5100476 526.347200
   4238   4234   4241     1   112.3500484 533.878400
   4238   4250   4256     1   111.5100476 526.347200
   4241   4244   4253     1   111.5100476 526.347200
   4244   4253   4262     1   107.9700462 569.024000
   4247   4259   7935     1   107.9700462 569.024000
   4250   4256   7912     1   107.9700462 569.024000
   4256   7912   7908     1   112.4800480 524.673600
   4259   7935   7931     1   112.4800480 524.673600
   4263   4264   4276     1   111.0400475 552.288000
   4263   4267   4279     1   111.0400475 552.288000
   4263   4270   4273     1   111.0400475 552.288000
   4264   4263   4267     1   112.3500484 533.878400
   4264   4263   4270     1   112.3500484 533.878400
   4264   4276   4288     1   111.5100476 526.347200
   4267   4263   4270     1   112.3500484 533.878400
   4267   4279   4285     1   111.5100476 526.347200
   4270   4273   4282     1   111.5100476 526.347200
   4273   4282   4291     1   107.9700462 569.024000
   4276   4288   7981     1   107.9700462 569.024000
   4279   4285   7958     1   107.9700462 569.024000
   4285   7958   7954     1   112.4800480 524.673600
   4288   7981   7977     1   112.4800480 524.673600
   4292   4293   4305     1   111.0400475 552.288000
   4292   4296   4308     1   111.0400475 552.288000
   4292   4299   4302     1   111.0400475 552.288000
   4293   4292   4296     1   112.3500484 533.878400
   4293   4292   4299     1   112.3500484 533.878400
   4293   4305   4317     1   111.5100476 526.347200
   4296   4292   4299     1   112.3500484 533.878400
   4296   4308   4314     1   111.5100476 526.347200
   4299   4302   4311     1   111.5100476 526.347200
   4302   4311   4320     1   107.9700462 569.024000
   4305   4317   8027     1   107.9700462 569.024000
   4308   4314   8004     1   107.9700462 569.024000
   4314   8004   8000     1   112.4800480 524.673600
   4317   8027   8023     1   112.4800480 524.673600
   4321   4322   4334     1   111.0400475 552.288000
   4321   4325   4337     1   111.0400475 552.288000
   4321   4328   4331     1   111.0400475 552.288000
   4322   4321   4325     1   112.3500484 533.878400
   4322   4321   4328     1   112.3500484 533.878400
   4322   4334   4346     1   111.5100476 526.347200
   4325   4321   4328     1   112.3500484 533.878400
   4325   4337   4343     1   111.5100476 526.347200
   4328   4331   4340     1   111.5100476 526.347200
   4331   4340   4349     1   107.9700462 569.024000
   4334   4346   8073     1   107.9700462 569.024000
   4337   4343   8050     1   107.9700462 569.024000
   4343   8050   8046     1   112.4800480 524.673600
   4346   8073   8069     1   112.4800480 524.673600
   4350   4351   4363     1   111.0400475 552.288000
   4350   4354   4366     1   111.0400475 552.288000
   4350   4357   4360     1   111.0400475 552.288000
   4351   4350   4354     1   112.3500484 533.878400
   4351   4350   4357     1   112.3500484 533.878400
   4351   4363   4375     1   111.5100476 526.347200
   4354   4350   4357     1   112.3500484 533.878400
   4354   4366   4372     1   111.5100476 526.347200
   4357   4360   4369     1   111.5100476 526.347200
   4360   4369   4378     1   107.9700462 569.024000
   4363   4375   8119     1   107.9700462 569.024000
   4366   4372   8096     1   107.9700462 569.024000
   4372   8096   8092     1   112.4800480 524.673600
   4375   8119   8115     1   112.4800480 524.673600
   4379   4380   4392     1   111.0400475 552.288000
   4379   4383   4395     1   111.0400475 552.288000
   4379   4386   4389     1   111.0400475 552.288000
   4380   4379   4383     1   112.3500484 533.878400
   4380   4379   4386     1   112.3500484 533.878400
   4380   4392   4404     1   111.5100476 526.347200
   4383   4379   4386     1   112.3500484 533.878400
   4383   4395   4401     1   111.5100476 526.347200
   4386   4389   4398     1   111.5100476 526.347200
   4389   4398   4407     1   107.9700462 569.024000
   4392   4404   8165     1   107.9700462 569.024000
   4395   4401   8142     1   107.9700462 569.024000
   4401   8142   8138     1   112.4800480 524.673600
   4404   8165   8161     1   112.4800480 524.673600
   4408   4409   4421     1   111.0400475 552.288000
   4408   4412   4424     1   111.0400475 552.288000
   4408   4415   4418     1   111.0400475 552.288000
   4409   4408   4412     1   112.3500484 533.878400
   4409   4408   4415     1   112.3500484 533.878400
   4409   4421   4433     1   111.5100476 526.347200
   4412   4408   4415     1   112.3500484 533.878400
   4412   4424   4430     1   111.5100476 526.347200
   4415   4418   4427     1   111.5100476 526.347200
   4418   4427   4436     1   107.9700462 569.024000
   4421   4433   8211     1   107.9700462 569.024000
   4424   4430   8188     1   107.9700462 569.024000
   4430   8188   8184     1   112.4800480 524.673600
   4433   8211   8207     1   112.4800480 524.673600
   4437   4438   4450     1   111.0400475 552.288000
   4437   4441   4453     1   111.0400475 552.288000
   4437   4444   4447     1   111.0400475 552.288000
   4438   4437   4441     1   112.3500484 533.878400
   4438   4437   4444     1   112.3500484 533.878400
   4438   4450   4462     1   111.5100476 526.347200
   4441   4437   4444     1   112.3500484 533.878400
   4441   4453   4459     1   111.5100476 526.347200
   4444   4447   4456     1   111.5100476 526.347200
   4447   4456   4465     1   107.9700462 569.024000
   4450   4462   8257     1   107.9700462 569.024000
   4453   4459   8234     1   107.9700462 569.024000
   4459   8234   8230     1   112.4800480 524.673600
   4462   8257   8253     1   112.4800480 524.673600
   4466   4467   4479     1   111.0400475 552.288000
   4466   4470   4482     1   111.0400475 552.288000
   4466   4473   4476     1   111.0400475 552.288000
   4467   4466   4470     1   112.3500484 533.878400
   4467   4466   4473     1   112.3500484 533.878400
   4467   4479   4491     1   111.5100476 526.347200
   4470   4466   4473     1   112.3500484 533.878400
   4470   4482   4488     1   111.5100476 526.347200
   4473   4476   4485     1   111.5100476 526.347200
   4476   4485   4494     1   107.9700462 569.024000
   4479   4491   8303     1   107.9700462 569.024000
   4482   4488   8280     1   107.9700462 569.024000
   4488   8280   8276     1   112.4800480 524.673600
   4491   8303   8299     1   112.4800480 524.673600
   4495   4496   4508     1   111.0400475 552.288000
   4495   4499   4511     1   111.0400475 552.288000
   4495   4502   4505     1   111.0400475 552.288000
   4496   4495   4499     1   112.3500484 533.878400
   4496   4495   4502     1   112.3500484 533.878400
   4496   4508   4520     1   111.5100476 526.347200
   4499   4495   4502     1   112.3500484 533.878400
   4499   4511   4517     1   111.5100476 526.347200
   4502   4505   4514     1   111.5100476 526.347200
   4505   4514   4523     1   107.9700462 569.024000
   4508   4520   8349     1   107.9700462 569.024000
   4511   4517   8326     1   107.9700462 569.024000
   4517   8326   8322     1   112.4800480 524.673600
   4520   8349   8345     1   112.4800480 524.673600
   4524   4525   4537     1   111.0400475 552.288000
   4524   4528   4540     1   111.0400475 552.288000
   4524   4531   4534     1   111.0400475 552.288000
   4525   4524   4528     1   112.3500484 533.878400
   4525   4524   4531     1   112.3500484 533.878400
   4525   4537   4549     1   111.5100476 526.347200
   4528   4524   4531     1   112.3500484 533.878400
   4528   4540   4546     1   111.5100476 526.347200
   4531   4534   4543     1   111.5100476 526.347200
   4534   4543   4552     1   107.9700462 569.024000
   4537   4549   8395     1   107.9700462 569.024000
   4540   4546   8372     1   107.9700462 569.024000
   4546   8372   8368     1   112.4800480 524.673600
   4549   8395   8391     1   112.4800480 524.673600
   4553   4554   4566     1   111.0400475 552.288000
   4553   4557   4569     1   111.0400475 552.288000
   4553   4560   4563     1   111.0400475 552.288000
   4554   4553   4557     1   112.3500484 533.878400
   4554   4553   4560     1   112.3500484 533.878400
   4554   4566   4578     1   111.5100476 526.347200
   4557   4553   4560     1   112.3500484 533.878400
   4557   4569   4575     1   111.5100476 526.347200
   4560   4563   4572     1   111.5100476 526.347200
   4563   4572   4581     1   107.9700462 569.024000
   4566   4578   8441     1   107.9700462 569.024000
   4569   4575   8418     1   107.9700462 569.024000
   4575   8418   8414     1   112.4800480 524.673600
   4578   8441   8437     1   112.4800480 524.673600
   4582   4583   4595     1   111.0400475 552.288000
   4582   4586   4598     1   111.0400475 552.288000
   4582   4589   4592     1   111.0400475 552.288000
   4583   4582   4586     1   112.3500484 533.878400
   4583   4582   4589     1   112.3500484 533.878400
   4583   4595   4607     1   111.5100476 526.347200
   4586   4582   4589     1   112.3500484 533.878400
   4586   4598   4604     1   111.5100476 526.347200
   4589   4592   4601     1   111.5100476 526.347200
   4592   4601   4610     1   107.9700462 569.024000
   4595   4607   8487     1   107.9700462 569.024000
   4598   4604   8464     1   107.9700462 569.024000
   4604   8464   8460     1   112.4800480 524.673600
   4607   8487   8483     1   112.4800480 524.673600
   4611   4612   4624     1   111.0400475 552.288000
   4611   4615   4627     1   111.0400475 552.288000
   4611   4618   4621     1   111.0400475 552.288000
   4612   4611   4615     1   112.3500484 533.878400
   4612   4611   4618     1   112.3500484 533.878400
   4612   4624   4636     1   111.5100476 526.347200
   4615   4611   4618     1   112.3500484 533.878400
   4615   4627   4633     1   111.5100476 526.347200
   4618   4621   4630     1   111.5100476 526.347200
   4621   4630   4639     1   107.9700462 569.024000
   4624   4636   8533     1   107.9700462 569.024000
   4627   4633   8510     1   107.9700462 569.024000
   4633   8510   8506     1   112.4800480 524.673600
   4636   8533   8529     1   112.4800480 524.673600
   4640   4641   4653     1   111.0400475 552.288000
   4640   4644   4656     1   111.0400475 552.288000
   4640   4647   4650     1   111.0400475 552.288000
   4641   4640   4644     1   112.3500484 533.878400
   4641   4640   4647     1   112.3500484 533.878400
   4641   4653   4665     1   111.5100476 526.347200
   4644   4640   4647     1   112.3500484 533.878400
   4644   4656   4662     1   111.5100476 526.347200
   4647   4650   4659     1   111.5100476 526.347200
   4650   4659   4668     1   107.9700462 569.024000
   4653   4665   8579     1   107.9700462 569.024000
   4656   4662   8556     1   107.9700462 569.024000
   4662   8556   8552     1   112.4800480 524.673600
   4665   8579   8575     1   112.4800480 524.673600
   4669   4670   4682     1   111.0400475 552.288000
   4669   4673   4685     1   111.0400475 552.288000
   4669   4676   4679     1   111.0400475 552.288000
   4670   4669   4673     1   112.3500484 533.878400
   4670   4669   4676     1   112.3500484 533.878400
   4670   4682   4694     1   111.5100476 526.347200
   4673   4669   4676     1   112.3500484 533.878400
   4673   4685   4691     1   111.5100476 526.347200
   4676   4679   4688     1   111.5100476 526.347200
   4679   4688   4697     1   107.9700462 569.024000
   4682   4694   8625     1   107.9700462 569.024000
   4685   4691   8602     1   107.9700462 569.024000
   4691   8602   8598     1   112.4800480 524.673600
   4694   8625   8621     1   112.4800480 524.673600
   4698   4699   4711     1   111.0400475 552.288000
   4698   4702   4714     1   111.0400475 552.288000
   4698   4705   4708     1   111.0400475 552.288000
   4699   4698   4702     1   112.3500484 533.878400
   4699   4698   4705     1   112.3500484 533.878400
   4699   4711   4723     1   111.5100476 526.347200
   4702   4698   4705     1   112.3500484 533.878400
   4702   4714   4720     1   111.5100476 526.347200
   4705   4708   4717     1   111.5100476 526.347200
   4708   4717   4726     1   107.9700462 569.024000
   4711   4723   8671     1   107.9700462 569.024000
   4714   4720   8648     1   107.9700462 569.024000
   4720   8648   8644     1   112.4800480 524.673600
   4723   8671   8667     1   112.4800480 524.673600
   4727   4728   4740     1   111.0400475 552.288000
   4727   4731   4743     1   111.0400475 552.288000
   4727   4734   4737     1   111.0400475 552.288000
   4728   4727   4731     1   112.3500484 533.878400
   4728   4727   4734     1   112.3500484 533.878400
   4728   4740   4752     1   111.5100476 526.347200
   4731   4727   4734     1   112.3500484 533.878400
   4731   4743   4749     1   111.5100476 526.347200
   4734   4737   4746     1   111.5100476 526.347200
   4737   4746   4755     1   107.9700462 569.024000
   4740   4752   8717     1   107.9700462 569.024000
   4743   4749   8694     1   107.9700462 569.024000
   4749   8694   8690     1   112.4800480 524.673600
   4752   8717   8713     1   112.4800480 524.673600
   4756   4757   4769     1   111.0400475 552.288000
   4756   4760   4772     1   111.0400475 552.288000
   4756   4763   4766     1   111.0400475 552.288000
   4757   4756   4760     1   112.3500484 533.878400
   4757   4756   4763     1   112.3500484 533.878400
   4757   4769   4781     1   111.5100476 526.347200
   4760   4756   4763     1   112.3500484 533.878400
   4760   4772   4778     1   111.5100476 526.347200
   4763   4766   4775     1   111.5100476 526.347200
   4766   4775   4784     1   107.9700462 569.024000
   4769   4781   8763     1   107.9700462 569.024000
   4772   4778   8740     1   107.9700462 569.024000
   4778   8740   8736     1   112.4800480 524.673600
   4781   8763   8759     1   112.4800480 524.673600
   4785   4786   4798     1   111.0400475 552.288000
   4785   4789   4801     1   111.0400475 552.288000
   4785   4792   4795     1   111.0400475 552.288000
   4786   4785   4789     1   112.3500484 533.878400
   4786   4785   4792     1   112.3500484 533.878400
   4786   4798   4810     1   111.5100476 526.347200
   4789   4785   4792     1   112.3500484 533.878400
   4789   4801   4807     1   111.5100476 526.347200
   4792   4795   4804     1   111.5100476 526.347200
   4795   4804   4813     1   107.9700462 569.024000
   4798   4810   8809     1   107.9700462 569.024000
   4801   4807   8786     1   107.9700462 569.024000
   4807   8786   8782     1   112.4800480 524.673600
   4810   8809   8805     1   112.4800480 524.673600
   4814   4815   4827     1   111.0400475 552.288000
   4814   4818   4830     1   111.0400475 552.288000
   4814   4821   4824     1   111.0400475 552.288000
   4815   4814   4818     1   112.3500484 533.878400
   4815   4814   4821     1   112.3500484 533.878400
   4815   4827   4839     1   111.5100476 526.347200
   4818   4814   4821     1   112.3500484 533.878400
   4818   4830   4836     1   111.5100476 526.347200
   4821   4824   4833     1   111.5100476 526.347200
   4824   4833   4842     1   107.9700462 569.024000
   4827   4839   8855     1   107.9700462 569.024000
   4830   4836   8832     1   107.9700462 569.024000
   4836   8832   8828     1   112.4800480 524.673600
   4839   8855   8851     1   112.4800480 524.673600
   4843   4844   4856     1   111.0400475 552.288000
   4843   4847   4859     1   111.0400475 552.288000
   4843   4850   4853     1   111.0400475 552.288000
   4844   4843   4847     1   112.3500484 533.878400
   4844   4843   4850     1   112.3500484 533.878400
   4844   4856   4868     1   111.5100476 526.347200
   4847   4843   4850     1   112.3500484 533.878400
   4847   4859   4865     1   111.5100476 526.347200
   4850   4853   4862     1   111.5100476 526.347200
   4853   4862   4871     1   107.9700462 569.024000
   4856   4868   8901     1   107.9700462 569.024000
   4859   4865   8878     1   107.9700462 569.024000
   4865   8878   8874     1   112.4800480 524.673600
   4868   8901   8897     1   112.4800480 524.673600
   4872   4873   4885     1   111.0400475 552.288000
   4872   4876   4888     1   111.0400475 552.288000
   4872   4879   4882     1   111.0400475 552.288000
   4873   4872   4876     1   112.3500484 533.878400
   4873   4872   4879     1   112.3500484 533.878400
   4873   4885   4897     1   111.5100476 526.347200
   4876   4872   4879     1   112.3500484 533.878400
   4876   4888   4894     1   111.5100476 526.347200
   4879   4882   4891     1   111.5100476 526.347200
   4882   4891   4900     1   107.9700462 569.024000
   4885   4897   8947     1   107.9700462 569.024000
   4888   4894   8924     1   107.9700462 569.024000
   4894   8924   8920     1   112.4800480 524.673600
   4897   8947   8943     1   112.4800480 524.673600
   4901   4902   4914     1   111.0400475 552.288000
   4901   4905   4917     1   111.0400475 552.288000
   4901   4908   4911     1   111.0400475 552.288000
   4902   4901   4905     1   112.3500484 533.878400
   4902   4901   4908     1   112.3500484 533.878400
   4902   4914   4926     1   111.5100476 526.347200
   4905   4901   4908     1   112.3500484 533.878400
   4905   4917   4923     1   111.5100476 526.347200
   4908   4911   4920     1   111.5100476 526.347200
   4911   4920   4929     1   107.9700462 569.024000
   4914   4926   8993     1   107.9700462 569.024000
   4917   4923   8970     1   107.9700462 569.024000
   4923   8970   8966     1   112.4800480 524.673600
   4926   8993   8989     1   112.4800480 524.673600
   4930   4931   4943     1   111.0400475 552.288000
   4930   4934   4946     1   111.0400475 552.288000
   4930   4937   4940     1   111.0400475 552.288000
   4931   4930   4934     1   112.3500484 533.878400
   4931   4930   4937     1   112.3500484 533.878400
   4931   4943   4955     1   111.5100476 526.347200
   4934   4930   4937     1   112.3500484 533.878400
   4934   4946   4952     1   111.5100476 526.347200
   4937   4940   4949     1   111.5100476 526.347200
   4940   4949   4958     1   107.9700462 569.024000
   4943   4955   9039     1   107.9700462 569.024000
   4946   4952   9016     1   107.9700462 569.024000
   4952   9016   9012     1   112.4800480 524.673600
   4955   9039   9035     1   112.4800480 524.673600
   4959   4960   4972     1   111.0400475 552.288000
   4959   4963   4975     1   111.0400475 552.288000
   4959   4966   4969     1   111.0400475 552.288000
   4960   4959   4963     1   112.3500484 533.878400
   4960   4959   4966     1   112.3500484 533.878400
   4960   4972   4984     1   111.5100476 526.347200
   4963   4959   4966     1   112.3500484 533.878400
   4963   4975   4981     1   111.5100476 526.347200
   4966   4969   4978     1   111.5100476 526.347200
   4969   4978   4987     1   107.9700462 569.024000
   4972   4984   9085     1   107.9700462 569.024000
   4975   4981   9062     1   107.9700462 569.024000
   4981   9062   9058     1   112.4800480 524.673600
   4984   9085   9081     1   112.4800480 524.673600
   4988   4989   5001     1   111.0400475 552.288000
   4988   4992   5004     1   111.0400475 552.288000
   4988   4995   4998     1   111.0400475 552.288000
   4989   4988   4992     1   112.3500484 533.878400
   4989   4988   4995     1   112.3500484 533.878400
   4989   5001   5013     1   111.5100476 526.347200
   4992   4988   4995     1   112.3500484 533.878400
   4992   5004   5010     1   111.5100476 526.347200
   4995   4998   5007     1   111.5100476 526.347200
   4998   5007   5016     1   107.9700462 569.024000
   5001   5013   9131     1   107.9700462 569.024000
   5004   5010   9108     1   107.9700462 569.024000
   5010   9108   9104     1   112.4800480 524.673600
   5013   9131   9127     1   112.4800480 524.673600
   5017   5018   5030     1   111.0400475 552.288000
   5017   5021   5033     1   111.0400475 552.288000
   5017   5024   5027     1   111.0400475 552.288000
   5018   5017   5021     1   112.3500484 533.878400
   5018   5017   5024     1   112.3500484 533.878400
   5018   5030   5042     1   111.5100476 526.347200
   5021   5017   5024     1   112.3500484 533.878400
   5021   5033   5039     1   111.5100476 526.347200
   5024   5027   5036     1   111.5100476 526.347200
   5027   5036   5045     1   107.9700462 569.024000
   5030   5042   9177     1   107.9700462 569.024000
   5033   5039   9154     1   107.9700462 569.024000
   5039   9154   9150     1   112.4800480 524.673600
   5042   9177   9173     1   112.4800480 524.673600
   5046   5047   5059     1   111.0400475 552.288000
   5046   5050   5062     1   111.0400475 552.288000
   5046   5053   5056     1   111.0400475 552.288000
   5047   5046   5050     1   112.3500484 533.878400
   5047   5046   5053     1   112.3500484 533.878400
   5047   5059   5071     1   111.5100476 526.347200
   5050   5046   5053     1   112.3500484 533.878400
   5050   5062   5068     1   111.5100476 526.347200
   5053   5056   5065     1   111.5100476 526.347200
   5056   5065   5074     1   107.9700462 569.024000
   5059   5071   9223     1   107.9700462 569.024000
   5062   5068   9200     1   107.9700462 569.024000
   5068   9200   9196     1   112.4800480 524.673600
   5071   9223   9219     1   112.4800480 524.673600
   5075   5076   5088     1   111.0400475 552.288000
   5075   5079   5091     1   111.0400475 552.288000
   5075   5082   5085     1   111.0400475 552.288000
   5076   5075   5079     1   112.3500484 533.878400
   5076   5075   5082     1   112.3500484 533.878400
   5076   5088   5100     1   111.5100476 526.347200
   5079   5075   5082     1   112.3500484 533.878400
   5079   5091   5097     1   111.5100476 526.347200
   5082   5085   5094     1   111.5100476 526.347200
   5085   5094   5103     1   107.9700462 569.024000
   5088   5100   9269     1   107.9700462 569.024000
   5091   5097   9246     1   107.9700462 569.024000
   5097   9246   9242     1   112.4800480 524.673600
   5100   9269   9265     1   112.4800480 524.673600
   5104   5105   5117     1   111.0400475 552.288000
   5104   5108   5120     1   111.0400475 552.288000
   5104   5111   5114     1   111.0400475 552.288000
   5105   5104   5108     1   112.3500484 533.878400
   5105   5104   5111     1   112.3500484 533.878400
   5105   5117   5129     1   111.5100476 526.347200
   5108   5104   5111     1   112.3500484 533.878400
   5108   5120   5126     1   111.5100476 526.347200
   5111   5114   5123     1   111.5100476 526.347200
   5114   5123   5132     1   107.9700462 569.024000
   5117   5129   9315     1   107.9700462 569.024000
   5120   5126   9292     1   107.9700462 569.024000
   5126   9292   9288     1   112.4800480 524.673600
   5129   9315   9311     1   112.4800480 524.673600
   5133   5134   5146     1   111.0400475 552.288000
   5133   5137   5149     1   111.0400475 552.288000
   5133   5140   5143     1   111.0400475 552.288000
   5134   5133   5137     1   112.3500484 533.878400
   5134   5133   5140     1   112.3500484 533.878400
   5134   5146   5158     1   111.5100476 526.347200
   5137   5133   5140     1   112.3500484 533.878400
   5137   5149   5155     1   111.5100476 526.347200
   5140   5143   5152     1   111.5100476 526.347200
   5143   5152   5161     1   107.9700462 569.024000
   5146   5158   9361     1   107.9700462 569.024000
   5149   5155   9338     1   107.9700462 569.024000
   5155   9338   9334     1   112.4800480 524.673600
   5158   9361   9357     1   112.4800480 524.673600
   5162   5163   5175     1   111.0400475 552.288000
   5162   5166   5178     1   111.0400475 552.288000
   5162   5169   5172     1   111.0400475 552.288000
   5163   5162   5166     1   112.3500484 533.878400
   5163   5162   5169     1   112.3500484 533.878400
   5163   5175   5187     1   111.5100476 526.347200
   5166   5162   5169     1   112.3500484 533.878400
   5166   5178   5184     1   111.5100476 526.347200
   5169   5172   5181     1   111.5100476 526.347200
   5172   5181   5190     1   107.9700462 569.024000
   5175   5187   9407     1   107.9700462 569.024000
   5178   5184   9384     1   107.9700462 569.024000
   5184   9384   9380     1   112.4800480 524.673600
   5187   9407   9403     1   112.4800480 524.673600
   5191   5192   5204     1   111.0400475 552.288000
   5191   5195   5207     1   111.0400475 552.288000
   5191   5198   5201     1   111.0400475 552.288000
   5192   5191   5195     1   112.3500484 533.878400
   5192   5191   5198     1   112.3500484 533.878400
   5192   5204   5216     1   111.5100476 526.347200
   5195   5191   5198     1   112.3500484 533.878400
   5195   5207   5213     1   111.5100476 526.347200
   5198   5201   5210     1   111.5100476 526.347200
   5201   5210   5219     1   107.9700462 569.024000
   5204   5216   9453     1   107.9700462 569.024000
   5207   5213   9430     1   107.9700462 569.024000
   5213   9430   9426     1   112.4800480 524.673600
   5216   9453   9449     1   112.4800480 524.673600
   5220   5221   5233     1   111.0400475 552.288000
   5220   5224   5236     1   111.0400475 552.288000
   5220   5227   5230     1   111.0400475 552.288000
   5221   5220   5224     1   112.3500484 533.878400
   5221   5220   5227     1   112.3500484 533.878400
   5221   5233   5245     1   111.5100476 526.347200
   5224   5220   5227     1   112.3500484 533.878400
   5224   5236   5242     1   111.5100476 526.347200
   5227   5230   5239     1   111.5100476 526.347200
   5230   5239   5248     1   107.9700462 569.024000
   5233   5245   9499     1   107.9700462 569.024000
   5236   5242   9476     1   107.9700462 569.024000
   5242   9476   9472     1   112.4800480 524.673600
   5245   9499   9495     1   112.4800480 524.673600
   5249   5250   5262     1   111.0400475 552.288000
   5249   5253   5265     1   111.0400475 552.288000
   5249   5256   5259     1   111.0400475 552.288000
   5250   5249   5253     1   112.3500484 533.878400
   5250   5249   5256     1   112.3500484 533.878400
   5250   5262   5274     1   111.5100476 526.347200
   5253   5249   5256     1   112.3500484 533.878400
   5253   5265   5271     1   111.5100476 526.347200
   5256   5259   5268     1   111.5100476 526.347200
   5259   5268   5277     1   107.9700462 569.024000
   5262   5274   9545     1   107.9700462 569.024000
   5265   5271   9522     1   107.9700462 569.024000
   5271   9522   9518     1   112.4800480 524.673600
   5274   9545   9541     1   112.4800480 524.673600
   5278   5279   5291     1   111.0400475 552.288000
   5278   5282   5294     1   111.0400475 552.288000
   5278   5285   5288     1   111.0400475 552.288000
   5279   5278   5282     1   112.3500484 533.878400
   5279   5278   5285     1   112.3500484 533.878400
   5279   5291   5303     1   111.5100476 526.347200
   5282   5278   5285     1   112.3500484 533.878400
   5282   5294   5300     1   111.5100476 526.347200
   5285   5288   5297     1   111.5100476 526.347200
   5288   5297   5306     1   107.9700462 569.024000
   5291   5303   9591     1   107.9700462 569.024000
   5294   5300   9568     1   107.9700462 569.024000
   5300   9568   9564     1   112.4800480 524.673600
   5303   9591   9587     1   112.4800480 524.673600
   5307   5308   5320     1   111.0400475 552.288000
   5307   5311   5323     1   111.0400475 552.288000
   5307   5314   5317     1   111.0400475 552.288000
   5308   5307   5311     1   112.3500484 533.878400
   5308   5307   5314     1   112.3500484 533.878400
   5308   5320   5332     1   111.5100476 526.347200
   5311   5307   5314     1   112.3500484 533.878400
   5311   5323   5329     1   111.5100476 526.347200
   5314   5317   5326     1   111.5100476 526.347200
   5317   5326   5335     1   107.9700462 569.024000
   5320   5332   9637     1   107.9700462 569.024000
   5323   5329   9614     1   107.9700462 569.024000
   5329   9614   9610     1   112.4800480 524.673600
   5332   9637   9633     1   112.4800480 524.673600
   5336   5337   5349     1   111.0400475 552.288000
   5336   5340   5352     1   111.0400475 552.288000
   5336   5343   5346     1   111.0400475 552.288000
   5337   5336   5340     1   112.3500484 533.878400
   5337   5336   5343     1   112.3500484 533.878400
   5337   5349   5361     1   111.5100476 526.347200
   5340   5336   5343     1   112.3500484 533.878400
   5340   5352   5358     1   111.5100476 526.347200
   5343   5346   5355     1   111.5100476 526.347200
   5346   5355   5364     1   107.9700462 569.024000
   5349   5361   9683     1   107.9700462 569.024000
   5352   5358   9660     1   107.9700462 569.024000
   5358   9660   9656     1   112.4800480 524.673600
   5361   9683   9679     1   112.4800480 524.673600
   5365   5366   5378     1   111.0400475 552.288000
   5365   5369   5381     1   111.0400475 552.288000
   5365   5372   5375     1   111.0400475 552.288000
   5366   5365   5369     1   112.3500484 533.878400
   5366   5365   5372     1   112.3500484 533.878400
   5366   5378   5390     1   111.5100476 526.347200
   5369   5365   5372     1   112.3500484 533.878400
   5369   5381   5387     1   111.5100476 526.347200
   5372   5375   5384     1   111.5100476 526.347200
   5375   5384   5393     1   107.9700462 569.024000
   5378   5390   9729     1   107.9700462 569.024000
   5381   5387   9706     1   107.9700462 569.024000
   5387   9706   9702     1   112.4800480 524.673600
   5390   9729   9725     1   112.4800480 524.673600
   5394   5395   5407     1   111.0400475 552.288000
   5394   5398   5410     1   111.0400475 552.288000
   5394   5401   5404     1   111.0400475 552.288000
   5395   5394   5398     1   112.3500484 533.878400
   5395   5394   5401     1   112.3500484 533.878400
   5395   5407   5419     1   111.5100476 526.347200
   5398   5394   5401     1   112.3500484 533.878400
   5398   5410   5416     1   111.5100476 526.347200
   5401   5404   5413     1   111.5100476 526.347200
   5404   5413   5422     1   107.9700462 569.024000
   5407   5419   9775     1   107.9700462 569.024000
   5410   5416   9752     1   107.9700462 569.024000
   5416   9752   9748     1   112.4800480 524.673600
   5419   9775   9771     1   112.4800480 524.673600
   5423   5424   5436     1   111.0400475 552.288000
   5423   5427   5439     1   111.0400475 552.288000
   5423   5430   5433     1   111.0400475 552.288000
   5424   5423   5427     1   112.3500484 533.878400
   5424   5423   5430     1   112.3500484 533.878400
   5424   5436   5448     1   111.5100476 526.347200
   5427   5423   5430     1   112.3500484 533.878400
   5427   5439   5445     1   111.5100476 526.347200
   5430   5433   5442     1   111.5100476 526.347200
   5433   5442   5451     1   107.9700462 569.024000
   5436   5448   9821     1   107.9700462 569.024000
   5439   5445   9798     1   107.9700462 569.024000
   5445   9798   9794     1   112.4800480 524.673600
   5448   9821   9817     1   112.4800480 524.673600
   5452   5453   5465     1   111.0400475 552.288000
   5452   5456   5468     1   111.0400475 552.288000
   5452   5459   5462     1   111.0400475 552.288000
   5453   5452   5456     1   112.3500484 533.878400
   5453   5452   5459     1   112.3500484 533.878400
   5453   5465   5477     1   111.5100476 526.347200
   5456   5452   5459     1   112.3500484 533.878400
   5456   5468   5474     1   111.5100476 526.347200
   5459   5462   5471     1   111.5100476 526.347200
   5462   5471   5480     1   107.9700462 569.024000
   5465   5477   9867     1   107.9700462 569.024000
   5468   5474   9844     1   107.9700462 569.024000
   5474   9844   9840     1   112.4800480 524.673600
   5477   9867   9863     1   112.4800480 524.673600
   5481   5482   5494     1   111.0400475 552.288000
   5481   5485   5497     1   111.0400475 552.288000
   5481   5488   5491     1   111.0400475 552.288000
   5482   5481   5485     1   112.3500484 533.878400
   5482   5481   5488     1   112.3500484 533.878400
   5482   5494   5506     1   111.5100476 526.347200
   5485   5481   5488     1   112.3500484 533.878400
   5485   5497   5503     1   111.5100476 526.347200
   5488   5491   5500     1   111.5100476 526.347200
   5491   5500   5509     1   107.9700462 569.024000
   5494   5506   9913     1   107.9700462 569.024000
   5497   5503   9890     1   107.9700462 569.024000
   5503   9890   9886     1   112.4800480 524.673600
   5506   9913   9909     1   112.4800480 524.673600
   5510   5511   5514     1   111.5100476 526.347200
   5510   5511   5523     1   110.1900474 564.840000
   5510   5524   5530     1   110.1900474 564.840000
   5510   5532   5516     1   112.4800480 524.673600
   5511   5510   5524     1   111.5100476 526.347200
   5511   5510   5532     1   107.9700462 569.024000
   5511   5514   5515     1   111.5100476 526.347200
   5511   5514   5522     1   110.1900474 564.840000
   5514   5511   5523     1   110.1900474 564.840000
   5514   5515   5516     1   111.5100476 526.347200
   5514   5515   5521     1   110.1900474 564.840000
   5515   5514   5522     1   110.1900474 564.840000
   5515   5516   5520     1   107.9700462 569.024000
   5515   5516   5532     1   107.9700462 569.024000
   5516   5515   5521     1   110.1900474 564.840000
   5520   5516   5532     1   108.2900466 608.353600
   5524   5510   5532     1   107.9700462 569.024000
   5533   5534   5537     1   111.5100476 526.347200
   5533   5534   5546     1   110.1900474 564.840000
   5533   5547   5553     1   110.1900474 564.840000
   5533   5555   5539     1   112.4800480 524.673600
   5534   5537   5538     1   111.5100476 526.347200
   5534   5537   5545     1   110.1900474 564.840000
   5534   5533   5547     1   111.5100476 526.347200
   5534   5533   5555     1   107.9700462 569.024000
   5537   5538   5539     1   111.5100476 526.347200
   5537   5538   5544     1   110.1900474 564.840000
   5537   5534   5546     1   110.1900474 564.840000
   5538   5539   5543     1   107.9700462 569.024000
   5538   5539   5555     1   107.9700462 569.024000
   5538   5537   5545     1   110.1900474 564.840000
   5539   5538   5544     1   110.1900474 564.840000
   5543   5539   5555     1   108.2900466 608.353600
   5547   5533   5555     1   107.9700462 569.024000
   5556   5557   5560     1   111.5100476 526.347200
   5556   5557   5569     1   110.1900474 564.840000
   5556   5570   5576     1   110.1900474 564.840000
   5556   5578   5562     1   112.4800480 524.673600
   5557   5556   5570     1   111.5100476 526.347200
   5557   5556   5578     1   107.9700462 569.024000
   5557   5560   5561     1   111.5100476 526.347200
   5557   5560   5568     1   110.1900474 564.840000
   5560   5557   5569     1   110.1900474 564.840000
   5560   5561   5562     1   111.5100476 526.347200
   5560   5561   5567     1   110.1900474 564.840000
   5561   5560   5568     1   110.1900474 564.840000
   5561   5562   5566     1   107.9700462 569.024000
   5561   5562   5578     1   107.9700462 569.024000
   5562   5561   5567     1   110.1900474 564.840000
   5566   5562   5578     1   108.2900466 608.353600
   5570   5556   5578     1   107.9700462 569.024000
   5579   5580   5583     1   111.5100476 526.347200
   5579   5580   5592     1   110.1900474 564.840000
   5579   5593   5599     1   110.1900474 564.840000
   5579   5601   5585     1   112.4800480 524.673600
   5580   5583   5584     1   111.5100476 526.347200
   5580   5583   5591     1   110.1900474 564.840000
   5580   5579   5593     1   111.5100476 526.347200
   5580   5579   5601     1   107.9700462 569.024000
   5583   5584   5585     1   111.5100476 526.347200
   5583   5584   5590     1   110.1900474 564.840000
   5583   5580   5592     1   110.1900474 564.840000
   5584   5585   5589     1   107.9700462 569.024000
   5584   5585   5601     1   107.9700462 569.024000
   5584   5583   5591     1   110.1900474 564.840000
   5585   5584   5590     1   110.1900474 564.840000
   5589   5585   5601     1   108.2900466 608.353600
   5593   5579   5601     1   107.9700462 569.024000
   5602   5603   5606     1   111.5100476 526.347200
   5602   5603   5615     1   110.1900474 564.840000
   5602   5616   5622     1   110.1900474 564.840000
   5602   5624   5608     1   112.4800480 524.673600
   5603   5602   5616     1   111.5100476 526.347200
   5603   5602   5624     1   107.9700462 569.024000
   5603   5606   5607     1   111.5100476 526.347200
   5603   5606   5614     1   110.1900474 564.840000
   5606   5603   5615     1   110.1900474 564.840000
   5606   5607   5608     1   111.5100476 526.347200
   5606   5607   5613     1   110.1900474 564.840000
   5607   5606   5614     1   110.1900474 564.840000
   5607   5608   5612     1   107.9700462 569.024000
   5607   5608   5624     1   107.9700462 569.024000
   5608   5607   5613     1   110.1900474 564.840000
   5612   5608   5624     1   108.2900466 608.353600
   5616   5602   5624     1   107.9700462 569.024000
   5625   5626   5629     1   111.5100476 526.347200
   5625   5626   5638     1   110.1900474 564.840000
   5625   5639   5645     1   110.1900474 564.840000
   5625   5647   5631     1   112.4800480 524.673600
   5626   5629   5630     1   111.5100476 526.347200
   5626   5629   5637     1   110.1900474 564.840000
   5626   5625   5639     1   111.5100476 526.347200
   5626   5625   5647     1   107.9700462 569.024000
   5629   5630   5631     1   111.5100476 526.347200
   5629   5630   5636     1   110.1900474 564.840000
   5629   5626   5638     1   110.1900474 564.840000
   5630   5631   5635     1   107.9700462 569.024000
   5630   5631   5647     1   107.9700462 569.024000
   5630   5629   5637     1   110.1900474 564.840000
   5631   5630   5636     1   110.1900474 564.840000
   5635   5631   5647     1   108.2900466 608.353600
   5639   5625   5647     1   107.9700462 569.024000
   5648   5649   5652     1   111.5100476 526.347200
   5648   5649   5661     1   110.1900474 564.840000
   5648   5662   5668     1   110.1900474 564.840000
   5648   5670   5654     1   112.4800480 524.673600
   5649   5648   5662     1   111.5100476 526.347200
   5649   5648   5670     1   107.9700462 569.024000
   5649   5652   5653     1   111.5100476 526.347200
   5649   5652   5660     1   110.1900474 564.840000
   5652   5649   5661     1   110.1900474 564.840000
   5652   5653   5654     1   111.5100476 526.347200
   5652   5653   5659     1   110.1900474 564.840000
   5653   5652   5660     1   110.1900474 564.840000
   5653   5654   5658     1   107.9700462 569.024000
   5653   5654   5670     1   107.9700462 569.024000
   5654   5653   5659     1   110.1900474 564.840000
   5658   5654   5670     1   108.2900466 608.353600
   5662   5648   5670     1   107.9700462 569.024000
   5671   5672   5675     1   111.5100476 526.347200
   5671   5672   5684     1   110.1900474 564.840000
   5671   5685   5691     1   110.1900474 564.840000
   5671   5693   5677     1   112.4800480 524.673600
   5672   5675   5676     1   111.5100476 526.347200
   5672   5675   5683     1   110.1900474 564.840000
   5672   5671   5685     1   111.5100476 526.347200
   5672   5671   5693     1   107.9700462 569.024000
   5675   5676   5677     1   111.5100476 526.347200
   5675   5676   5682     1   110.1900474 564.840000
   5675   5672   5684     1   110.1900474 564.840000
   5676   5677   5681     1   107.9700462 569.024000
   5676   5677   5693     1   107.9700462 569.024000
   5676   5675   5683     1   110.1900474 564.840000
   5677   5676   5682     1   110.1900474 564.840000
   5681   5677   5693     1   108.2900466 608.353600
   5685   5671   5693     1   107.9700462 569.024000
   5694   5695   5698     1   111.5100476 526.347200
   5694   5695   5707     1   110.1900474 564.840000
   5694   5708   5714     1   110.1900474 564.840000
   5694   5716   5700     1   112.4800480 524.673600
   5695   5694   5708     1   111.5100476 526.347200
   5695   5694   5716     1   107.9700462 569.024000
   5695   5698   5699     1   111.5100476 526.347200
   5695   5698   5706     1   110.1900474 564.840000
   5698   5695   5707     1   110.1900474 564.840000
   5698   5699   5700     1   111.5100476 526.347200
   5698   5699   5705     1   110.1900474 564.840000
   5699   5698   5706     1   110.1900474 564.840000
   5699   5700   5704     1   107.9700462 569.024000
   5699   5700   5716     1   107.9700462 569.024000
   5700   5699   5705     1   110.1900474 564.840000
   5704   5700   5716     1   108.2900466 608.353600
   5708   5694   5716     1   107.9700462 569.024000
   5717   5718   5721     1   111.5100476 526.347200
   5717   5718   5730     1   110.1900474 564.840000
   5717   5731   5737     1   110.1900474 564.840000
   5717   5739   5723     1   112.4800480 524.673600
   5718   5721   5722     1   111.5100476 526.347200
   5718   5721   5729     1   110.1900474 564.840000
   5718   5717   5731     1   111.5100476 526.347200
   5718   5717   5739     1   107.9700462 569.024000
   5721   5722   5723     1   111.5100476 526.347200
   5721   5722   5728     1   110.1900474 564.840000
   5721   5718   5730     1   110.1900474 564.840000
   5722   5723   5727     1   107.9700462 569.024000
   5722   5723   5739     1   107.9700462 569.024000
   5722   5721   5729     1   110.1900474 564.840000
   5723   5722   5728     1   110.1900474 564.840000
   5727   5723   5739     1   108.2900466 608.353600
   5731   5717   5739     1   107.9700462 569.024000
   5740   5741   5744     1   111.5100476 526.347200
   5740   5741   5753     1   110.1900474 564.840000
   5740   5754   5760     1   110.1900474 564.840000
   5740   5762   5746     1   112.4800480 524.673600
   5741   5740   5754     1   111.5100476 526.347200
   5741   5740   5762     1   107.9700462 569.024000
   5741   5744   5745     1   111.5100476 526.347200
   5741   5744   5752     1   110.1900474 564.840000
   5744   5741   5753     1   110.1900474 564.840000
   5744   5745   5746     1   111.5100476 526.347200
   5744   5745   5751     1   110.1900474 564.840000
   5745   5744   5752     1   110.1900474 564.840000
   5745   5746   5750     1   107.9700462 569.024000
   5745   5746   5762     1   107.9700462 569.024000
   5746   5745   5751     1   110.1900474 564.840000
   5750   5746   5762     1   108.2900466 608.353600
   5754   5740   5762     1   107.9700462 569.024000
   5763   5764   5767     1   111.5100476 526.347200
   5763   5764   5776     1   110.1900474 564.840000
   5763   5777   5783     1   110.1900474 564.840000
   5763   5785   5769     1   112.4800480 524.673600
   5764   5767   5768     1   111.5100476 526.347200
   5764   5767   5775     1   110.1900474 564.840000
   5764   5763   5777     1   111.5100476 526.347200
   5764   5763   5785     1   107.9700462 569.024000
   5767   5768   5769     1   111.5100476 526.347200
   5767   5768   5774     1   110.1900474 564.840000
   5767   5764   5776     1   110.1900474 564.840000
   5768   5769   5773     1   107.9700462 569.024000
   5768   5769   5785     1   107.9700462 569.024000
   5768   5767   5775     1   110.1900474 564.840000
   5769   5768   5774     1   110.1900474 564.840000
   5773   5769   5785     1   108.2900466 608.353600
   5777   5763   5785     1   107.9700462 569.024000
   5786   5787   5790     1   111.5100476 526.347200
   5786   5787   5799     1   110.1900474 564.840000
   5786   5800   5806     1   110.1900474 564.840000
   5786   5808   5792     1   112.4800480 524.673600
   5787   5786   5800     1   111.5100476 526.347200
   5787   5786   5808     1   107.9700462 569.024000
   5787   5790   5791     1   111.5100476 526.347200
   5787   5790   5798     1   110.1900474 564.840000
   5790   5787   5799     1   110.1900474 564.840000
   5790   5791   5792     1   111.5100476 526.347200
   5790   5791   5797     1   110.1900474 564.840000
   5791   5790   5798     1   110.1900474 564.840000
   5791   5792   5796     1   107.9700462 569.024000
   5791   5792   5808     1   107.9700462 569.024000
   5792   5791   5797     1   110.1900474 564.840000
   5796   5792   5808     1   108.2900466 608.353600
   5800   5786   5808     1   107.9700462 569.024000
   5809   5810   5813     1   111.5100476 526.347200
   5809   5810   5822     1   110.1900474 564.840000
   5809   5823   5829     1   110.1900474 564.840000
   5809   5831   5815     1   112.4800480 524.673600
   5810   5813   5814     1   111.5100476 526.347200
   5810   5813   5821     1   110.1900474 564.840000
   5810   5809   5823     1   111.5100476 526.347200
   5810   5809   5831     1   107.9700462 569.024000
   5813   5814   5815     1   111.5100476 526.347200
   5813   5814   5820     1   110.1900474 564.840000
   5813   5810   5822     1   110.1900474 564.840000
   5814   5815   5819     1   107.9700462 569.024000
   5814   5815   5831     1   107.9700462 569.024000
   5814   5813   5821     1   110.1900474 564.840000
   5815   5814   5820     1   110.1900474 564.840000
   5819   5815   5831     1   108.2900466 608.353600
   5823   5809   5831     1   107.9700462 569.024000
   5832   5833   5836     1   111.5100476 526.347200
   5832   5833   5845     1   110.1900474 564.840000
   5832   5846   5852     1   110.1900474 564.840000
   5832   5854   5838     1   112.4800480 524.673600
   5833   5832   5846     1   111.5100476 526.347200
   5833   5832   5854     1   107.9700462 569.024000
   5833   5836   5837     1   111.5100476 526.347200
   5833   5836   5844     1   110.1900474 564.840000
   5836   5833   5845     1   110.1900474 564.840000
   5836   5837   5838     1   111.5100476 526.347200
   5836   5837   5843     1   110.1900474 564.840000
   5837   5836   5844     1   110.1900474 564.840000
   5837   5838   5842     1   107.9700462 569.024000
   5837   5838   5854     1   107.9700462 569.024000
   5838   5837   5843     1   110.1900474 564.840000
   5842   5838   5854     1   108.2900466 608.353600
   5846   5832   5854     1   107.9700462 569.024000
   5855   5856   5859     1   111.5100476 526.347200
   5855   5856   5868     1   110.1900474 564.840000
   5855   5869   5875     1   110.1900474 564.840000
   5855   5877   5861     1   112.4800480 524.673600
   5856   5859   5860     1   111.5100476 526.347200
   5856   5859   5867     1   110.1900474 564.840000
   5856   5855   5869     1   111.5100476 526.347200
   5856   5855   5877     1   107.9700462 569.024000
   5859   5860   5861     1   111.5100476 526.347200
   5859   5860   5866     1   110.1900474 564.840000
   5859   5856   5868     1   110.1900474 564.840000
   5860   5861   5865     1   107.9700462 569.024000
   5860   5861   5877     1   107.9700462 569.024000
   5860   5859   5867     1   110.1900474 564.840000
   5861   5860   5866     1   110.1900474 564.840000
   5865   5861   5877     1   108.2900466 608.353600
   5869   5855   5877     1   107.9700462 569.024000
   5878   5879   5882     1   111.5100476 526.347200
   5878   5879   5891     1   110.1900474 564.840000
   5878   5892   5898     1   110.1900474 564.840000
   5878   5900   5884     1   112.4800480 524.673600
   5879   5878   5892     1   111.5100476 526.347200
   5879   5878   5900     1   107.9700462 569.024000
   5879   5882   5883     1   111.5100476 526.347200
   5879   5882   5890     1   110.1900474 564.840000
   5882   5879   5891     1   110.1900474 564.840000
   5882   5883   5884     1   111.5100476 526.347200
   5882   5883   5889     1   110.1900474 564.840000
   5883   5882   5890     1   110.1900474 564.840000
   5883   5884   5888     1   107.9700462 569.024000
   5883   5884   5900     1   107.9700462 569.024000
   5884   5883   5889     1   110.1900474 564.840000
   5888   5884   5900     1   108.2900466 608.353600
   5892   5878   5900     1   107.9700462 569.024000
   5901   5902   5905     1   111.5100476 526.347200
   5901   5902   5914     1   110.1900474 564.840000
   5901   5915   5921     1   110.1900474 564.840000
   5901   5923   5907     1   112.4800480 524.673600
   5902   5905   5906     1   111.5100476 526.347200
   5902   5905   5913     1   110.1900474 564.840000
   5902   5901   5915     1   111.5100476 526.347200
   5902   5901   5923     1   107.9700462 569.024000
   5905   5906   5907     1   111.5100476 526.347200
   5905   5906   5912     1   110.1900474 564.840000
   5905   5902   5914     1   110.1900474 564.840000
   5906   5907   5911     1   107.9700462 569.024000
   5906   5907   5923     1   107.9700462 569.024000
   5906   5905   5913     1   110.1900474 564.840000
   5907   5906   5912     1   110.1900474 564.840000
   5911   5907   5923     1   108.2900466 608.353600
   5915   5901   5923     1   107.9700462 569.024000
   5924   5925   5928     1   111.5100476 526.347200
   5924   5925   5937     1   110.1900474 564.840000
   5924   5938   5944     1   110.1900474 564.840000
   5924   5946   5930     1   112.4800480 524.673600
   5925   5924   5938     1   111.5100476 526.347200
   5925   5924   5946     1   107.9700462 569.024000
   5925   5928   5929     1   111.5100476 526.347200
   5925   5928   5936     1   110.1900474 564.840000
   5928   5925   5937     1   110.1900474 564.840000
   5928   5929   5930     1   111.5100476 526.347200
   5928   5929   5935     1   110.1900474 564.840000
   5929   5928   5936     1   110.1900474 564.840000
   5929   5930   5934     1   107.9700462 569.024000
   5929   5930   5946     1   107.9700462 569.024000
   5930   5929   5935     1   110.1900474 564.840000
   5934   5930   5946     1   108.2900466 608.353600
   5938   5924   5946     1   107.9700462 569.024000
   5947   5948   5951     1   111.5100476 526.347200
   5947   5948   5960     1   110.1900474 564.840000
   5947   5961   5967     1   110.1900474 564.840000
   5947   5969   5953     1   112.4800480 524.673600
   5948   5951   5952     1   111.5100476 526.347200
   5948   5951   5959     1   110.1900474 564.840000
   5948   5947   5961     1   111.5100476 526.347200
   5948   5947   5969     1   107.9700462 569.024000
   5951   5952   5953     1   111.5100476 526.347200
   5951   5952   5958     1   110.1900474 564.840000
   5951   5948   5960     1   110.1900474 564.840000
   5952   5953   5957     1   107.9700462 569.024000
   5952   5953   5969     1   107.9700462 569.024000
   5952   5951   5959     1   110.1900474 564.840000
   5953   5952   5958     1   110.1900474 564.840000
   5957   5953   5969     1   108.2900466 608.353600
   5961   5947   5969     1   107.9700462 569.024000
   5970   5971   5974     1   111.5100476 526.347200
   5970   5971   5983     1   110.1900474 564.840000
   5970   5984   5990     1   110.1900474 564.840000
   5970   5992   5976     1   112.4800480 524.673600
   5971   5970   5984     1   111.5100476 526.347200
   5971   5970   5992     1   107.9700462 569.024000
   5971   5974   5975     1   111.5100476 526.347200
   5971   5974   5982     1   110.1900474 564.840000
   5974   5971   5983     1   110.1900474 564.840000
   5974   5975   5976     1   111.5100476 526.347200
   5974   5975   5981     1   110.1900474 564.840000
   5975   5974   5982     1   110.1900474 564.840000
   5975   5976   5980     1   107.9700462 569.024000
   5975   5976   5992     1   107.9700462 569.024000
   5976   5975   5981     1   110.1900474 564.840000
   5980   5976   5992     1   108.2900466 608.353600
   5984   5970   5992     1   107.9700462 569.024000
   5993   5994   5997     1   111.5100476 526.347200
   5993   5994   6006     1   110.1900474 564.840000
   5993   6007   6013     1   110.1900474 564.840000
   5993   6015   5999     1   112.4800480 524.673600
   5994   5997   5998     1   111.5100476 526.347200
   5994   5997   6005     1   110.1900474 564.840000
   5994   5993   6007     1   111.5100476 526.347200
   5994   5993   6015     1   107.9700462 569.024000
   5997   5998   5999     1   111.5100476 526.347200
   5997   5998   6004     1   110.1900474 564.840000
   5997   5994   6006     1   110.1900474 564.840000
   5998   5999   6003     1   107.9700462 569.024000
   5998   5999   6015     1   107.9700462 569.024000
   5998   5997   6005     1   110.1900474 564.840000
   5999   5998   6004     1   110.1900474 564.840000
   6003   5999   6015     1   108.2900466 608.353600
   6007   5993   6015     1   107.9700462 569.024000
   6016   6017   6020     1   111.5100476 526.347200
   6016   6017   6029     1   110.1900474 564.840000
   6016   6030   6036     1   110.1900474 564.840000
   6016   6038   6022     1   112.4800480 524.673600
   6017   6016   6030     1   111.5100476 526.347200
   6017   6016   6038     1   107.9700462 569.024000
   6017   6020   6021     1   111.5100476 526.347200
   6017   6020   6028     1   110.1900474 564.840000
   6020   6017   6029     1   110.1900474 564.840000
   6020   6021   6022     1   111.5100476 526.347200
   6020   6021   6027     1   110.1900474 564.840000
   6021   6020   6028     1   110.1900474 564.840000
   6021   6022   6026     1   107.9700462 569.024000
   6021   6022   6038     1   107.9700462 569.024000
   6022   6021   6027     1   110.1900474 564.840000
   6026   6022   6038     1   108.2900466 608.353600
   6030   6016   6038     1   107.9700462 569.024000
   6039   6040   6043     1   111.5100476 526.347200
   6039   6040   6052     1   110.1900474 564.840000
   6039   6053   6059     1   110.1900474 564.840000
   6039   6061   6045     1   112.4800480 524.673600
   6040   6043   6044     1   111.5100476 526.347200
   6040   6043   6051     1   110.1900474 564.840000
   6040   6039   6053     1   111.5100476 526.347200
   6040   6039   6061     1   107.9700462 569.024000
   6043   6044   6045     1   111.5100476 526.347200
   6043   6044   6050     1   110.1900474 564.840000
   6043   6040   6052     1   110.1900474 564.840000
   6044   6045   6049     1   107.9700462 569.024000
   6044   6045   6061     1   107.9700462 569.024000
   6044   6043   6051     1   110.1900474 564.840000
   6045   6044   6050     1   110.1900474 564.840000
   6049   6045   6061     1   108.2900466 608.353600
   6053   6039   6061     1   107.9700462 569.024000
   6062   6063   6066     1   111.5100476 526.347200
   6062   6063   6075     1   110.1900474 564.840000
   6062   6076   6082     1   110.1900474 564.840000
   6062   6084   6068     1   112.4800480 524.673600
   6063   6062   6076     1   111.5100476 526.347200
   6063   6062   6084     1   107.9700462 569.024000
   6063   6066   6067     1   111.5100476 526.347200
   6063   6066   6074     1   110.1900474 564.840000
   6066   6063   6075     1   110.1900474 564.840000
   6066   6067   6068     1   111.5100476 526.347200
   6066   6067   6073     1   110.1900474 564.840000
   6067   6066   6074     1   110.1900474 564.840000
   6067   6068   6072     1   107.9700462 569.024000
   6067   6068   6084     1   107.9700462 569.024000
   6068   6067   6073     1   110.1900474 564.840000
   6072   6068   6084     1   108.2900466 608.353600
   6076   6062   6084     1   107.9700462 569.024000
   6085   6086   6089     1   111.5100476 526.347200
   6085   6086   6098     1   110.1900474 564.840000
   6085   6099   6105     1   110.1900474 564.840000
   6085   6107   6091     1   112.4800480 524.673600
   6086   6089   6090     1   111.5100476 526.347200
   6086   6089   6097     1   110.1900474 564.840000
   6086   6085   6099     1   111.5100476 526.347200
   6086   6085   6107     1   107.9700462 569.024000
   6089   6090   6091     1   111.5100476 526.347200
   6089   6090   6096     1   110.1900474 564.840000
   6089   6086   6098     1   110.1900474 564.840000
   6090   6091   6095     1   107.9700462 569.024000
   6090   6091   6107     1   107.9700462 569.024000
   6090   6089   6097     1   110.1900474 564.840000
   6091   6090   6096     1   110.1900474 564.840000
   6095   6091   6107     1   108.2900466 608.353600
   6099   6085   6107     1   107.9700462 569.024000
   6108   6109   6112     1   111.5100476 526.347200
   6108   6109   6121     1   110.1900474 564.840000
   6108   6122   6128     1   110.1900474 564.840000
   6108   6130   6114     1   112.4800480 524.673600
   6109   6108   6122     1   111.5100476 526.347200
   6109   6108   6130     1   107.9700462 569.024000
   6109   6112   6113     1   111.5100476 526.347200
   6109   6112   6120     1   110.1900474 564.840000
   6112   6109   6121     1   110.1900474 564.840000
   6112   6113   6114     1   111.5100476 526.347200
   6112   6113   6119     1   110.1900474 564.840000
   6113   6112   6120     1   110.1900474 564.840000
   6113   6114   6118     1   107.9700462 569.024000
   6113   6114   6130     1   107.9700462 569.024000
   6114   6113   6119     1   110.1900474 564.840000
   6118   6114   6130     1   108.2900466 608.353600
   6122   6108   6130     1   107.9700462 569.024000
   6131   6132   6135     1   111.5100476 526.347200
   6131   6132   6144     1   110.1900474 564.840000
   6131   6145   6151     1   110.1900474 564.840000
   6131   6153   6137     1   112.4800480 524.673600
   6132   6135   6136     1   111.5100476 526.347200
   6132   6135   6143     1   110.1900474 564.840000
   6132   6131   6145     1   111.5100476 526.347200
   6132   6131   6153     1   107.9700462 569.024000
   6135   6136   6137     1   111.5100476 526.347200
   6135   6136   6142     1   110.1900474 564.840000
   6135   6132   6144     1   110.1900474 564.840000
   6136   6137   6141     1   107.9700462 569.024000
   6136   6137   6153     1   107.9700462 569.024000
   6136   6135   6143     1   110.1900474 564.840000
   6137   6136   6142     1   110.1900474 564.840000
   6141   6137   6153     1   108.2900466 608.353600
   6145   6131   6153     1   107.9700462 569.024000
   6154   6155   6158     1   111.5100476 526.347200
   6154   6155   6167     1   110.1900474 564.840000
   6154   6168   6174     1   110.1900474 564.840000
   6154   6176   6160     1   112.4800480 524.673600
   6155   6154   6168     1   111.5100476 526.347200
   6155   6154   6176     1   107.9700462 569.024000
   6155   6158   6159     1   111.5100476 526.347200
   6155   6158   6166     1   110.1900474 564.840000
   6158   6155   6167     1   110.1900474 564.840000
   6158   6159   6160     1   111.5100476 526.347200
   6158   6159   6165     1   110.1900474 564.840000
   6159   6158   6166     1   110.1900474 564.840000
   6159   6160   6164     1   107.9700462 569.024000
   6159   6160   6176     1   107.9700462 569.024000
   6160   6159   6165     1   110.1900474 564.840000
   6164   6160   6176     1   108.2900466 608.353600
   6168   6154   6176     1   107.9700462 569.024000
   6177   6178   6181     1   111.5100476 526.347200
   6177   6178   6190     1   110.1900474 564.840000
   6177   6191   6197     1   110.1900474 564.840000
   6177   6199   6183     1   112.4800480 524.673600
   6178   6181   6182     1   111.5100476 526.347200
   6178   6181   6189     1   110.1900474 564.840000
   6178   6177   6191     1   111.5100476 526.347200
   6178   6177   6199     1   107.9700462 569.024000
   6181   6182   6183     1   111.5100476 526.347200
   6181   6182   6188     1   110.1900474 564.840000
   6181   6178   6190     1   110.1900474 564.840000
   6182   6183   6187     1   107.9700462 569.024000
   6182   6183   6199     1   107.9700462 569.024000
   6182   6181   6189     1   110.1900474 564.840000
   6183   6182   6188     1   110.1900474 564.840000
   6187   6183   6199     1   108.2900466 608.353600
   6191   6177   6199     1   107.9700462 569.024000
   6200   6201   6204     1   111.5100476 526.347200
   6200   6201   6213     1   110.1900474 564.840000
   6200   6214   6220     1   110.1900474 564.840000
   6200   6222   6206     1   112.4800480 524.673600
   6201   6200   6214     1   111.5100476 526.347200
   6201   6200   6222     1   107.9700462 569.024000
   6201   6204   6205     1   111.5100476 526.347200
   6201   6204   6212     1   110.1900474 564.840000
   6204   6201   6213     1   110.1900474 564.840000
   6204   6205   6206     1   111.5100476 526.347200
   6204   6205   6211     1   110.1900474 564.840000
   6205   6204   6212     1   110.1900474 564.840000
   6205   6206   6210     1   107.9700462 569.024000
   6205   6206   6222     1   107.9700462 569.024000
   6206   6205   6211     1   110.1900474 564.840000
   6210   6206   6222     1   108.2900466 608.353600
   6214   6200   6222     1   107.9700462 569.024000
   6223   6224   6227     1   111.5100476 526.347200
   6223   6224   6236     1   110.1900474 564.840000
   6223   6237   6243     1   110.1900474 564.840000
   6223   6245   6229     1   112.4800480 524.673600
   6224   6227   6228     1   111.5100476 526.347200
   6224   6227   6235     1   110.1900474 564.840000
   6224   6223   6237     1   111.5100476 526.347200
   6224   6223   6245     1   107.9700462 569.024000
   6227   6228   6229     1   111.5100476 526.347200
   6227   6228   6234     1   110.1900474 564.840000
   6227   6224   6236     1   110.1900474 564.840000
   6228   6229   6233     1   107.9700462 569.024000
   6228   6229   6245     1   107.9700462 569.024000
   6228   6227   6235     1   110.1900474 564.840000
   6229   6228   6234     1   110.1900474 564.840000
   6233   6229   6245     1   108.2900466 608.353600
   6237   6223   6245     1   107.9700462 569.024000
   6246   6247   6250     1   111.5100476 526.347200
   6246   6247   6259     1   110.1900474 564.840000
   6246   6260   6266     1   110.1900474 564.840000
   6246   6268   6252     1   112.4800480 524.673600
   6247   6246   6260     1   111.5100476 526.347200
   6247   6246   6268     1   107.9700462 569.024000
   6247   6250   6251     1   111.5100476 526.347200
   6247   6250   6258     1   110.1900474 564.840000
   6250   6247   6259     1   110.1900474 564.840000
   6250   6251   6252     1   111.5100476 526.347200
   6250   6251   6257     1   110.1900474 564.840000
   6251   6250   6258     1   110.1900474 564.840000
   6251   6252   6256     1   107.9700462 569.024000
   6251   6252   6268     1   107.9700462 569.024000
   6252   6251   6257     1   110.1900474 564.840000
   6256   6252   6268     1   108.2900466 608.353600
   6260   6246   6268     1   107.9700462 569.024000
   6269   6270   6273     1   111.5100476 526.347200
   6269   6270   6282     1   110.1900474 564.840000
   6269   6283   6289     1   110.1900474 564.840000
   6269   6291   6275     1   112.4800480 524.673600
   6270   6273   6274     1   111.5100476 526.347200
   6270   6273   6281     1   110.1900474 564.840000
   6270   6269   6283     1   111.5100476 526.347200
   6270   6269   6291     1   107.9700462 569.024000
   6273   6274   6275     1   111.5100476 526.347200
   6273   6274   6280     1   110.1900474 564.840000
   6273   6270   6282     1   110.1900474 564.840000
   6274   6275   6279     1   107.9700462 569.024000
   6274   6275   6291     1   107.9700462 569.024000
   6274   6273   6281     1   110.1900474 564.840000
   6275   6274   6280     1   110.1900474 564.840000
   6279   6275   6291     1   108.2900466 608.353600
   6283   6269   6291     1   107.9700462 569.024000
   6292   6293   6296     1   111.5100476 526.347200
   6292   6293   6305     1   110.1900474 564.840000
   6292   6306   6312     1   110.1900474 564.840000
   6292   6314   6298     1   112.4800480 524.673600
   6293   6292   6306     1   111.5100476 526.347200
   6293   6292   6314     1   107.9700462 569.024000
   6293   6296   6297     1   111.5100476 526.347200
   6293   6296   6304     1   110.1900474 564.840000
   6296   6293   6305     1   110.1900474 564.840000
   6296   6297   6298     1   111.5100476 526.347200
   6296   6297   6303     1   110.1900474 564.840000
   6297   6296   6304     1   110.1900474 564.840000
   6297   6298   6302     1   107.9700462 569.024000
   6297   6298   6314     1   107.9700462 569.024000
   6298   6297   6303     1   110.1900474 564.840000
   6302   6298   6314     1   108.2900466 608.353600
   6306   6292   6314     1   107.9700462 569.024000
   6315   6316   6319     1   111.5100476 526.347200
   6315   6316   6328     1   110.1900474 564.840000
   6315   6329   6335     1   110.1900474 564.840000
   6315   6337   6321     1   112.4800480 524.673600
   6316   6319   6320     1   111.5100476 526.347200
   6316   6319   6327     1   110.1900474 564.840000
   6316   6315   6329     1   111.5100476 526.347200
   6316   6315   6337     1   107.9700462 569.024000
   6319   6320   6321     1   111.5100476 526.347200
   6319   6320   6326     1   110.1900474 564.840000
   6319   6316   6328     1   110.1900474 564.840000
   6320   6321   6325     1   107.9700462 569.024000
   6320   6321   6337     1   107.9700462 569.024000
   6320   6319   6327     1   110.1900474 564.840000
   6321   6320   6326     1   110.1900474 564.840000
   6325   6321   6337     1   108.2900466 608.353600
   6329   6315   6337     1   107.9700462 569.024000
   6338   6339   6342     1   111.5100476 526.347200
   6338   6339   6351     1   110.1900474 564.840000
   6338   6352   6358     1   110.1900474 564.840000
   6338   6360   6344     1   112.4800480 524.673600
   6339   6338   6352     1   111.5100476 526.347200
   6339   6338   6360     1   107.9700462 569.024000
   6339   6342   6343     1   111.5100476 526.347200
   6339   6342   6350     1   110.1900474 564.840000
   6342   6339   6351     1   110.1900474 564.840000
   6342   6343   6344     1   111.5100476 526.347200
   6342   6343   6349     1   110.1900474 564.840000
   6343   6342   6350     1   110.1900474 564.840000
   6343   6344   6348     1   107.9700462 569.024000
   6343   6344   6360     1   107.9700462 569.024000
   6344   6343   6349     1   110.1900474 564.840000
   6348   6344   6360     1   108.2900466 608.353600
   6352   6338   6360     1   107.9700462 569.024000
   6361   6362   6365     1   111.5100476 526.347200
   6361   6362   6374     1   110.1900474 564.840000
   6361   6375   6381     1   110.1900474 564.840000
   6361   6383   6367     1   112.4800480 524.673600
   6362   6365   6366     1   111.5100476 526.347200
   6362   6365   6373     1   110.1900474 564.840000
   6362   6361   6375     1   111.5100476 526.347200
   6362   6361   6383     1   107.9700462 569.024000
   6365   6366   6367     1   111.5100476 526.347200
   6365   6366   6372     1   110.1900474 564.840000
   6365   6362   6374     1   110.1900474 564.840000
   6366   6367   6371     1   107.9700462 569.024000
   6366   6367   6383     1   107.9700462 569.024000
   6366   6365   6373     1   110.1900474 564.840000
   6367   6366   6372     1   110.1900474 564.840000
   6371   6367   6383     1   108.2900466 608.353600
   6375   6361   6383     1   107.9700462 569.024000
   6384   6385   6388     1   111.5100476 526.347200
   6384   6385   6397     1   110.1900474 564.840000
   6384   6398   6404     1   110.1900474 564.840000
   6384   6406   6390     1   112.4800480 524.673600
   6385   6384   6398     1   111.5100476 526.347200
   6385   6384   6406     1   107.9700462 569.024000
   6385   6388   6389     1   111.5100476 526.347200
   6385   6388   6396     1   110.1900474 564.840000
   6388   6385   6397     1   110.1900474 564.840000
   6388   6389   6390     1   111.5100476 526.347200
   6388   6389   6395     1   110.1900474 564.840000
   6389   6388   6396     1   110.1900474 564.840000
   6389   6390   6394     1   107.9700462 569.024000
   6389   6390   6406     1   107.9700462 569.024000
   6390   6389   6395     1   110.1900474 564.840000
   6394   6390   6406     1   108.2900466 608.353600
   6398   6384   6406     1   107.9700462 569.024000
   6407   6408   6411     1   111.5100476 526.347200
   6407   6408   6420     1   110.1900474 564.840000
   6407   6421   6427     1   110.1900474 564.840000
   6407   6429   6413     1   112.4800480 524.673600
   6408   6411   6412     1   111.5100476 526.347200
   6408   6411   6419     1   110.1900474 564.840000
   6408   6407   6421     1   111.5100476 526.347200
   6408   6407   6429     1   107.9700462 569.024000
   6411   6412   6413     1   111.5100476 526.347200
   6411   6412   6418     1   110.1900474 564.840000
   6411   6408   6420     1   110.1900474 564.840000
   6412   6413   6417     1   107.9700462 569.024000
   6412   6413   6429     1   107.9700462 569.024000
   6412   6411   6419     1   110.1900474 564.840000
   6413   6412   6418     1   110.1900474 564.840000
   6417   6413   6429     1   108.2900466 608.353600
   6421   6407   6429     1   107.9700462 569.024000
   6430   6431   6434     1   111.5100476 526.347200
   6430   6431   6443     1   110.1900474 564.840000
   6430   6444   6450     1   110.1900474 564.840000
   6430   6452   6436     1   112.4800480 524.673600
   6431   6430   6444     1   111.5100476 526.347200
   6431   6430   6452     1   107.9700462 569.024000
   6431   6434   6435     1   111.5100476 526.347200
   6431   6434   6442     1   110.1900474 564.840000
   6434   6431   6443     1   110.1900474 564.840000
   6434   6435   6436     1   111.5100476 526.347200
   6434   6435   6441     1   110.1900474 564.840000
   6435   6434   6442     1   110.1900474 564.840000
   6435   6436   6440     1   107.9700462 569.024000
   6435   6436   6452     1   107.9700462 569.024000
   6436   6435   6441     1   110.1900474 564.840000
   6440   6436   6452     1   108.2900466 608.353600
   6444   6430   6452     1   107.9700462 569.024000
   6453   6454   6457     1   111.5100476 526.347200
   6453   6454   6466     1   110.1900474 564.840000
   6453   6467   6473     1   110.1900474 564.840000
   6453   6475   6459     1   112.4800480 524.673600
   6454   6457   6458     1   111.5100476 526.347200
   6454   6457   6465     1   110.1900474 564.840000
   6454   6453   6467     1   111.5100476 526.347200
   6454   6453   6475     1   107.9700462 569.024000
   6457   6458   6459     1   111.5100476 526.347200
   6457   6458   6464     1   110.1900474 564.840000
   6457   6454   6466     1   110.1900474 564.840000
   6458   6459   6463     1   107.9700462 569.024000
   6458   6459   6475     1   107.9700462 569.024000
   6458   6457   6465     1   110.1900474 564.840000
   6459   6458   6464     1   110.1900474 564.840000
   6463   6459   6475     1   108.2900466 608.353600
   6467   6453   6475     1   107.9700462 569.024000
   6476   6477   6480     1   111.5100476 526.347200
   6476   6477   6489     1   110.1900474 564.840000
   6476   6490   6496     1   110.1900474 564.840000
   6476   6498   6482     1   112.4800480 524.673600
   6477   6476   6490     1   111.5100476 526.347200
   6477   6476   6498     1   107.9700462 569.024000
   6477   6480   6481     1   111.5100476 526.347200
   6477   6480   6488     1   110.1900474 564.840000
   6480   6477   6489     1   110.1900474 564.840000
   6480   6481   6482     1   111.5100476 526.347200
   6480   6481   6487     1   110.1900474 564.840000
   6481   6480   6488     1   110.1900474 564.840000
   6481   6482   6486     1   107.9700462 569.024000
   6481   6482   6498     1   107.9700462 569.024000
   6482   6481   6487     1   110.1900474 564.840000
   6486   6482   6498     1   108.2900466 608.353600
   6490   6476   6498     1   107.9700462 569.024000
   6499   6500   6503     1   111.5100476 526.347200
   6499   6500   6512     1   110.1900474 564.840000
   6499   6513   6519     1   110.1900474 564.840000
   6499   6521   6505     1   112.4800480 524.673600
   6500   6503   6504     1   111.5100476 526.347200
   6500   6503   6511     1   110.1900474 564.840000
   6500   6499   6513     1   111.5100476 526.347200
   6500   6499   6521     1   107.9700462 569.024000
   6503   6504   6505     1   111.5100476 526.347200
   6503   6504   6510     1   110.1900474 564.840000
   6503   6500   6512     1   110.1900474 564.840000
   6504   6505   6509     1   107.9700462 569.024000
   6504   6505   6521     1   107.9700462 569.024000
   6504   6503   6511     1   110.1900474 564.840000
   6505   6504   6510     1   110.1900474 564.840000
   6509   6505   6521     1   108.2900466 608.353600
   6513   6499   6521     1   107.9700462 569.024000
   6522   6523   6526     1   111.5100476 526.347200
   6522   6523   6535     1   110.1900474 564.840000
   6522   6536   6542     1   110.1900474 564.840000
   6522   6544   6528     1   112.4800480 524.673600
   6523   6522   6536     1   111.5100476 526.347200
   6523   6522   6544     1   107.9700462 569.024000
   6523   6526   6527     1   111.5100476 526.347200
   6523   6526   6534     1   110.1900474 564.840000
   6526   6523   6535     1   110.1900474 564.840000
   6526   6527   6528     1   111.5100476 526.347200
   6526   6527   6533     1   110.1900474 564.840000
   6527   6526   6534     1   110.1900474 564.840000
   6527   6528   6532     1   107.9700462 569.024000
   6527   6528   6544     1   107.9700462 569.024000
   6528   6527   6533     1   110.1900474 564.840000
   6532   6528   6544     1   108.2900466 608.353600
   6536   6522   6544     1   107.9700462 569.024000
   6545   6546   6549     1   111.5100476 526.347200
   6545   6546   6558     1   110.1900474 564.840000
   6545   6559   6565     1   110.1900474 564.840000
   6545   6567   6551     1   112.4800480 524.673600
   6546   6549   6550     1   111.5100476 526.347200
   6546   6549   6557     1   110.1900474 564.840000
   6546   6545   6559     1   111.5100476 526.347200
   6546   6545   6567     1   107.9700462 569.024000
   6549   6550   6551     1   111.5100476 526.347200
   6549   6550   6556     1   110.1900474 564.840000
   6549   6546   6558     1   110.1900474 564.840000
   6550   6551   6555     1   107.9700462 569.024000
   6550   6551   6567     1   107.9700462 569.024000
   6550   6549   6557     1   110.1900474 564.840000
   6551   6550   6556     1   110.1900474 564.840000
   6555   6551   6567     1   108.2900466 608.353600
   6559   6545   6567     1   107.9700462 569.024000
   6568   6569   6572     1   111.5100476 526.347200
   6568   6569   6581     1   110.1900474 564.840000
   6568   6582   6588     1   110.1900474 564.840000
   6568   6590   6574     1   112.4800480 524.673600
   6569   6568   6582     1   111.5100476 526.347200
   6569   6568   6590     1   107.9700462 569.024000
   6569   6572   6573     1   111.5100476 526.347200
   6569   6572   6580     1   110.1900474 564.840000
   6572   6569   6581     1   110.1900474 564.840000
   6572   6573   6574     1   111.5100476 526.347200
   6572   6573   6579     1   110.1900474 564.840000
   6573   6572   6580     1   110.1900474 564.840000
   6573   6574   6578     1   107.9700462 569.024000
   6573   6574   6590     1   107.9700462 569.024000
   6574   6573   6579     1   110.1900474 564.840000
   6578   6574   6590     1   108.2900466 608.353600
   6582   6568   6590     1   107.9700462 569.024000
   6591   6592   6595     1   111.5100476 526.347200
   6591   6592   6604     1   110.1900474 564.840000
   6591   6605   6611     1   110.1900474 564.840000
   6591   6613   6597     1   112.4800480 524.673600
   6592   6595   6596     1   111.5100476 526.347200
   6592   6595   6603     1   110.1900474 564.840000
   6592   6591   6605     1   111.5100476 526.347200
   6592   6591   6613     1   107.9700462 569.024000
   6595   6596   6597     1   111.5100476 526.347200
   6595   6596   6602     1   110.1900474 564.840000
   6595   6592   6604     1   110.1900474 564.840000
   6596   6597   6601     1   107.9700462 569.024000
   6596   6597   6613     1   107.9700462 569.024000
   6596   6595   6603     1   110.1900474 564.840000
   6597   6596   6602     1   110.1900474 564.840000
   6601   6597   6613     1   108.2900466 608.353600
   6605   6591   6613     1   107.9700462 569.024000
   6614   6615   6618     1   111.5100476 526.347200
   6614   6615   6627     1   110.1900474 564.840000
   6614   6628   6634     1   110.1900474 564.840000
   6614   6636   6620     1   112.4800480 524.673600
   6615   6614   6628     1   111.5100476 526.347200
   6615   6614   6636     1   107.9700462 569.024000
   6615   6618   6619     1   111.5100476 526.347200
   6615   6618   6626     1   110.1900474 564.840000
   6618   6615   6627     1   110.1900474 564.840000
   6618   6619   6620     1   111.5100476 526.347200
   6618   6619   6625     1   110.1900474 564.840000
   6619   6618   6626     1   110.1900474 564.840000
   6619   6620   6624     1   107.9700462 569.024000
   6619   6620   6636     1   107.9700462 569.024000
   6620   6619   6625     1   110.1900474 564.840000
   6624   6620   6636     1   108.2900466 608.353600
   6628   6614   6636     1   107.9700462 569.024000
   6637   6638   6641     1   111.5100476 526.347200
   6637   6638   6650     1   110.1900474 564.840000
   6637   6651   6657     1   110.1900474 564.840000
   6637   6659   6643     1   112.4800480 524.673600
   6638   6641   6642     1   111.5100476 526.347200
   6638   6641   6649     1   110.1900474 564.840000
   6638   6637   6651     1   111.5100476 526.347200
   6638   6637   6659     1   107.9700462 569.024000
   6641   6642   6643     1   111.5100476 526.347200
   6641   6642   6648     1   110.1900474 564.840000
   6641   6638   6650     1   110.1900474 564.840000
   6642   6643   6647     1   107.9700462 569.024000
   6642   6643   6659     1   107.9700462 569.024000
   6642   6641   6649     1   110.1900474 564.840000
   6643   6642   6648     1   110.1900474 564.840000
   6647   6643   6659     1   108.2900466 608.353600
   6651   6637   6659     1   107.9700462 569.024000
   6660   6661   6664     1   111.5100476 526.347200
   6660   6661   6673     1   110.1900474 564.840000
   6660   6674   6680     1   110.1900474 564.840000
   6660   6682   6666     1   112.4800480 524.673600
   6661   6660   6674     1   111.5100476 526.347200
   6661   6660   6682     1   107.9700462 569.024000
   6661   6664   6665     1   111.5100476 526.347200
   6661   6664   6672     1   110.1900474 564.840000
   6664   6661   6673     1   110.1900474 564.840000
   6664   6665   6666     1   111.5100476 526.347200
   6664   6665   6671     1   110.1900474 564.840000
   6665   6664   6672     1   110.1900474 564.840000
   6665   6666   6670     1   107.9700462 569.024000
   6665   6666   6682     1   107.9700462 569.024000
   6666   6665   6671     1   110.1900474 564.840000
   6670   6666   6682     1   108.2900466 608.353600
   6674   6660   6682     1   107.9700462 569.024000
   6683   6684   6687     1   111.5100476 526.347200
   6683   6684   6696     1   110.1900474 564.840000
   6683   6697   6703     1   110.1900474 564.840000
   6683   6705   6689     1   112.4800480 524.673600
   6684   6687   6688     1   111.5100476 526.347200
   6684   6687   6695     1   110.1900474 564.840000
   6684   6683   6697     1   111.5100476 526.347200
   6684   6683   6705     1   107.9700462 569.024000
   6687   6688   6689     1   111.5100476 526.347200
   6687   6688   6694     1   110.1900474 564.840000
   6687   6684   6696     1   110.1900474 564.840000
   6688   6689   6693     1   107.9700462 569.024000
   6688   6689   6705     1   107.9700462 569.024000
   6688   6687   6695     1   110.1900474 564.840000
   6689   6688   6694     1   110.1900474 564.840000
   6693   6689   6705     1   108.2900466 608.353600
   6697   6683   6705     1   107.9700462 569.024000
   6706   6707   6710     1   111.5100476 526.347200
   6706   6707   6719     1   110.1900474 564.840000
   6706   6720   6726     1   110.1900474 564.840000
   6706   6728   6712     1   112.4800480 524.673600
   6707   6706   6720     1   111.5100476 526.347200
   6707   6706   6728     1   107.9700462 569.024000
   6707   6710   6711     1   111.5100476 526.347200
   6707   6710   6718     1   110.1900474 564.840000
   6710   6707   6719     1   110.1900474 564.840000
   6710   6711   6712     1   111.5100476 526.347200
   6710   6711   6717     1   110.1900474 564.840000
   6711   6710   6718     1   110.1900474 564.840000
   6711   6712   6716     1   107.9700462 569.024000
   6711   6712   6728     1   107.9700462 569.024000
   6712   6711   6717     1   110.1900474 564.840000
   6716   6712   6728     1   108.2900466 608.353600
   6720   6706   6728     1   107.9700462 569.024000
   6729   6730   6733     1   111.5100476 526.347200
   6729   6730   6742     1   110.1900474 564.840000
   6729   6743   6749     1   110.1900474 564.840000
   6729   6751   6735     1   112.4800480 524.673600
   6730   6733   6734     1   111.5100476 526.347200
   6730   6733   6741     1   110.1900474 564.840000
   6730   6729   6743     1   111.5100476 526.347200
   6730   6729   6751     1   107.9700462 569.024000
   6733   6734   6735     1   111.5100476 526.347200
   6733   6734   6740     1   110.1900474 564.840000
   6733   6730   6742     1   110.1900474 564.840000
   6734   6735   6739     1   107.9700462 569.024000
   6734   6735   6751     1   107.9700462 569.024000
   6734   6733   6741     1   110.1900474 564.840000
   6735   6734   6740     1   110.1900474 564.840000
   6739   6735   6751     1   108.2900466 608.353600
   6743   6729   6751     1   107.9700462 569.024000
   6752   6753   6756     1   111.5100476 526.347200
   6752   6753   6765     1   110.1900474 564.840000
   6752   6766   6772     1   110.1900474 564.840000
   6752   6774   6758     1   112.4800480 524.673600
   6753   6752   6766     1   111.5100476 526.347200
   6753   6752   6774     1   107.9700462 569.024000
   6753   6756   6757     1   111.5100476 526.347200
   6753   6756   6764     1   110.1900474 564.840000
   6756   6753   6765     1   110.1900474 564.840000
   6756   6757   6758     1   111.5100476 526.347200
   6756   6757   6763     1   110.1900474 564.840000
   6757   6756   6764     1   110.1900474 564.840000
   6757   6758   6762     1   107.9700462 569.024000
   6757   6758   6774     1   107.9700462 569.024000
   6758   6757   6763     1   110.1900474 564.840000
   6762   6758   6774     1   108.2900466 608.353600
   6766   6752   6774     1   107.9700462 569.024000
   6775   6776   6779     1   111.5100476 526.347200
   6775   6776   6788     1   110.1900474 564.840000
   6775   6789   6795     1   110.1900474 564.840000
   6775   6797   6781     1   112.4800480 524.673600
   6776   6779   6780     1   111.5100476 526.347200
   6776   6779   6787     1   110.1900474 564.840000
   6776   6775   6789     1   111.5100476 526.347200
   6776   6775   6797     1   107.9700462 569.024000
   6779   6780   6781     1   111.5100476 526.347200
   6779   6780   6786     1   110.1900474 564.840000
   6779   6776   6788     1   110.1900474 564.840000
   6780   6781   6785     1   107.9700462 569.024000
   6780   6781   6797     1   107.9700462 569.024000
   6780   6779   6787     1   110.1900474 564.840000
   6781   6780   6786     1   110.1900474 564.840000
   6785   6781   6797     1   108.2900466 608.353600
   6789   6775   6797     1   107.9700462 569.024000
   6798   6799   6802     1   111.5100476 526.347200
   6798   6799   6811     1   110.1900474 564.840000
   6798   6812   6818     1   110.1900474 564.840000
   6798   6820   6804     1   112.4800480 524.673600
   6799   6798   6812     1   111.5100476 526.347200
   6799   6798   6820     1   107.9700462 569.024000
   6799   6802   6803     1   111.5100476 526.347200
   6799   6802   6810     1   110.1900474 564.840000
   6802   6799   6811     1   110.1900474 564.840000
   6802   6803   6804     1   111.5100476 526.347200
   6802   6803   6809     1   110.1900474 564.840000
   6803   6802   6810     1   110.1900474 564.840000
   6803   6804   6808     1   107.9700462 569.024000
   6803   6804   6820     1   107.9700462 569.024000
   6804   6803   6809     1   110.1900474 564.840000
   6808   6804   6820     1   108.2900466 608.353600
   6812   6798   6820     1   107.9700462 569.024000
   6821   6822   6825     1   111.5100476 526.347200
   6821   6822   6834     1   110.1900474 564.840000
   6821   6835   6841     1   110.1900474 564.840000
   6821   6843   6827     1   112.4800480 524.673600
   6822   6825   6826     1   111.5100476 526.347200
   6822   6825   6833     1   110.1900474 564.840000
   6822   6821   6835     1   111.5100476 526.347200
   6822   6821   6843     1   107.9700462 569.024000
   6825   6826   6827     1   111.5100476 526.347200
   6825   6826   6832     1   110.1900474 564.840000
   6825   6822   6834     1   110.1900474 564.840000
   6826   6827   6831     1   107.9700462 569.024000
   6826   6827   6843     1   107.9700462 569.024000
   6826   6825   6833     1   110.1900474 564.840000
   6827   6826   6832     1   110.1900474 564.840000
   6831   6827   6843     1   108.2900466 608.353600
   6835   6821   6843     1   107.9700462 569.024000
   6844   6845   6848     1   111.5100476 526.347200
   6844   6845   6857     1   110.1900474 564.840000
   6844   6858   6864     1   110.1900474 564.840000
   6844   6866   6850     1   112.4800480 524.673600
   6845   6844   6858     1   111.5100476 526.347200
   6845   6844   6866     1   107.9700462 569.024000
   6845   6848   6849     1   111.5100476 526.347200
   6845   6848   6856     1   110.1900474 564.840000
   6848   6845   6857     1   110.1900474 564.840000
   6848   6849   6850     1   111.5100476 526.347200
   6848   6849   6855     1   110.1900474 564.840000
   6849   6848   6856     1   110.1900474 564.840000
   6849   6850   6854     1   107.9700462 569.024000
   6849   6850   6866     1   107.9700462 569.024000
   6850   6849   6855     1   110.1900474 564.840000
   6854   6850   6866     1   108.2900466 608.353600
   6858   6844   6866     1   107.9700462 569.024000
   6867   6868   6871     1   111.5100476 526.347200
   6867   6868   6880     1   110.1900474 564.840000
   6867   6881   6887     1   110.1900474 564.840000
   6867   6889   6873     1   112.4800480 524.673600
   6868   6871   6872     1   111.5100476 526.347200
   6868   6871   6879     1   110.1900474 564.840000
   6868   6867   6881     1   111.5100476 526.347200
   6868   6867   6889     1   107.9700462 569.024000
   6871   6872   6873     1   111.5100476 526.347200
   6871   6872   6878     1   110.1900474 564.840000
   6871   6868   6880     1   110.1900474 564.840000
   6872   6873   6877     1   107.9700462 569.024000
   6872   6873   6889     1   107.9700462 569.024000
   6872   6871   6879     1   110.1900474 564.840000
   6873   6872   6878     1   110.1900474 564.840000
   6877   6873   6889     1   108.2900466 608.353600
   6881   6867   6889     1   107.9700462 569.024000
   6890   6891   6894     1   111.5100476 526.347200
   6890   6891   6903     1   110.1900474 564.840000
   6890   6904   6910     1   110.1900474 564.840000
   6890   6912   6896     1   112.4800480 524.673600
   6891   6890   6904     1   111.5100476 526.347200
   6891   6890   6912     1   107.9700462 569.024000
   6891   6894   6895     1   111.5100476 526.347200
   6891   6894   6902     1   110.1900474 564.840000
   6894   6891   6903     1   110.1900474 564.840000
   6894   6895   6896     1   111.5100476 526.347200
   6894   6895   6901     1   110.1900474 564.840000
   6895   6894   6902     1   110.1900474 564.840000
   6895   6896   6900     1   107.9700462 569.024000
   6895   6896   6912     1   107.9700462 569.024000
   6896   6895   6901     1   110.1900474 564.840000
   6900   6896   6912     1   108.2900466 608.353600
   6904   6890   6912     1   107.9700462 569.024000
   6913   6914   6917     1   111.5100476 526.347200
   6913   6914   6926     1   110.1900474 564.840000
   6913   6927   6933     1   110.1900474 564.840000
   6913   6935   6919     1   112.4800480 524.673600
   6914   6917   6918     1   111.5100476 526.347200
   6914   6917   6925     1   110.1900474 564.840000
   6914   6913   6927     1   111.5100476 526.347200
   6914   6913   6935     1   107.9700462 569.024000
   6917   6918   6919     1   111.5100476 526.347200
   6917   6918   6924     1   110.1900474 564.840000
   6917   6914   6926     1   110.1900474 564.840000
   6918   6919   6923     1   107.9700462 569.024000
   6918   6919   6935     1   107.9700462 569.024000
   6918   6917   6925     1   110.1900474 564.840000
   6919   6918   6924     1   110.1900474 564.840000
   6923   6919   6935     1   108.2900466 608.353600
   6927   6913   6935     1   107.9700462 569.024000
   6936   6937   6940     1   111.5100476 526.347200
   6936   6937   6949     1   110.1900474 564.840000
   6936   6950   6956     1   110.1900474 564.840000
   6936   6958   6942     1   112.4800480 524.673600
   6937   6936   6950     1   111.5100476 526.347200
   6937   6936   6958     1   107.9700462 569.024000
   6937   6940   6941     1   111.5100476 526.347200
   6937   6940   6948     1   110.1900474 564.840000
   6940   6937   6949     1   110.1900474 564.840000
   6940   6941   6942     1   111.5100476 526.347200
   6940   6941   6947     1   110.1900474 564.840000
   6941   6940   6948     1   110.1900474 564.840000
   6941   6942   6946     1   107.9700462 569.024000
   6941   6942   6958     1   107.9700462 569.024000
   6942   6941   6947     1   110.1900474 564.840000
   6946   6942   6958     1   108.2900466 608.353600
   6950   6936   6958     1   107.9700462 569.024000
   6959   6960   6963     1   111.5100476 526.347200
   6959   6960   6972     1   110.1900474 564.840000
   6959   6973   6979     1   110.1900474 564.840000
   6959   6981   6965     1   112.4800480 524.673600
   6960   6963   6964     1   111.5100476 526.347200
   6960   6963   6971     1   110.1900474 564.840000
   6960   6959   6973     1   111.5100476 526.347200
   6960   6959   6981     1   107.9700462 569.024000
   6963   6964   6965     1   111.5100476 526.347200
   6963   6964   6970     1   110.1900474 564.840000
   6963   6960   6972     1   110.1900474 564.840000
   6964   6965   6969     1   107.9700462 569.024000
   6964   6965   6981     1   107.9700462 569.024000
   6964   6963   6971     1   110.1900474 564.840000
   6965   6964   6970     1   110.1900474 564.840000
   6969   6965   6981     1   108.2900466 608.353600
   6973   6959   6981     1   107.9700462 569.024000
   6982   6983   6986     1   111.5100476 526.347200
   6982   6983   6995     1   110.1900474 564.840000
   6982   6996   7002     1   110.1900474 564.840000
   6982   7004   6988     1   112.4800480 524.673600
   6983   6982   6996     1   111.5100476 526.347200
   6983   6982   7004     1   107.9700462 569.024000
   6983   6986   6987     1   111.5100476 526.347200
   6983   6986   6994     1   110.1900474 564.840000
   6986   6983   6995     1   110.1900474 564.840000
   6986   6987   6988     1   111.5100476 526.347200
   6986   6987   6993     1   110.1900474 564.840000
   6987   6986   6994     1   110.1900474 564.840000
   6987   6988   6992     1   107.9700462 569.024000
   6987   6988   7004     1   107.9700462 569.024000
   6988   6987   6993     1   110.1900474 564.840000
   6992   6988   7004     1   108.2900466 608.353600
   6996   6982   7004     1   107.9700462 569.024000
   7005   7006   7009     1   111.5100476 526.347200
   7005   7006   7018     1   110.1900474 564.840000
   7005   7019   7025     1   110.1900474 564.840000
   7005   7027   7011     1   112.4800480 524.673600
   7006   7009   7010     1   111.5100476 526.347200
   7006   7009   7017     1   110.1900474 564.840000
   7006   7005   7019     1   111.5100476 526.347200
   7006   7005   7027     1   107.9700462 569.024000
   7009   7010   7011     1   111.5100476 526.347200
   7009   7010   7016     1   110.1900474 564.840000
   7009   7006   7018     1   110.1900474 564.840000
   7010   7011   7015     1   107.9700462 569.024000
   7010   7011   7027     1   107.9700462 569.024000
   7010   7009   7017     1   110.1900474 564.840000
   7011   7010   7016     1   110.1900474 564.840000
   7015   7011   7027     1   108.2900466 608.353600
   7019   7005   7027     1   107.9700462 569.024000
   7028   7029   7032     1   111.5100476 526.347200
   7028   7029   7041     1   110.1900474 564.840000
   7028   7042   7048     1   110.1900474 564.840000
   7028   7050   7034     1   112.4800480 524.673600
   7029   7028   7042     1   111.5100476 526.347200
   7029   7028   7050     1   107.9700462 569.024000
   7029   7032   7033     1   111.5100476 526.347200
   7029   7032   7040     1   110.1900474 564.840000
   7032   7029   7041     1   110.1900474 564.840000
   7032   7033   7034     1   111.5100476 526.347200
   7032   7033   7039     1   110.1900474 564.840000
   7033   7032   7040     1   110.1900474 564.840000
   7033   7034   7038     1   107.9700462 569.024000
   7033   7034   7050     1   107.9700462 569.024000
   7034   7033   7039     1   110.1900474 564.840000
   7038   7034   7050     1   108.2900466 608.353600
   7042   7028   7050     1   107.9700462 569.024000
   7051   7052   7055     1   111.5100476 526.347200
   7051   7052   7064     1   110.1900474 564.840000
   7051   7065   7071     1   110.1900474 564.840000
   7051   7073   7057     1   112.4800480 524.673600
   7052   7055   7056     1   111.5100476 526.347200
   7052   7055   7063     1   110.1900474 564.840000
   7052   7051   7065     1   111.5100476 526.347200
   7052   7051   7073     1   107.9700462 569.024000
   7055   7056   7057     1   111.5100476 526.347200
   7055   7056   7062     1   110.1900474 564.840000
   7055   7052   7064     1   110.1900474 564.840000
   7056   7057   7061     1   107.9700462 569.024000
   7056   7057   7073     1   107.9700462 569.024000
   7056   7055   7063     1   110.1900474 564.840000
   7057   7056   7062     1   110.1900474 564.840000
   7061   7057   7073     1   108.2900466 608.353600
   7065   7051   7073     1   107.9700462 569.024000
   7074   7075   7078     1   111.5100476 526.347200
   7074   7075   7087     1   110.1900474 564.840000
   7074   7088   7094     1   110.1900474 564.840000
   7074   7096   7080     1   112.4800480 524.673600
   7075   7074   7088     1   111.5100476 526.347200
   7075   7074   7096     1   107.9700462 569.024000
   7075   7078   7079     1   111.5100476 526.347200
   7075   7078   7086     1   110.1900474 564.840000
   7078   7075   7087     1   110.1900474 564.840000
   7078   7079   7080     1   111.5100476 526.347200
   7078   7079   7085     1   110.1900474 564.840000
   7079   7078   7086     1   110.1900474 564.840000
   7079   7080   7084     1   107.9700462 569.024000
   7079   7080   7096     1   107.9700462 569.024000
   7080   7079   7085     1   110.1900474 564.840000
   7084   7080   7096     1   108.2900466 608.353600
   7088   7074   7096     1   107.9700462 569.024000
   7097   7098   7101     1   111.5100476 526.347200
   7097   7098   7110     1   110.1900474 564.840000
   7097   7111   7117     1   110.1900474 564.840000
   7097   7119   7103     1   112.4800480 524.673600
   7098   7101   7102     1   111.5100476 526.347200
   7098   7101   7109     1   110.1900474 564.840000
   7098   7097   7111     1   111.5100476 526.347200
   7098   7097   7119     1   107.9700462 569.024000
   7101   7102   7103     1   111.5100476 526.347200
   7101   7102   7108     1   110.1900474 564.840000
   7101   7098   7110     1   110.1900474 564.840000
   7102   7103   7107     1   107.9700462 569.024000
   7102   7103   7119     1   107.9700462 569.024000
   7102   7101   7109     1   110.1900474 564.840000
   7103   7102   7108     1   110.1900474 564.840000
   7107   7103   7119     1   108.2900466 608.353600
   7111   7097   7119     1   107.9700462 569.024000
   7120   7121   7124     1   111.5100476 526.347200
   7120   7121   7133     1   110.1900474 564.840000
   7120   7134   7140     1   110.1900474 564.840000
   7120   7142   7126     1   112.4800480 524.673600
   7121   7120   7134     1   111.5100476 526.347200
   7121   7120   7142     1   107.9700462 569.024000
   7121   7124   7125     1   111.5100476 526.347200
   7121   7124   7132     1   110.1900474 564.840000
   7124   7121   7133     1   110.1900474 564.840000
   7124   7125   7126     1   111.5100476 526.347200
   7124   7125   7131     1   110.1900474 564.840000
   7125   7124   7132     1   110.1900474 564.840000
   7125   7126   7130     1   107.9700462 569.024000
   7125   7126   7142     1   107.9700462 569.024000
   7126   7125   7131     1   110.1900474 564.840000
   7130   7126   7142     1   108.2900466 608.353600
   7134   7120   7142     1   107.9700462 569.024000
   7143   7144   7147     1   111.5100476 526.347200
   7143   7144   7156     1   110.1900474 564.840000
   7143   7157   7163     1   110.1900474 564.840000
   7143   7165   7149     1   112.4800480 524.673600
   7144   7147   7148     1   111.5100476 526.347200
   7144   7147   7155     1   110.1900474 564.840000
   7144   7143   7157     1   111.5100476 526.347200
   7144   7143   7165     1   107.9700462 569.024000
   7147   7148   7149     1   111.5100476 526.347200
   7147   7148   7154     1   110.1900474 564.840000
   7147   7144   7156     1   110.1900474 564.840000
   7148   7149   7153     1   107.9700462 569.024000
   7148   7149   7165     1   107.9700462 569.024000
   7148   7147   7155     1   110.1900474 564.840000
   7149   7148   7154     1   110.1900474 564.840000
   7153   7149   7165     1   108.2900466 608.353600
   7157   7143   7165     1   107.9700462 569.024000
   7166   7167   7170     1   111.5100476 526.347200
   7166   7167   7179     1   110.1900474 564.840000
   7166   7180   7186     1   110.1900474 564.840000
   7166   7188   7172     1   112.4800480 524.673600
   7167   7166   7180     1   111.5100476 526.347200
   7167   7166   7188     1   107.9700462 569.024000
   7167   7170   7171     1   111.5100476 526.347200
   7167   7170   7178     1   110.1900474 564.840000
   7170   7167   7179     1   110.1900474 564.840000
   7170   7171   7172     1   111.5100476 526.347200
   7170   7171   7177     1   110.1900474 564.840000
   7171   7170   7178     1   110.1900474 564.840000
   7171   7172   7176     1   107.9700462 569.024000
   7171   7172   7188     1   107.9700462 569.024000
   7172   7171   7177     1   110.1900474 564.840000
   7176   7172   7188     1   108.2900466 608.353600
   7180   7166   7188     1   107.9700462 569.024000
   7189   7190   7193     1   111.5100476 526.347200
   7189   7190   7202     1   110.1900474 564.840000
   7189   7203   7209     1   110.1900474 564.840000
   7189   7211   7195     1   112.4800480 524.673600
   7190   7193   7194     1   111.5100476 526.347200
   7190   7193   7201     1   110.1900474 564.840000
   7190   7189   7203     1   111.5100476 526.347200
   7190   7189   7211     1   107.9700462 569.024000
   7193   7194   7195     1   111.5100476 526.347200
   7193   7194   7200     1   110.1900474 564.840000
   7193   7190   7202     1   110.1900474 564.840000
   7194   7195   7199     1   107.9700462 569.024000
   7194   7195   7211     1   107.9700462 569.024000
   7194   7193   7201     1   110.1900474 564.840000
   7195   7194   7200     1   110.1900474 564.840000
   7199   7195   7211     1   108.2900466 608.353600
   7203   7189   7211     1   107.9700462 569.024000
   7212   7213   7216     1   111.5100476 526.347200
   7212   7213   7225     1   110.1900474 564.840000
   7212   7226   7232     1   110.1900474 564.840000
   7212   7234   7218     1   112.4800480 524.673600
   7213   7212   7226     1   111.5100476 526.347200
   7213   7212   7234     1   107.9700462 569.024000
   7213   7216   7217     1   111.5100476 526.347200
   7213   7216   7224     1   110.1900474 564.840000
   7216   7213   7225     1   110.1900474 564.840000
   7216   7217   7218     1   111.5100476 526.347200
   7216   7217   7223     1   110.1900474 564.840000
   7217   7216   7224     1   110.1900474 564.840000
   7217   7218   7222     1   107.9700462 569.024000
   7217   7218   7234     1   107.9700462 569.024000
   7218   7217   7223     1   110.1900474 564.840000
   7222   7218   7234     1   108.2900466 608.353600
   7226   7212   7234     1   107.9700462 569.024000
   7235   7236   7239     1   111.5100476 526.347200
   7235   7236   7248     1   110.1900474 564.840000
   7235   7249   7255     1   110.1900474 564.840000
   7235   7257   7241     1   112.4800480 524.673600
   7236   7239   7240     1   111.5100476 526.347200
   7236   7239   7247     1   110.1900474 564.840000
   7236   7235   7249     1   111.5100476 526.347200
   7236   7235   7257     1   107.9700462 569.024000
   7239   7240   7241     1   111.5100476 526.347200
   7239   7240   7246     1   110.1900474 564.840000
   7239   7236   7248     1   110.1900474 564.840000
   7240   7241   7245     1   107.9700462 569.024000
   7240   7241   7257     1   107.9700462 569.024000
   7240   7239   7247     1   110.1900474 564.840000
   7241   7240   7246     1   110.1900474 564.840000
   7245   7241   7257     1   108.2900466 608.353600
   7249   7235   7257     1   107.9700462 569.024000
   7258   7259   7262     1   111.5100476 526.347200
   7258   7259   7271     1   110.1900474 564.840000
   7258   7272   7278     1   110.1900474 564.840000
   7258   7280   7264     1   112.4800480 524.673600
   7259   7258   7272     1   111.5100476 526.347200
   7259   7258   7280     1   107.9700462 569.024000
   7259   7262   7263     1   111.5100476 526.347200
   7259   7262   7270     1   110.1900474 564.840000
   7262   7259   7271     1   110.1900474 564.840000
   7262   7263   7264     1   111.5100476 526.347200
   7262   7263   7269     1   110.1900474 564.840000
   7263   7262   7270     1   110.1900474 564.840000
   7263   7264   7268     1   107.9700462 569.024000
   7263   7264   7280     1   107.9700462 569.024000
   7264   7263   7269     1   110.1900474 564.840000
   7268   7264   7280     1   108.2900466 608.353600
   7272   7258   7280     1   107.9700462 569.024000
   7281   7282   7285     1   111.5100476 526.347200
   7281   7282   7294     1   110.1900474 564.840000
   7281   7295   7301     1   110.1900474 564.840000
   7281   7303   7287     1   112.4800480 524.673600
   7282   7285   7286     1   111.5100476 526.347200
   7282   7285   7293     1   110.1900474 564.840000
   7282   7281   7295     1   111.5100476 526.347200
   7282   7281   7303     1   107.9700462 569.024000
   7285   7286   7287     1   111.5100476 526.347200
   7285   7286   7292     1   110.1900474 564.840000
   7285   7282   7294     1   110.1900474 564.840000
   7286   7287   7291     1   107.9700462 569.024000
   7286   7287   7303     1   107.9700462 569.024000
   7286   7285   7293     1   110.1900474 564.840000
   7287   7286   7292     1   110.1900474 564.840000
   7291   7287   7303     1   108.2900466 608.353600
   7295   7281   7303     1   107.9700462 569.024000
   7304   7305   7308     1   111.5100476 526.347200
   7304   7305   7317     1   110.1900474 564.840000
   7304   7318   7324     1   110.1900474 564.840000
   7304   7326   7310     1   112.4800480 524.673600
   7305   7304   7318     1   111.5100476 526.347200
   7305   7304   7326     1   107.9700462 569.024000
   7305   7308   7309     1   111.5100476 526.347200
   7305   7308   7316     1   110.1900474 564.840000
   7308   7305   7317     1   110.1900474 564.840000
   7308   7309   7310     1   111.5100476 526.347200
   7308   7309   7315     1   110.1900474 564.840000
   7309   7308   7316     1   110.1900474 564.840000
   7309   7310   7314     1   107.9700462 569.024000
   7309   7310   7326     1   107.9700462 569.024000
   7310   7309   7315     1   110.1900474 564.840000
   7314   7310   7326     1   108.2900466 608.353600
   7318   7304   7326     1   107.9700462 569.024000
   7327   7328   7331     1   111.5100476 526.347200
   7327   7328   7340     1   110.1900474 564.840000
   7327   7341   7347     1   110.1900474 564.840000
   7327   7349   7333     1   112.4800480 524.673600
   7328   7331   7332     1   111.5100476 526.347200
   7328   7331   7339     1   110.1900474 564.840000
   7328   7327   7341     1   111.5100476 526.347200
   7328   7327   7349     1   107.9700462 569.024000
   7331   7332   7333     1   111.5100476 526.347200
   7331   7332   7338     1   110.1900474 564.840000
   7331   7328   7340     1   110.1900474 564.840000
   7332   7333   7337     1   107.9700462 569.024000
   7332   7333   7349     1   107.9700462 569.024000
   7332   7331   7339     1   110.1900474 564.840000
   7333   7332   7338     1   110.1900474 564.840000
   7337   7333   7349     1   108.2900466 608.353600
   7341   7327   7349     1   107.9700462 569.024000
   7350   7351   7354     1   111.5100476 526.347200
   7350   7351   7363     1   110.1900474 564.840000
   7350   7364   7370     1   110.1900474 564.840000
   7350   7372   7356     1   112.4800480 524.673600
   7351   7350   7364     1   111.5100476 526.347200
   7351   7350   7372     1   107.9700462 569.024000
   7351   7354   7355     1   111.5100476 526.347200
   7351   7354   7362     1   110.1900474 564.840000
   7354   7351   7363     1   110.1900474 564.840000
   7354   7355   7356     1   111.5100476 526.347200
   7354   7355   7361     1   110.1900474 564.840000
   7355   7354   7362     1   110.1900474 564.840000
   7355   7356   7360     1   107.9700462 569.024000
   7355   7356   7372     1   107.9700462 569.024000
   7356   7355   7361     1   110.1900474 564.840000
   7360   7356   7372     1   108.2900466 608.353600
   7364   7350   7372     1   107.9700462 569.024000
   7373   7374   7377     1   111.5100476 526.347200
   7373   7374   7386     1   110.1900474 564.840000
   7373   7387   7393     1   110.1900474 564.840000
   7373   7395   7379     1   112.4800480 524.673600
   7374   7377   7378     1   111.5100476 526.347200
   7374   7377   7385     1   110.1900474 564.840000
   7374   7373   7387     1   111.5100476 526.347200
   7374   7373   7395     1   107.9700462 569.024000
   7377   7378   7379     1   111.5100476 526.347200
   7377   7378   7384     1   110.1900474 564.840000
   7377   7374   7386     1   110.1900474 564.840000
   7378   7379   7383     1   107.9700462 569.024000
   7378   7379   7395     1   107.9700462 569.024000
   7378   7377   7385     1   110.1900474 564.840000
   7379   7378   7384     1   110.1900474 564.840000
   7383   7379   7395     1   108.2900466 608.353600
   7387   7373   7395     1   107.9700462 569.024000
   7396   7397   7400     1   111.5100476 526.347200
   7396   7397   7409     1   110.1900474 564.840000
   7396   7410   7416     1   110.1900474 564.840000
   7396   7418   7402     1   112.4800480 524.673600
   7397   7396   7410     1   111.5100476 526.347200
   7397   7396   7418     1   107.9700462 569.024000
   7397   7400   7401     1   111.5100476 526.347200
   7397   7400   7408     1   110.1900474 564.840000
   7400   7397   7409     1   110.1900474 564.840000
   7400   7401   7402     1   111.5100476 526.347200
   7400   7401   7407     1   110.1900474 564.840000
   7401   7400   7408     1   110.1900474 564.840000
   7401   7402   7406     1   107.9700462 569.024000
   7401   7402   7418     1   107.9700462 569.024000
   7402   7401   7407     1   110.1900474 564.840000
   7406   7402   7418     1   108.2900466 608.353600
   7410   7396   7418     1   107.9700462 569.024000
   7419   7420   7423     1   111.5100476 526.347200
   7419   7420   7432     1   110.1900474 564.840000
   7419   7433   7439     1   110.1900474 564.840000
   7419   7441   7425     1   112.4800480 524.673600
   7420   7423   7424     1   111.5100476 526.347200
   7420   7423   7431     1   110.1900474 564.840000
   7420   7419   7433     1   111.5100476 526.347200
   7420   7419   7441     1   107.9700462 569.024000
   7423   7424   7425     1   111.5100476 526.347200
   7423   7424   7430     1   110.1900474 564.840000
   7423   7420   7432     1   110.1900474 564.840000
   7424   7425   7429     1   107.9700462 569.024000
   7424   7425   7441     1   107.9700462 569.024000
   7424   7423   7431     1   110.1900474 564.840000
   7425   7424   7430     1   110.1900474 564.840000
   7429   7425   7441     1   108.2900466 608.353600
   7433   7419   7441     1   107.9700462 569.024000
   7442   7443   7446     1   111.5100476 526.347200
   7442   7443   7455     1   110.1900474 564.840000
   7442   7456   7462     1   110.1900474 564.840000
   7442   7464   7448     1   112.4800480 524.673600
   7443   7442   7456     1   111.5100476 526.347200
   7443   7442   7464     1   107.9700462 569.024000
   7443   7446   7447     1   111.5100476 526.347200
   7443   7446   7454     1   110.1900474 564.840000
   7446   7443   7455     1   110.1900474 564.840000
   7446   7447   7448     1   111.5100476 526.347200
   7446   7447   7453     1   110.1900474 564.840000
   7447   7446   7454     1   110.1900474 564.840000
   7447   7448   7452     1   107.9700462 569.024000
   7447   7448   7464     1   107.9700462 569.024000
   7448   7447   7453     1   110.1900474 564.840000
   7452   7448   7464     1   108.2900466 608.353600
   7456   7442   7464     1   107.9700462 569.024000
   7465   7466   7469     1   111.5100476 526.347200
   7465   7466   7478     1   110.1900474 564.840000
   7465   7479   7485     1   110.1900474 564.840000
   7465   7487   7471     1   112.4800480 524.673600
   7466   7469   7470     1   111.5100476 526.347200
   7466   7469   7477     1   110.1900474 564.840000
   7466   7465   7479     1   111.5100476 526.347200
   7466   7465   7487     1   107.9700462 569.024000
   7469   7470   7471     1   111.5100476 526.347200
   7469   7470   7476     1   110.1900474 564.840000
   7469   7466   7478     1   110.1900474 564.840000
   7470   7471   7475     1   107.9700462 569.024000
   7470   7471   7487     1   107.9700462 569.024000
   7470   7469   7477     1   110.1900474 564.840000
   7471   7470   7476     1   110.1900474 564.840000
   7475   7471   7487     1   108.2900466 608.353600
   7479   7465   7487     1   107.9700462 569.024000
   7488   7489   7492     1   111.5100476 526.347200
   7488   7489   7501     1   110.1900474 564.840000
   7488   7502   7508     1   110.1900474 564.840000
   7488   7510   7494     1   112.4800480 524.673600
   7489   7488   7502     1   111.5100476 526.347200
   7489   7488   7510     1   107.9700462 569.024000
   7489   7492   7493     1   111.5100476 526.347200
   7489   7492   7500     1   110.1900474 564.840000
   7492   7489   7501     1   110.1900474 564.840000
   7492   7493   7494     1   111.5100476 526.347200
   7492   7493   7499     1   110.1900474 564.840000
   7493   7492   7500     1   110.1900474 564.840000
   7493   7494   7498     1   107.9700462 569.024000
   7493   7494   7510     1   107.9700462 569.024000
   7494   7493   7499     1   110.1900474 564.840000
   7498   7494   7510     1   108.2900466 608.353600
   7502   7488   7510     1   107.9700462 569.024000
   7511   7512   7515     1   111.5100476 526.347200
   7511   7512   7524     1   110.1900474 564.840000
   7511   7525   7531     1   110.1900474 564.840000
   7511   7533   7517     1   112.4800480 524.673600
   7512   7515   7516     1   111.5100476 526.347200
   7512   7515   7523     1   110.1900474 564.840000
   7512   7511   7525     1   111.5100476 526.347200
   7512   7511   7533     1   107.9700462 569.024000
   7515   7516   7517     1   111.5100476 526.347200
   7515   7516   7522     1   110.1900474 564.840000
   7515   7512   7524     1   110.1900474 564.840000
   7516   7517   7521     1   107.9700462 569.024000
   7516   7517   7533     1   107.9700462 569.024000
   7516   7515   7523     1   110.1900474 564.840000
   7517   7516   7522     1   110.1900474 564.840000
   7521   7517   7533     1   108.2900466 608.353600
   7525   7511   7533     1   107.9700462 569.024000
   7534   7535   7538     1   111.5100476 526.347200
   7534   7535   7547     1   110.1900474 564.840000
   7534   7548   7554     1   110.1900474 564.840000
   7534   7556   7540     1   112.4800480 524.673600
   7535   7534   7548     1   111.5100476 526.347200
   7535   7534   7556     1   107.9700462 569.024000
   7535   7538   7539     1   111.5100476 526.347200
   7535   7538   7546     1   110.1900474 564.840000
   7538   7535   7547     1   110.1900474 564.840000
   7538   7539   7540     1   111.5100476 526.347200
   7538   7539   7545     1   110.1900474 564.840000
   7539   7538   7546     1   110.1900474 564.840000
   7539   7540   7544     1   107.9700462 569.024000
   7539   7540   7556     1   107.9700462 569.024000
   7540   7539   7545     1   110.1900474 564.840000
   7544   7540   7556     1   108.2900466 608.353600
   7548   7534   7556     1   107.9700462 569.024000
   7557   7558   7561     1   111.5100476 526.347200
   7557   7558   7570     1   110.1900474 564.840000
   7557   7571   7577     1   110.1900474 564.840000
   7557   7579   7563     1   112.4800480 524.673600
   7558   7561   7562     1   111.5100476 526.347200
   7558   7561   7569     1   110.1900474 564.840000
   7558   7557   7571     1   111.5100476 526.347200
   7558   7557   7579     1   107.9700462 569.024000
   7561   7562   7563     1   111.5100476 526.347200
   7561   7562   7568     1   110.1900474 564.840000
   7561   7558   7570     1   110.1900474 564.840000
   7562   7563   7567     1   107.9700462 569.024000
   7562   7563   7579     1   107.9700462 569.024000
   7562   7561   7569     1   110.1900474 564.840000
   7563   7562   7568     1   110.1900474 564.840000
   7567   7563   7579     1   108.2900466 608.353600
   7571   7557   7579     1   107.9700462 569.024000
   7580   7581   7584     1   111.5100476 526.347200
   7580   7581   7593     1   110.1900474 564.840000
   7580   7594   7600     1   110.1900474 564.840000
   7580   7602   7586     1   112.4800480 524.673600
   7581   7580   7594     1   111.5100476 526.347200
   7581   7580   7602     1   107.9700462 569.024000
   7581   7584   7585     1   111.5100476 526.347200
   7581   7584   7592     1   110.1900474 564.840000
   7584   7581   7593     1   110.1900474 564.840000
   7584   7585   7586     1   111.5100476 526.347200
   7584   7585   7591     1   110.1900474 564.840000
   7585   7584   7592     1   110.1900474 564.840000
   7585   7586   7590     1   107.9700462 569.024000
   7585   7586   7602     1   107.9700462 569.024000
   7586   7585   7591     1   110.1900474 564.840000
   7590   7586   7602     1   108.2900466 608.353600
   7594   7580   7602     1   107.9700462 569.024000
   7603   7604   7607     1   111.5100476 526.347200
   7603   7604   7616     1   110.1900474 564.840000
   7603   7617   7623     1   110.1900474 564.840000
   7603   7625   7609     1   112.4800480 524.673600
   7604   7607   7608     1   111.5100476 526.347200
   7604   7607   7615     1   110.1900474 564.840000
   7604   7603   7617     1   111.5100476 526.347200
   7604   7603   7625     1   107.9700462 569.024000
   7607   7608   7609     1   111.5100476 526.347200
   7607   7608   7614     1   110.1900474 564.840000
   7607   7604   7616     1   110.1900474 564.840000
   7608   7609   7613     1   107.9700462 569.024000
   7608   7609   7625     1   107.9700462 569.024000
   7608   7607   7615     1   110.1900474 564.840000
   7609   7608   7614     1   110.1900474 564.840000
   7613   7609   7625     1   108.2900466 608.353600
   7617   7603   7625     1   107.9700462 569.024000
   7626   7627   7630     1   111.5100476 526.347200
   7626   7627   7639     1   110.1900474 564.840000
   7626   7640   7646     1   110.1900474 564.840000
   7626   7648   7632     1   112.4800480 524.673600
   7627   7626   7640     1   111.5100476 526.347200
   7627   7626   7648     1   107.9700462 569.024000
   7627   7630   7631     1   111.5100476 526.347200
   7627   7630   7638     1   110.1900474 564.840000
   7630   7627   7639     1   110.1900474 564.840000
   7630   7631   7632     1   111.5100476 526.347200
   7630   7631   7637     1   110.1900474 564.840000
   7631   7630   7638     1   110.1900474 564.840000
   7631   7632   7636     1   107.9700462 569.024000
   7631   7632   7648     1   107.9700462 569.024000
   7632   7631   7637     1   110.1900474 564.840000
   7636   7632   7648     1   108.2900466 608.353600
   7640   7626   7648     1   107.9700462 569.024000
   7649   7650   7653     1   111.5100476 526.347200
   7649   7650   7662     1   110.1900474 564.840000
   7649   7663   7669     1   110.1900474 564.840000
   7649   7671   7655     1   112.4800480 524.673600
   7650   7653   7654     1   111.5100476 526.347200
   7650   7653   7661     1   110.1900474 564.840000
   7650   7649   7663     1   111.5100476 526.347200
   7650   7649   7671     1   107.9700462 569.024000
   7653   7654   7655     1   111.5100476 526.347200
   7653   7654   7660     1   110.1900474 564.840000
   7653   7650   7662     1   110.1900474 564.840000
   7654   7655   7659     1   107.9700462 569.024000
   7654   7655   7671     1   107.9700462 569.024000
   7654   7653   7661     1   110.1900474 564.840000
   7655   7654   7660     1   110.1900474 564.840000
   7659   7655   7671     1   108.2900466 608.353600
   7663   7649   7671     1   107.9700462 569.024000
   7672   7673   7676     1   111.5100476 526.347200
   7672   7673   7685     1   110.1900474 564.840000
   7672   7686   7692     1   110.1900474 564.840000
   7672   7694   7678     1   112.4800480 524.673600
   7673   7672   7686     1   111.5100476 526.347200
   7673   7672   7694     1   107.9700462 569.024000
   7673   7676   7677     1   111.5100476 526.347200
   7673   7676   7684     1   110.1900474 564.840000
   7676   7673   7685     1   110.1900474 564.840000
   7676   7677   7678     1   111.5100476 526.347200
   7676   7677   7683     1   110.1900474 564.840000
   7677   7676   7684     1   110.1900474 564.840000
   7677   7678   7682     1   107.9700462 569.024000
   7677   7678   7694     1   107.9700462 569.024000
   7678   7677   7683     1   110.1900474 564.840000
   7682   7678   7694     1   108.2900466 608.353600
   7686   7672   7694     1   107.9700462 569.024000
   7695   7696   7699     1   111.5100476 526.347200
   7695   7696   7708     1   110.1900474 564.840000
   7695   7709   7715     1   110.1900474 564.840000
   7695   7717   7701     1   112.4800480 524.673600
   7696   7699   7700     1   111.5100476 526.347200
   7696   7699   7707     1   110.1900474 564.840000
   7696   7695   7709     1   111.5100476 526.347200
   7696   7695   7717     1   107.9700462 569.024000
   7699   7700   7701     1   111.5100476 526.347200
   7699   7700   7706     1   110.1900474 564.840000
   7699   7696   7708     1   110.1900474 564.840000
   7700   7701   7705     1   107.9700462 569.024000
   7700   7701   7717     1   107.9700462 569.024000
   7700   7699   7707     1   110.1900474 564.840000
   7701   7700   7706     1   110.1900474 564.840000
   7705   7701   7717     1   108.2900466 608.353600
   7709   7695   7717     1   107.9700462 569.024000
   7718   7719   7722     1   111.5100476 526.347200
   7718   7719   7731     1   110.1900474 564.840000
   7718   7732   7738     1   110.1900474 564.840000
   7718   7740   7724     1   112.4800480 524.673600
   7719   7718   7732     1   111.5100476 526.347200
   7719   7718   7740     1   107.9700462 569.024000
   7719   7722   7723     1   111.5100476 526.347200
   7719   7722   7730     1   110.1900474 564.840000
   7722   7719   7731     1   110.1900474 564.840000
   7722   7723   7724     1   111.5100476 526.347200
   7722   7723   7729     1   110.1900474 564.840000
   7723   7722   7730     1   110.1900474 564.840000
   7723   7724   7728     1   107.9700462 569.024000
   7723   7724   7740     1   107.9700462 569.024000
   7724   7723   7729     1   110.1900474 564.840000
   7728   7724   7740     1   108.2900466 608.353600
   7732   7718   7740     1   107.9700462 569.024000
   7741   7742   7745     1   111.5100476 526.347200
   7741   7742   7754     1   110.1900474 564.840000
   7741   7755   7761     1   110.1900474 564.840000
   7741   7763   7747     1   112.4800480 524.673600
   7742   7745   7746     1   111.5100476 526.347200
   7742   7745   7753     1   110.1900474 564.840000
   7742   7741   7755     1   111.5100476 526.347200
   7742   7741   7763     1   107.9700462 569.024000
   7745   7746   7747     1   111.5100476 526.347200
   7745   7746   7752     1   110.1900474 564.840000
   7745   7742   7754     1   110.1900474 564.840000
   7746   7747   7751     1   107.9700462 569.024000
   7746   7747   7763     1   107.9700462 569.024000
   7746   7745   7753     1   110.1900474 564.840000
   7747   7746   7752     1   110.1900474 564.840000
   7751   7747   7763     1   108.2900466 608.353600
   7755   7741   7763     1   107.9700462 569.024000
   7764   7765   7768     1   111.5100476 526.347200
   7764   7765   7777     1   110.1900474 564.840000
   7764   7778   7784     1   110.1900474 564.840000
   7764   7786   7770     1   112.4800480 524.673600
   7765   7764   7778     1   111.5100476 526.347200
   7765   7764   7786     1   107.9700462 569.024000
   7765   7768   7769     1   111.5100476 526.347200
   7765   7768   7776     1   110.1900474 564.840000
   7768   7765   7777     1   110.1900474 564.840000
   7768   7769   7770     1   111.5100476 526.347200
   7768   7769   7775     1   110.1900474 564.840000
   7769   7768   7776     1   110.1900474 564.840000
   7769   7770   7774     1   107.9700462 569.024000
   7769   7770   7786     1   107.9700462 569.024000
   7770   7769   7775     1   110.1900474 564.840000
   7774   7770   7786     1   108.2900466 608.353600
   7778   7764   7786     1   107.9700462 569.024000
   7787   7788   7791     1   111.5100476 526.347200
   7787   7788   7800     1   110.1900474 564.840000
   7787   7801   7807     1   110.1900474 564.840000
   7787   7809   7793     1   112.4800480 524.673600
   7788   7791   7792     1   111.5100476 526.347200
   7788   7791   7799     1   110.1900474 564.840000
   7788   7787   7801     1   111.5100476 526.347200
   7788   7787   7809     1   107.9700462 569.024000
   7791   7792   7793     1   111.5100476 526.347200
   7791   7792   7798     1   110.1900474 564.840000
   7791   7788   7800     1   110.1900474 564.840000
   7792   7793   7797     1   107.9700462 569.024000
   7792   7793   7809     1   107.9700462 569.024000
   7792   7791   7799     1   110.1900474 564.840000
   7793   7792   7798     1   110.1900474 564.840000
   7797   7793   7809     1   108.2900466 608.353600
   7801   7787   7809     1   107.9700462 569.024000
   7810   7811   7814     1   111.5100476 526.347200
   7810   7811   7823     1   110.1900474 564.840000
   7810   7824   7830     1   110.1900474 564.840000
   7810   7832   7816     1   112.4800480 524.673600
   7811   7810   7824     1   111.5100476 526.347200
   7811   7810   7832     1   107.9700462 569.024000
   7811   7814   7815     1   111.5100476 526.347200
   7811   7814   7822     1   110.1900474 564.840000
   7814   7811   7823     1   110.1900474 564.840000
   7814   7815   7816     1   111.5100476 526.347200
   7814   7815   7821     1   110.1900474 564.840000
   7815   7814   7822     1   110.1900474 564.840000
   7815   7816   7820     1   107.9700462 569.024000
   7815   7816   7832     1   107.9700462 569.024000
   7816   7815   7821     1   110.1900474 564.840000
   7820   7816   7832     1   108.2900466 608.353600
   7824   7810   7832     1   107.9700462 569.024000
   7833   7834   7837     1   111.5100476 526.347200
   7833   7834   7846     1   110.1900474 564.840000
   7833   7847   7853     1   110.1900474 564.840000
   7833   7855   7839     1   112.4800480 524.673600
   7834   7837   7838     1   111.5100476 526.347200
   7834   7837   7845     1   110.1900474 564.840000
   7834   7833   7847     1   111.5100476 526.347200
   7834   7833   7855     1   107.9700462 569.024000
   7837   7838   7839     1   111.5100476 526.347200
   7837   7838   7844     1   110.1900474 564.840000
   7837   7834   7846     1   110.1900474 564.840000
   7838   7839   7843     1   107.9700462 569.024000
   7838   7839   7855     1   107.9700462 569.024000
   7838   7837   7845     1   110.1900474 564.840000
   7839   7838   7844     1   110.1900474 564.840000
   7843   7839   7855     1   108.2900466 608.353600
   7847   7833   7855     1   107.9700462 569.024000
   7856   7857   7860     1   111.5100476 526.347200
   7856   7857   7869     1   110.1900474 564.840000
   7856   7870   7876     1   110.1900474 564.840000
   7856   7878   7862     1   112.4800480 524.673600
   7857   7856   7870     1   111.5100476 526.347200
   7857   7856   7878     1   107.9700462 569.024000
   7857   7860   7861     1   111.5100476 526.347200
   7857   7860   7868     1   110.1900474 564.840000
   7860   7857   7869     1   110.1900474 564.840000
   7860   7861   7862     1   111.5100476 526.347200
   7860   7861   7867     1   110.1900474 564.840000
   7861   7860   7868     1   110.1900474 564.840000
   7861   7862   7866     1   107.9700462 569.024000
   7861   7862   7878     1   107.9700462 569.024000
   7862   7861   7867     1   110.1900474 564.840000
   7866   7862   7878     1   108.2900466 608.353600
   7870   7856   7878     1   107.9700462 569.024000
   7879   7880   7883     1   111.5100476 526.347200
   7879   7880   7892     1   110.1900474 564.840000
   7879   7893   7899     1   110.1900474 564.840000
   7879   7901   7885     1   112.4800480 524.673600
   7880   7883   7884     1   111.5100476 526.347200
   7880   7883   7891     1   110.1900474 564.840000
   7880   7879   7893     1   111.5100476 526.347200
   7880   7879   7901     1   107.9700462 569.024000
   7883   7884   7885     1   111.5100476 526.347200
   7883   7884   7890     1   110.1900474 564.840000
   7883   7880   7892     1   110.1900474 564.840000
   7884   7885   7889     1   107.9700462 569.024000
   7884   7885   7901     1   107.9700462 569.024000
   7884   7883   7891     1   110.1900474 564.840000
   7885   7884   7890     1   110.1900474 564.840000
   7889   7885   7901     1   108.2900466 608.353600
   7893   7879   7901     1   107.9700462 569.024000
   7902   7903   7906     1   111.5100476 526.347200
   7902   7903   7915     1   110.1900474 564.840000
   7902   7916   7922     1   110.1900474 564.840000
   7902   7924   7908     1   112.4800480 524.673600
   7903   7902   7916     1   111.5100476 526.347200
   7903   7902   7924     1   107.9700462 569.024000
   7903   7906   7907     1   111.5100476 526.347200
   7903   7906   7914     1   110.1900474 564.840000
   7906   7903   7915     1   110.1900474 564.840000
   7906   7907   7908     1   111.5100476 526.347200
   7906   7907   7913     1   110.1900474 564.840000
   7907   7906   7914     1   110.1900474 564.840000
   7907   7908   7912     1   107.9700462 569.024000
   7907   7908   7924     1   107.9700462 569.024000
   7908   7907   7913     1   110.1900474 564.840000
   7912   7908   7924     1   108.2900466 608.353600
   7916   7902   7924     1   107.9700462 569.024000
   7925   7926   7929     1   111.5100476 526.347200
   7925   7926   7938     1   110.1900474 564.840000
   7925   7939   7945     1   110.1900474 564.840000
   7925   7947   7931     1   112.4800480 524.673600
   7926   7929   7930     1   111.5100476 526.347200
   7926   7929   7937     1   110.1900474 564.840000
   7926   7925   7939     1   111.5100476 526.347200
   7926   7925   7947     1   107.9700462 569.024000
   7929   7930   7931     1   111.5100476 526.347200
   7929   7930   7936     1   110.1900474 564.840000
   7929   7926   7938     1   110.1900474 564.840000
   7930   7931   7935     1   107.9700462 569.024000
   7930   7931   7947     1   107.9700462 569.024000
   7930   7929   7937     1   110.1900474 564.840000
   7931   7930   7936     1   110.1900474 564.840000
   7935   7931   7947     1   108.2900466 608.353600
   7939   7925   7947     1   107.9700462 569.024000
   7948   7949   7952     1   111.5100476 526.347200
   7948   7949   7961     1   110.1900474 564.840000
   7948   7962   7968     1   110.1900474 564.840000
   7948   7970   7954     1   112.4800480 524.673600
   7949   7948   7962     1   111.5100476 526.347200
   7949   7948   7970     1   107.9700462 569.024000
   7949   7952   7953     1   111.5100476 526.347200
   7949   7952   7960     1   110.1900474 564.840000
   7952   7949   7961     1   110.1900474 564.840000
   7952   7953   7954     1   111.5100476 526.347200
   7952   7953   7959     1   110.1900474 564.840000
   7953   7952   7960     1   110.1900474 564.840000
   7953   7954   7958     1   107.9700462 569.024000
   7953   7954   7970     1   107.9700462 569.024000
   7954   7953   7959     1   110.1900474 564.840000
   7958   7954   7970     1   108.2900466 608.353600
   7962   7948   7970     1   107.9700462 569.024000
   7971   7972   7975     1   111.5100476 526.347200
   7971   7972   7984     1   110.1900474 564.840000
   7971   7985   7991     1   110.1900474 564.840000
   7971   7993   7977     1   112.4800480 524.673600
   7972   7975   7976     1   111.5100476 526.347200
   7972   7975   7983     1   110.1900474 564.840000
   7972   7971   7985     1   111.5100476 526.347200
   7972   7971   7993     1   107.9700462 569.024000
   7975   7976   7977     1   111.5100476 526.347200
   7975   7976   7982     1   110.1900474 564.840000
   7975   7972   7984     1   110.1900474 564.840000
   7976   7977   7981     1   107.9700462 569.024000
   7976   7977   7993     1   107.9700462 569.024000
   7976   7975   7983     1   110.1900474 564.840000
   7977   7976   7982     1   110.1900474 564.840000
   7981   7977   7993     1   108.2900466 608.353600
   7985   7971   7993     1   107.9700462 569.024000
   7994   7995   7998     1   111.5100476 526.347200
   7994   7995   8007     1   110.1900474 564.840000
   7994   8008   8014     1   110.1900474 564.840000
   7994   8016   8000     1   112.4800480 524.673600
   7995   7994   8008     1   111.5100476 526.347200
   7995   7994   8016     1   107.9700462 569.024000
   7995   7998   7999     1   111.5100476 526.347200
   7995   7998   8006     1   110.1900474 564.840000
   7998   7995   8007     1   110.1900474 564.840000
   7998   7999   8000     1   111.5100476 526.347200
   7998   7999   8005     1   110.1900474 564.840000
   7999   7998   8006     1   110.1900474 564.840000
   7999   8000   8004     1   107.9700462 569.024000
   7999   8000   8016     1   107.9700462 569.024000
   8000   7999   8005     1   110.1900474 564.840000
   8004   8000   8016     1   108.2900466 608.353600
   8008   7994   8016     1   107.9700462 569.024000
   8017   8018   8021     1   111.5100476 526.347200
   8017   8018   8030     1   110.1900474 564.840000
   8017   8031   8037     1   110.1900474 564.840000
   8017   8039   8023     1   112.4800480 524.673600
   8018   8021   8022     1   111.5100476 526.347200
   8018   8021   8029     1   110.1900474 564.840000
   8018   8017   8031     1   111.5100476 526.347200
   8018   8017   8039     1   107.9700462 569.024000
   8021   8022   8023     1   111.5100476 526.347200
   8021   8022   8028     1   110.1900474 564.840000
   8021   8018   8030     1   110.1900474 564.840000
   8022   8023   8027     1   107.9700462 569.024000
   8022   8023   8039     1   107.9700462 569.024000
   8022   8021   8029     1   110.1900474 564.840000
   8023   8022   8028     1   110.1900474 564.840000
   8027   8023   8039     1   108.2900466 608.353600
   8031   8017   8039     1   107.9700462 569.024000
   8040   8041   8044     1   111.5100476 526.347200
   8040   8041   8053     1   110.1900474 564.840000
   8040   8054   8060     1   110.1900474 564.840000
   8040   8062   8046     1   112.4800480 524.673600
   8041   8040   8054     1   111.5100476 526.347200
   8041   8040   8062     1   107.9700462 569.024000
   8041   8044   8045     1   111.5100476 526.347200
   8041   8044   8052     1   110.1900474 564.840000
   8044   8041   8053     1   110.1900474 564.840000
   8044   8045   8046     1   111.5100476 526.347200
   8044   8045   8051     1   110.1900474 564.840000
   8045   8044   8052     1   110.1900474 564.840000
   8045   8046   8050     1   107.9700462 569.024000
   8045   8046   8062     1   107.9700462 569.024000
   8046   8045   8051     1   110.1900474 564.840000
   8050   8046   8062     1   108.2900466 608.353600
   8054   8040   8062     1   107.9700462 569.024000
   8063   8064   8067     1   111.5100476 526.347200
   8063   8064   8076     1   110.1900474 564.840000
   8063   8077   8083     1   110.1900474 564.840000
   8063   8085   8069     1   112.4800480 524.673600
   8064   8067   8068     1   111.5100476 526.347200
   8064   8067   8075     1   110.1900474 564.840000
   8064   8063   8077     1   111.5100476 526.347200
   8064   8063   8085     1   107.9700462 569.024000
   8067   8068   8069     1   111.5100476 526.347200
   8067   8068   8074     1   110.1900474 564.840000
   8067   8064   8076     1   110.1900474 564.840000
   8068   8069   8073     1   107.9700462 569.024000
   8068   8069   8085     1   107.9700462 569.024000
   8068   8067   8075     1   110.1900474 564.840000
   8069   8068   8074     1   110.1900474 564.840000
   8073   8069   8085     1   108.2900466 608.353600
   8077   8063   8085     1   107.9700462 569.024000
   8086   8087   8090     1   111.5100476 526.347200
   8086   8087   8099     1   110.1900474 564.840000
   8086   8100   8106     1   110.1900474 564.840000
   8086   8108   8092     1   112.4800480 524.673600
   8087   8086   8100     1   111.5100476 526.347200
   8087   8086   8108     1   107.9700462 569.024000
   8087   8090   8091     1   111.5100476 526.347200
   8087   8090   8098     1   110.1900474 564.840000
   8090   8087   8099     1   110.1900474 564.840000
   8090   8091   8092     1   111.5100476 526.347200
   8090   8091   8097     1   110.1900474 564.840000
   8091   8090   8098     1   110.1900474 564.840000
   8091   8092   8096     1   107.9700462 569.024000
   8091   8092   8108     1   107.9700462 569.024000
   8092   8091   8097     1   110.1900474 564.840000
   8096   8092   8108     1   108.2900466 608.353600
   8100   8086   8108     1   107.9700462 569.024000
   8109   8110   8113     1   111.5100476 526.347200
   8109   8110   8122     1   110.1900474 564.840000
   8109   8123   8129     1   110.1900474 564.840000
   8109   8131   8115     1   112.4800480 524.673600
   8110   8113   8114     1   111.5100476 526.347200
   8110   8113   8121     1   110.1900474 564.840000
   8110   8109   8123     1   111.5100476 526.347200
   8110   8109   8131     1   107.9700462 569.024000
   8113   8114   8115     1   111.5100476 526.347200
   8113   8114   8120     1   110.1900474 564.840000
   8113   8110   8122     1   110.1900474 564.840000
   8114   8115   8119     1   107.9700462 569.024000
   8114   8115   8131     1   107.9700462 569.024000
   8114   8113   8121     1   110.1900474 564.840000
   8115   8114   8120     1   110.1900474 564.840000
   8119   8115   8131     1   108.2900466 608.353600
   8123   8109   8131     1   107.9700462 569.024000
   8132   8133   8136     1   111.5100476 526.347200
   8132   8133   8145     1   110.1900474 564.840000
   8132   8146   8152     1   110.1900474 564.840000
   8132   8154   8138     1   112.4800480 524.673600
   8133   8132   8146     1   111.5100476 526.347200
   8133   8132   8154     1   107.9700462 569.024000
   8133   8136   8137     1   111.5100476 526.347200
   8133   8136   8144     1   110.1900474 564.840000
   8136   8133   8145     1   110.1900474 564.840000
   8136   8137   8138     1   111.5100476 526.347200
   8136   8137   8143     1   110.1900474 564.840000
   8137   8136   8144     1   110.1900474 564.840000
   8137   8138   8142     1   107.9700462 569.024000
   8137   8138   8154     1   107.9700462 569.024000
   8138   8137   8143     1   110.1900474 564.840000
   8142   8138   8154     1   108.2900466 608.353600
   8146   8132   8154     1   107.9700462 569.024000
   8155   8156   8159     1   111.5100476 526.347200
   8155   8156   8168     1   110.1900474 564.840000
   8155   8169   8175     1   110.1900474 564.840000
   8155   8177   8161     1   112.4800480 524.673600
   8156   8159   8160     1   111.5100476 526.347200
   8156   8159   8167     1   110.1900474 564.840000
   8156   8155   8169     1   111.5100476 526.347200
   8156   8155   8177     1   107.9700462 569.024000
   8159   8160   8161     1   111.5100476 526.347200
   8159   8160   8166     1   110.1900474 564.840000
   8159   8156   8168     1   110.1900474 564.840000
   8160   8161   8165     1   107.9700462 569.024000
   8160   8161   8177     1   107.9700462 569.024000
   8160   8159   8167     1   110.1900474 564.840000
   8161   8160   8166     1   110.1900474 564.840000
   8165   8161   8177     1   108.2900466 608.353600
   8169   8155   8177     1   107.9700462 569.024000
   8178   8179   8182     1   111.5100476 526.347200
   8178   8179   8191     1   110.1900474 564.840000
   8178   8192   8198     1   110.1900474 564.840000
   8178   8200   8184     1   112.4800480 524.673600
   8179   8178   8192     1   111.5100476 526.347200
   8179   8178   8200     1   107.9700462 569.024000
   8179   8182   8183     1   111.5100476 526.347200
   8179   8182   8190     1   110.1900474 564.840000
   8182   8179   8191     1   110.1900474 564.840000
   8182   8183   8184     1   111.5100476 526.347200
   8182   8183   8189     1   110.1900474 564.840000
   8183   8182   8190     1   110.1900474 564.840000
   8183   8184   8188     1   107.9700462 569.024000
   8183   8184   8200     1   107.9700462 569.024000
   8184   8183   8189     1   110.1900474 564.840000
   8188   8184   8200     1   108.2900466 608.353600
   8192   8178   8200     1   107.9700462 569.024000
   8201   8202   8205     1   111.5100476 526.347200
   8201   8202   8214     1   110.1900474 564.840000
   8201   8215   8221     1   110.1900474 564.840000
   8201   8223   8207     1   112.4800480 524.673600
   8202   8205   8206     1   111.5100476 526.347200
   8202   8205   8213     1   110.1900474 564.840000
   8202   8201   8215     1   111.5100476 526.347200
   8202   8201   8223     1   107.9700462 569.024000
   8205   8206   8207     1   111.5100476 526.347200
   8205   8206   8212     1   110.1900474 564.840000
   8205   8202   8214     1   110.1900474 564.840000
   8206   8207   8211     1   107.9700462 569.024000
   8206   8207   8223     1   107.9700462 569.024000
   8206   8205   8213     1   110.1900474 564.840000
   8207   8206   8212     1   110.1900474 564.840000
   8211   8207   8223     1   108.2900466 608.353600
   8215   8201   8223     1   107.9700462 569.024000
   8224   8225   8228     1   111.5100476 526.347200
   8224   8225   8237     1   110.1900474 564.840000
   8224   8238   8244     1   110.1900474 564.840000
   8224   8246   8230     1   112.4800480 524.673600
   8225   8224   8238     1   111.5100476 526.347200
   8225   8224   8246     1   107.9700462 569.024000
   8225   8228   8229     1   111.5100476 526.347200
   8225   8228   8236     1   110.1900474 564.840000
   8228   8225   8237     1   110.1900474 564.840000
   8228   8229   8230     1   111.5100476 526.347200
   8228   8229   8235     1   110.1900474 564.840000
   8229   8228   8236     1   110.1900474 564.840000
   8229   8230   8234     1   107.9700462 569.024000
   8229   8230   8246     1   107.9700462 569.024000
   8230   8229   8235     1   110.1900474 564.840000
   8234   8230   8246     1   108.2900466 608.353600
   8238   8224   8246     1   107.9700462 569.024000
   8247   8248   8251     1   111.5100476 526.347200
   8247   8248   8260     1   110.1900474 564.840000
   8247   8261   8267     1   110.1900474 564.840000
   8247   8269   8253     1   112.4800480 524.673600
   8248   8251   8252     1   111.5100476 526.347200
   8248   8251   8259     1   110.1900474 564.840000
   8248   8247   8261     1   111.5100476 526.347200
   8248   8247   8269     1   107.9700462 569.024000
   8251   8252   8253     1   111.5100476 526.347200
   8251   8252   8258     1   110.1900474 564.840000
   8251   8248   8260     1   110.1900474 564.840000
   8252   8253   8257     1   107.9700462 569.024000
   8252   8253   8269     1   107.9700462 569.024000
   8252   8251   8259     1   110.1900474 564.840000
   8253   8252   8258     1   110.1900474 564.840000
   8257   8253   8269     1   108.2900466 608.353600
   8261   8247   8269     1   107.9700462 569.024000
   8270   8271   8274     1   111.5100476 526.347200
   8270   8271   8283     1   110.1900474 564.840000
   8270   8284   8290     1   110.1900474 564.840000
   8270   8292   8276     1   112.4800480 524.673600
   8271   8270   8284     1   111.5100476 526.347200
   8271   8270   8292     1   107.9700462 569.024000
   8271   8274   8275     1   111.5100476 526.347200
   8271   8274   8282     1   110.1900474 564.840000
   8274   8271   8283     1   110.1900474 564.840000
   8274   8275   8276     1   111.5100476 526.347200
   8274   8275   8281     1   110.1900474 564.840000
   8275   8274   8282     1   110.1900474 564.840000
   8275   8276   8280     1   107.9700462 569.024000
   8275   8276   8292     1   107.9700462 569.024000
   8276   8275   8281     1   110.1900474 564.840000
   8280   8276   8292     1   108.2900466 608.353600
   8284   8270   8292     1   107.9700462 569.024000
   8293   8294   8297     1   111.5100476 526.347200
   8293   8294   8306     1   110.1900474 564.840000
   8293   8307   8313     1   110.1900474 564.840000
   8293   8315   8299     1   112.4800480 524.673600
   8294   8297   8298     1   111.5100476 526.347200
   8294   8297   8305     1   110.1900474 564.840000
   8294   8293   8307     1   111.5100476 526.347200
   8294   8293   8315     1   107.9700462 569.024000
   8297   8298   8299     1   111.5100476 526.347200
   8297   8298   8304     1   110.1900474 564.840000
   8297   8294   8306     1   110.1900474 564.840000
   8298   8299   8303     1   107.9700462 569.024000
   8298   8299   8315     1   107.9700462 569.024000
   8298   8297   8305     1   110.1900474 564.840000
   8299   8298   8304     1   110.1900474 564.840000
   8303   8299   8315     1   108.2900466 608.353600
   8307   8293   8315     1   107.9700462 569.024000
   8316   8317   8320     1   111.5100476 526.347200
   8316   8317   8329     1   110.1900474 564.840000
   8316   8330   8336     1   110.1900474 564.840000
   8316   8338   8322     1   112.4800480 524.673600
   8317   8316   8330     1   111.5100476 526.347200
   8317   8316   8338     1   107.9700462 569.024000
   8317   8320   8321     1   111.5100476 526.347200
   8317   8320   8328     1   110.1900474 564.840000
   8320   8317   8329     1   110.1900474 564.840000
   8320   8321   8322     1   111.5100476 526.347200
   8320   8321   8327     1   110.1900474 564.840000
   8321   8320   8328     1   110.1900474 564.840000
   8321   8322   8326     1   107.9700462 569.024000
   8321   8322   8338     1   107.9700462 569.024000
   8322   8321   8327     1   110.1900474 564.840000
   8326   8322   8338     1   108.2900466 608.353600
   8330   8316   8338     1   107.9700462 569.024000
   8339   8340   8343     1   111.5100476 526.347200
   8339   8340   8352     1   110.1900474 564.840000
   8339   8353   8359     1   110.1900474 564.840000
   8339   8361   8345     1   112.4800480 524.673600
   8340   8343   8344     1   111.5100476 526.347200
   8340   8343   8351     1   110.1900474 564.840000
   8340   8339   8353     1   111.5100476 526.347200
   8340   8339   8361     1   107.9700462 569.024000
   8343   8344   8345     1   111.5100476 526.347200
   8343   8344   8350     1   110.1900474 564.840000
   8343   8340   8352     1   110.1900474 564.840000
   8344   8345   8349     1   107.9700462 569.024000
   8344   8345   8361     1   107.9700462 569.024000
   8344   8343   8351     1   110.1900474 564.840000
   8345   8344   8350     1   110.1900474 564.840000
   8349   8345   8361     1   108.2900466 608.353600
   8353   8339   8361     1   107.9700462 569.024000
   8362   8363   8366     1   111.5100476 526.347200
   8362   8363   8375     1   110.1900474 564.840000
   8362   8376   8382     1   110.1900474 564.840000
   8362   8384   8368     1   112.4800480 524.673600
   8363   8362   8376     1   111.5100476 526.347200
   8363   8362   8384     1   107.9700462 569.024000
   8363   8366   8367     1   111.5100476 526.347200
   8363   8366   8374     1   110.1900474 564.840000
   8366   8363   8375     1   110.1900474 564.840000
   8366   8367   8368     1   111.5100476 526.347200
   8366   8367   8373     1   110.1900474 564.840000
   8367   8366   8374     1   110.1900474 564.840000
   8367   8368   8372     1   107.9700462 569.024000
   8367   8368   8384     1   107.9700462 569.024000
   8368   8367   8373     1   110.1900474 564.840000
   8372   8368   8384     1   108.2900466 608.353600
   8376   8362   8384     1   107.9700462 569.024000
   8385   8386   8389     1   111.5100476 526.347200
   8385   8386   8398     1   110.1900474 564.840000
   8385   8399   8405     1   110.1900474 564.840000
   8385   8407   8391     1   112.4800480 524.673600
   8386   8389   8390     1   111.5100476 526.347200
   8386   8389   8397     1   110.1900474 564.840000
   8386   8385   8399     1   111.5100476 526.347200
   8386   8385   8407     1   107.9700462 569.024000
   8389   8390   8391     1   111.5100476 526.347200
   8389   8390   8396     1   110.1900474 564.840000
   8389   8386   8398     1   110.1900474 564.840000
   8390   8391   8395     1   107.9700462 569.024000
   8390   8391   8407     1   107.9700462 569.024000
   8390   8389   8397     1   110.1900474 564.840000
   8391   8390   8396     1   110.1900474 564.840000
   8395   8391   8407     1   108.2900466 608.353600
   8399   8385   8407     1   107.9700462 569.024000
   8408   8409   8412     1   111.5100476 526.347200
   8408   8409   8421     1   110.1900474 564.840000
   8408   8422   8428     1   110.1900474 564.840000
   8408   8430   8414     1   112.4800480 524.673600
   8409   8408   8422     1   111.5100476 526.347200
   8409   8408   8430     1   107.9700462 569.024000
   8409   8412   8413     1   111.5100476 526.347200
   8409   8412   8420     1   110.1900474 564.840000
   8412   8409   8421     1   110.1900474 564.840000
   8412   8413   8414     1   111.5100476 526.347200
   8412   8413   8419     1   110.1900474 564.840000
   8413   8412   8420     1   110.1900474 564.840000
   8413   8414   8418     1   107.9700462 569.024000
   8413   8414   8430     1   107.9700462 569.024000
   8414   8413   8419     1   110.1900474 564.840000
   8418   8414   8430     1   108.2900466 608.353600
   8422   8408   8430     1   107.9700462 569.024000
   8431   8432   8435     1   111.5100476 526.347200
   8431   8432   8444     1   110.1900474 564.840000
   8431   8445   8451     1   110.1900474 564.840000
   8431   8453   8437     1   112.4800480 524.673600
   8432   8435   8436     1   111.5100476 526.347200
   8432   8435   8443     1   110.1900474 564.840000
   8432   8431   8445     1   111.5100476 526.347200
   8432   8431   8453     1   107.9700462 569.024000
   8435   8436   8437     1   111.5100476 526.347200
   8435   8436   8442     1   110.1900474 564.840000
   8435   8432   8444     1   110.1900474 564.840000
   8436   8437   8441     1   107.9700462 569.024000
   8436   8437   8453     1   107.9700462 569.024000
   8436   8435   8443     1   110.1900474 564.840000
   8437   8436   8442     1   110.1900474 564.840000
   8441   8437   8453     1   108.2900466 608.353600
   8445   8431   8453     1   107.9700462 569.024000
   8454   8455   8458     1   111.5100476 526.347200
   8454   8455   8467     1   110.1900474 564.840000
   8454   8468   8474     1   110.1900474 564.840000
   8454   8476   8460     1   112.4800480 524.673600
   8455   8454   8468     1   111.5100476 526.347200
   8455   8454   8476     1   107.9700462 569.024000
   8455   8458   8459     1   111.5100476 526.347200
   8455   8458   8466     1   110.1900474 564.840000
   8458   8455   8467     1   110.1900474 564.840000
   8458   8459   8460     1   111.5100476 526.347200
   8458   8459   8465     1   110.1900474 564.840000
   8459   8458   8466     1   110.1900474 564.840000
   8459   8460   8464     1   107.9700462 569.024000
   8459   8460   8476     1   107.9700462 569.024000
   8460   8459   8465     1   110.1900474 564.840000
   8464   8460   8476     1   108.2900466 608.353600
   8468   8454   8476     1   107.9700462 569.024000
   8477   8478   8481     1   111.5100476 526.347200
   8477   8478   8490     1   110.1900474 564.840000
   8477   8491   8497     1   110.1900474 564.840000
   8477   8499   8483     1   112.4800480 524.673600
   8478   8481   8482     1   111.5100476 526.347200
   8478   8481   8489     1   110.1900474 564.840000
   8478   8477   8491     1   111.5100476 526.347200
   8478   8477   8499     1   107.9700462 569.024000
   8481   8482   8483     1   111.5100476 526.347200
   8481   8482   8488     1   110.1900474 564.840000
   8481   8478   8490     1   110.1900474 564.840000
   8482   8483   8487     1   107.9700462 569.024000
   8482   8483   8499     1   107.9700462 569.024000
   8482   8481   8489     1   110.1900474 564.840000
   8483   8482   8488     1   110.1900474 564.840000
   8487   8483   8499     1   108.2900466 608.353600
   8491   8477   8499     1   107.9700462 569.024000
   8500   8501   8504     1   111.5100476 526.347200
   8500   8501   8513     1   110.1900474 564.840000
   8500   8514   8520     1   110.1900474 564.840000
   8500   8522   8506     1   112.4800480 524.673600
   8501   8500   8514     1   111.5100476 526.347200
   8501   8500   8522     1   107.9700462 569.024000
   8501   8504   8505     1   111.5100476 526.347200
   8501   8504   8512     1   110.1900474 564.840000
   8504   8501   8513     1   110.1900474 564.840000
   8504   8505   8506     1   111.5100476 526.347200
   8504   8505   8511     1   110.1900474 564.840000
   8505   8504   8512     1   110.1900474 564.840000
   8505   8506   8510     1   107.9700462 569.024000
   8505   8506   8522     1   107.9700462 569.024000
   8506   8505   8511     1   110.1900474 564.840000
   8510   8506   8522     1   108.2900466 608.353600
   8514   8500   8522     1   107.9700462 569.024000
   8523   8524   8527     1   111.5100476 526.347200
   8523   8524   8536     1   110.1900474 564.840000
   8523   8537   8543     1   110.1900474 564.840000
   8523   8545   8529     1   112.4800480 524.673600
   8524   8527   8528     1   111.5100476 526.347200
   8524   8527   8535     1   110.1900474 564.840000
   8524   8523   8537     1   111.5100476 526.347200
   8524   8523   8545     1   107.9700462 569.024000
   8527   8528   8529     1   111.5100476 526.347200
   8527   8528   8534     1   110.1900474 564.840000
   8527   8524   8536     1   110.1900474 564.840000
   8528   8529   8533     1   107.9700462 569.024000
   8528   8529   8545     1   107.9700462 569.024000
   8528   8527   8535     1   110.1900474 564.840000
   8529   8528   8534     1   110.1900474 564.840000
   8533   8529   8545     1   108.2900466 608.353600
   8537   8523   8545     1   107.9700462 569.024000
   8546   8547   8550     1   111.5100476 526.347200
   8546   8547   8559     1   110.1900474 564.840000
   8546   8560   8566     1   110.1900474 564.840000
   8546   8568   8552     1   112.4800480 524.673600
   8547   8546   8560     1   111.5100476 526.347200
   8547   8546   8568     1   107.9700462 569.024000
   8547   8550   8551     1   111.5100476 526.347200
   8547   8550   8558     1   110.1900474 564.840000
   8550   8547   8559     1   110.1900474 564.840000
   8550   8551   8552     1   111.5100476 526.347200
   8550   8551   8557     1   110.1900474 564.840000
   8551   8550   8558     1   110.1900474 564.840000
   8551   8552   8556     1   107.9700462 569.024000
   8551   8552   8568     1   107.9700462 569.024000
   8552   8551   8557     1   110.1900474 564.840000
   8556   8552   8568     1   108.2900466 608.353600
   8560   8546   8568     1   107.9700462 569.024000
   8569   8570   8573     1   111.5100476 526.347200
   8569   8570   8582     1   110.1900474 564.840000
   8569   8583   8589     1   110.1900474 564.840000
   8569   8591   8575     1   112.4800480 524.673600
   8570   8573   8574     1   111.5100476 526.347200
   8570   8573   8581     1   110.1900474 564.840000
   8570   8569   8583     1   111.5100476 526.347200
   8570   8569   8591     1   107.9700462 569.024000
   8573   8574   8575     1   111.5100476 526.347200
   8573   8574   8580     1   110.1900474 564.840000
   8573   8570   8582     1   110.1900474 564.840000
   8574   8575   8579     1   107.9700462 569.024000
   8574   8575   8591     1   107.9700462 569.024000
   8574   8573   8581     1   110.1900474 564.840000
   8575   8574   8580     1   110.1900474 564.840000
   8579   8575   8591     1   108.2900466 608.353600
   8583   8569   8591     1   107.9700462 569.024000
   8592   8593   8596     1   111.5100476 526.347200
   8592   8593   8605     1   110.1900474 564.840000
   8592   8606   8612     1   110.1900474 564.840000
   8592   8614   8598     1   112.4800480 524.673600
   8593   8592   8606     1   111.5100476 526.347200
   8593   8592   8614     1   107.9700462 569.024000
   8593   8596   8597     1   111.5100476 526.347200
   8593   8596   8604     1   110.1900474 564.840000
   8596   8593   8605     1   110.1900474 564.840000
   8596   8597   8598     1   111.5100476 526.347200
   8596   8597   8603     1   110.1900474 564.840000
   8597   8596   8604     1   110.1900474 564.840000
   8597   8598   8602     1   107.9700462 569.024000
   8597   8598   8614     1   107.9700462 569.024000
   8598   8597   8603     1   110.1900474 564.840000
   8602   8598   8614     1   108.2900466 608.353600
   8606   8592   8614     1   107.9700462 569.024000
   8615   8616   8619     1   111.5100476 526.347200
   8615   8616   8628     1   110.1900474 564.840000
   8615   8629   8635     1   110.1900474 564.840000
   8615   8637   8621     1   112.4800480 524.673600
   8616   8619   8620     1   111.5100476 526.347200
   8616   8619   8627     1   110.1900474 564.840000
   8616   8615   8629     1   111.5100476 526.347200
   8616   8615   8637     1   107.9700462 569.024000
   8619   8620   8621     1   111.5100476 526.347200
   8619   8620   8626     1   110.1900474 564.840000
   8619   8616   8628     1   110.1900474 564.840000
   8620   8621   8625     1   107.9700462 569.024000
   8620   8621   8637     1   107.9700462 569.024000
   8620   8619   8627     1   110.1900474 564.840000
   8621   8620   8626     1   110.1900474 564.840000
   8625   8621   8637     1   108.2900466 608.353600
   8629   8615   8637     1   107.9700462 569.024000
   8638   8639   8642     1   111.5100476 526.347200
   8638   8639   8651     1   110.1900474 564.840000
   8638   8652   8658     1   110.1900474 564.840000
   8638   8660   8644     1   112.4800480 524.673600
   8639   8638   8652     1   111.5100476 526.347200
   8639   8638   8660     1   107.9700462 569.024000
   8639   8642   8643     1   111.5100476 526.347200
   8639   8642   8650     1   110.1900474 564.840000
   8642   8639   8651     1   110.1900474 564.840000
   8642   8643   8644     1   111.5100476 526.347200
   8642   8643   8649     1   110.1900474 564.840000
   8643   8642   8650     1   110.1900474 564.840000
   8643   8644   8648     1   107.9700462 569.024000
   8643   8644   8660     1   107.9700462 569.024000
   8644   8643   8649     1   110.1900474 564.840000
   8648   8644   8660     1   108.2900466 608.353600
   8652   8638   8660     1   107.9700462 569.024000
   8661   8662   8665     1   111.5100476 526.347200
   8661   8662   8674     1   110.1900474 564.840000
   8661   8675   8681     1   110.1900474 564.840000
   8661   8683   8667     1   112.4800480 524.673600
   8662   8665   8666     1   111.5100476 526.347200
   8662   8665   8673     1   110.1900474 564.840000
   8662   8661   8675     1   111.5100476 526.347200
   8662   8661   8683     1   107.9700462 569.024000
   8665   8666   8667     1   111.5100476 526.347200
   8665   8666   8672     1   110.1900474 564.840000
   8665   8662   8674     1   110.1900474 564.840000
   8666   8667   8671     1   107.9700462 569.024000
   8666   8667   8683     1   107.9700462 569.024000
   8666   8665   8673     1   110.1900474 564.840000
   8667   8666   8672     1   110.1900474 564.840000
   8671   8667   8683     1   108.2900466 608.353600
   8675   8661   8683     1   107.9700462 569.024000
   8684   8685   8688     1   111.5100476 526.347200
   8684   8685   8697     1   110.1900474 564.840000
   8684   8698   8704     1   110.1900474 564.840000
   8684   8706   8690     1   112.4800480 524.673600
   8685   8684   8698     1   111.5100476 526.347200
   8685   8684   8706     1   107.9700462 569.024000
   8685   8688   8689     1   111.5100476 526.347200
   8685   8688   8696     1   110.1900474 564.840000
   8688   8685   8697     1   110.1900474 564.840000
   8688   8689   8690     1   111.5100476 526.347200
   8688   8689   8695     1   110.1900474 564.840000
   8689   8688   8696     1   110.1900474 564.840000
   8689   8690   8694     1   107.9700462 569.024000
   8689   8690   8706     1   107.9700462 569.024000
   8690   8689   8695     1   110.1900474 564.840000
   8694   8690   8706     1   108.2900466 608.353600
   8698   8684   8706     1   107.9700462 569.024000
   8707   8708   8711     1   111.5100476 526.347200
   8707   8708   8720     1   110.1900474 564.840000
   8707   8721   8727     1   110.1900474 564.840000
   8707   8729   8713     1   112.4800480 524.673600
   8708   8711   8712     1   111.5100476 526.347200
   8708   8711   8719     1   110.1900474 564.840000
   8708   8707   8721     1   111.5100476 526.347200
   8708   8707   8729     1   107.9700462 569.024000
   8711   8712   8713     1   111.5100476 526.347200
   8711   8712   8718     1   110.1900474 564.840000
   8711   8708   8720     1   110.1900474 564.840000
   8712   8713   8717     1   107.9700462 569.024000
   8712   8713   8729     1   107.9700462 569.024000
   8712   8711   8719     1   110.1900474 564.840000
   8713   8712   8718     1   110.1900474 564.840000
   8717   8713   8729     1   108.2900466 608.353600
   8721   8707   8729     1   107.9700462 569.024000
   8730   8731   8734     1   111.5100476 526.347200
   8730   8731   8743     1   110.1900474 564.840000
   8730   8744   8750     1   110.1900474 564.840000
   8730   8752   8736     1   112.4800480 524.673600
   8731   8730   8744     1   111.5100476 526.347200
   8731   8730   8752     1   107.9700462 569.024000
   8731   8734   8735     1   111.5100476 526.347200
   8731   8734   8742     1   110.1900474 564.840000
   8734   8731   8743     1   110.1900474 564.840000
   8734   8735   8736     1   111.5100476 526.347200
   8734   8735   8741     1   110.1900474 564.840000
   8735   8734   8742     1   110.1900474 564.840000
   8735   8736   8740     1   107.9700462 569.024000
   8735   8736   8752     1   107.9700462 569.024000
   8736   8735   8741     1   110.1900474 564.840000
   8740   8736   8752     1   108.2900466 608.353600
   8744   8730   8752     1   107.9700462 569.024000
   8753   8754   8757     1   111.5100476 526.347200
   8753   8754   8766     1   110.1900474 564.840000
   8753   8767   8773     1   110.1900474 564.840000
   8753   8775   8759     1   112.4800480 524.673600
   8754   8757   8758     1   111.5100476 526.347200
   8754   8757   8765     1   110.1900474 564.840000
   8754   8753   8767     1   111.5100476 526.347200
   8754   8753   8775     1   107.9700462 569.024000
   8757   8758   8759     1   111.5100476 526.347200
   8757   8758   8764     1   110.1900474 564.840000
   8757   8754   8766     1   110.1900474 564.840000
   8758   8759   8763     1   107.9700462 569.024000
   8758   8759   8775     1   107.9700462 569.024000
   8758   8757   8765     1   110.1900474 564.840000
   8759   8758   8764     1   110.1900474 564.840000
   8763   8759   8775     1   108.2900466 608.353600
   8767   8753   8775     1   107.9700462 569.024000
   8776   8777   8780     1   111.5100476 526.347200
   8776   8777   8789     1   110.1900474 564.840000
   8776   8790   8796     1   110.1900474 564.840000
   8776   8798   8782     1   112.4800480 524.673600
   8777   8776   8790     1   111.5100476 526.347200
   8777   8776   8798     1   107.9700462 569.024000
   8777   8780   8781     1   111.5100476 526.347200
   8777   8780   8788     1   110.1900474 564.840000
   8780   8777   8789     1   110.1900474 564.840000
   8780   8781   8782     1   111.5100476 526.347200
   8780   8781   8787     1   110.1900474 564.840000
   8781   8780   8788     1   110.1900474 564.840000
   8781   8782   8786     1   107.9700462 569.024000
   8781   8782   8798     1   107.9700462 569.024000
   8782   8781   8787     1   110.1900474 564.840000
   8786   8782   8798     1   108.2900466 608.353600
   8790   8776   8798     1   107.9700462 569.024000
   8799   8800   8803     1   111.5100476 526.347200
   8799   8800   8812     1   110.1900474 564.840000
   8799   8813   8819     1   110.1900474 564.840000
   8799   8821   8805     1   112.4800480 524.673600
   8800   8803   8804     1   111.5100476 526.347200
   8800   8803   8811     1   110.1900474 564.840000
   8800   8799   8813     1   111.5100476 526.347200
   8800   8799   8821     1   107.9700462 569.024000
   8803   8804   8805     1   111.5100476 526.347200
   8803   8804   8810     1   110.1900474 564.840000
   8803   8800   8812     1   110.1900474 564.840000
   8804   8805   8809     1   107.9700462 569.024000
   8804   8805   8821     1   107.9700462 569.024000
   8804   8803   8811     1   110.1900474 564.840000
   8805   8804   8810     1   110.1900474 564.840000
   8809   8805   8821     1   108.2900466 608.353600
   8813   8799   8821     1   107.9700462 569.024000
   8822   8823   8826     1   111.5100476 526.347200
   8822   8823   8835     1   110.1900474 564.840000
   8822   8836   8842     1   110.1900474 564.840000
   8822   8844   8828     1   112.4800480 524.673600
   8823   8822   8836     1   111.5100476 526.347200
   8823   8822   8844     1   107.9700462 569.024000
   8823   8826   8827     1   111.5100476 526.347200
   8823   8826   8834     1   110.1900474 564.840000
   8826   8823   8835     1   110.1900474 564.840000
   8826   8827   8828     1   111.5100476 526.347200
   8826   8827   8833     1   110.1900474 564.840000
   8827   8826   8834     1   110.1900474 564.840000
   8827   8828   8832     1   107.9700462 569.024000
   8827   8828   8844     1   107.9700462 569.024000
   8828   8827   8833     1   110.1900474 564.840000
   8832   8828   8844     1   108.2900466 608.353600
   8836   8822   8844     1   107.9700462 569.024000
   8845   8846   8849     1   111.5100476 526.347200
   8845   8846   8858     1   110.1900474 564.840000
   8845   8859   8865     1   110.1900474 564.840000
   8845   8867   8851     1   112.4800480 524.673600
   8846   8849   8850     1   111.5100476 526.347200
   8846   8849   8857     1   110.1900474 564.840000
   8846   8845   8859     1   111.5100476 526.347200
   8846   8845   8867     1   107.9700462 569.024000
   8849   8850   8851     1   111.5100476 526.347200
   8849   8850   8856     1   110.1900474 564.840000
   8849   8846   8858     1   110.1900474 564.840000
   8850   8851   8855     1   107.9700462 569.024000
   8850   8851   8867     1   107.9700462 569.024000
   8850   8849   8857     1   110.1900474 564.840000
   8851   8850   8856     1   110.1900474 564.840000
   8855   8851   8867     1   108.2900466 608.353600
   8859   8845   8867     1   107.9700462 569.024000
   8868   8869   8872     1   111.5100476 526.347200
   8868   8869   8881     1   110.1900474 564.840000
   8868   8882   8888     1   110.1900474 564.840000
   8868   8890   8874     1   112.4800480 524.673600
   8869   8868   8882     1   111.5100476 526.347200
   8869   8868   8890     1   107.9700462 569.024000
   8869   8872   8873     1   111.5100476 526.347200
   8869   8872   8880     1   110.1900474 564.840000
   8872   8869   8881     1   110.1900474 564.840000
   8872   8873   8874     1   111.5100476 526.347200
   8872   8873   8879     1   110.1900474 564.840000
   8873   8872   8880     1   110.1900474 564.840000
   8873   8874   8878     1   107.9700462 569.024000
   8873   8874   8890     1   107.9700462 569.024000
   8874   8873   8879     1   110.1900474 564.840000
   8878   8874   8890     1   108.2900466 608.353600
   8882   8868   8890     1   107.9700462 569.024000
   8891   8892   8895     1   111.5100476 526.347200
   8891   8892   8904     1   110.1900474 564.840000
   8891   8905   8911     1   110.1900474 564.840000
   8891   8913   8897     1   112.4800480 524.673600
   8892   8895   8896     1   111.5100476 526.347200
   8892   8895   8903     1   110.1900474 564.840000
   8892   8891   8905     1   111.5100476 526.347200
   8892   8891   8913     1   107.9700462 569.024000
   8895   8896   8897     1   111.5100476 526.347200
   8895   8896   8902     1   110.1900474 564.840000
   8895   8892   8904     1   110.1900474 564.840000
   8896   8897   8901     1   107.9700462 569.024000
   8896   8897   8913     1   107.9700462 569.024000
   8896   8895   8903     1   110.1900474 564.840000
   8897   8896   8902     1   110.1900474 564.840000
   8901   8897   8913     1   108.2900466 608.353600
   8905   8891   8913     1   107.9700462 569.024000
   8914   8915   8918     1   111.5100476 526.347200
   8914   8915   8927     1   110.1900474 564.840000
   8914   8928   8934     1   110.1900474 564.840000
   8914   8936   8920     1   112.4800480 524.673600
   8915   8914   8928     1   111.5100476 526.347200
   8915   8914   8936     1   107.9700462 569.024000
   8915   8918   8919     1   111.5100476 526.347200
   8915   8918   8926     1   110.1900474 564.840000
   8918   8915   8927     1   110.1900474 564.840000
   8918   8919   8920     1   111.5100476 526.347200
   8918   8919   8925     1   110.1900474 564.840000
   8919   8918   8926     1   110.1900474 564.840000
   8919   8920   8924     1   107.9700462 569.024000
   8919   8920   8936     1   107.9700462 569.024000
   8920   8919   8925     1   110.1900474 564.840000
   8924   8920   8936     1   108.2900466 608.353600
   8928   8914   8936     1   107.9700462 569.024000
   8937   8938   8941     1   111.5100476 526.347200
   8937   8938   8950     1   110.1900474 564.840000
   8937   8951   8957     1   110.1900474 564.840000
   8937   8959   8943     1   112.4800480 524.673600
   8938   8941   8942     1   111.5100476 526.347200
   8938   8941   8949     1   110.1900474 564.840000
   8938   8937   8951     1   111.5100476 526.347200
   8938   8937   8959     1   107.9700462 569.024000
   8941   8942   8943     1   111.5100476 526.347200
   8941   8942   8948     1   110.1900474 564.840000
   8941   8938   8950     1   110.1900474 564.840000
   8942   8943   8947     1   107.9700462 569.024000
   8942   8943   8959     1   107.9700462 569.024000
   8942   8941   8949     1   110.1900474 564.840000
   8943   8942   8948     1   110.1900474 564.840000
   8947   8943   8959     1   108.2900466 608.353600
   8951   8937   8959     1   107.9700462 569.024000
   8960   8961   8964     1   111.5100476 526.347200
   8960   8961   8973     1   110.1900474 564.840000
   8960   8974   8980     1   110.1900474 564.840000
   8960   8982   8966     1   112.4800480 524.673600
   8961   8960   8974     1   111.5100476 526.347200
   8961   8960   8982     1   107.9700462 569.024000
   8961   8964   8965     1   111.5100476 526.347200
   8961   8964   8972     1   110.1900474 564.840000
   8964   8961   8973     1   110.1900474 564.840000
   8964   8965   8966     1   111.5100476 526.347200
   8964   8965   8971     1   110.1900474 564.840000
   8965   8964   8972     1   110.1900474 564.840000
   8965   8966   8970     1   107.9700462 569.024000
   8965   8966   8982     1   107.9700462 569.024000
   8966   8965   8971     1   110.1900474 564.840000
   8970   8966   8982     1   108.2900466 608.353600
   8974   8960   8982     1   107.9700462 569.024000
   8983   8984   8987     1   111.5100476 526.347200
   8983   8984   8996     1   110.1900474 564.840000
   8983   8997   9003     1   110.1900474 564.840000
   8983   9005   8989     1   112.4800480 524.673600
   8984   8987   8988     1   111.5100476 526.347200
   8984   8987   8995     1   110.1900474 564.840000
   8984   8983   8997     1   111.5100476 526.347200
   8984   8983   9005     1   107.9700462 569.024000
   8987   8988   8989     1   111.5100476 526.347200
   8987   8988   8994     1   110.1900474 564.840000
   8987   8984   8996     1   110.1900474 564.840000
   8988   8989   8993     1   107.9700462 569.024000
   8988   8989   9005     1   107.9700462 569.024000
   8988   8987   8995     1   110.1900474 564.840000
   8989   8988   8994     1   110.1900474 564.840000
   8993   8989   9005     1   108.2900466 608.353600
   8997   8983   9005     1   107.9700462 569.024000
   9006   9007   9010     1   111.5100476 526.347200
   9006   9007   9019     1   110.1900474 564.840000
   9006   9020   9026     1   110.1900474 564.840000
   9006   9028   9012     1   112.4800480 524.673600
   9007   9006   9020     1   111.5100476 526.347200
   9007   9006   9028     1   107.9700462 569.024000
   9007   9010   9011     1   111.5100476 526.347200
   9007   9010   9018     1   110.1900474 564.840000
   9010   9007   9019     1   110.1900474 564.840000
   9010   9011   9012     1   111.5100476 526.347200
   9010   9011   9017     1   110.1900474 564.840000
   9011   9010   9018     1   110.1900474 564.840000
   9011   9012   9016     1   107.9700462 569.024000
   9011   9012   9028     1   107.9700462 569.024000
   9012   9011   9017     1   110.1900474 564.840000
   9016   9012   9028     1   108.2900466 608.353600
   9020   9006   9028     1   107.9700462 569.024000
   9029   9030   9033     1   111.5100476 526.347200
   9029   9030   9042     1   110.1900474 564.840000
   9029   9043   9049     1   110.1900474 564.840000
   9029   9051   9035     1   112.4800480 524.673600
   9030   9033   9034     1   111.5100476 526.347200
   9030   9033   9041     1   110.1900474 564.840000
   9030   9029   9043     1   111.5100476 526.347200
   9030   9029   9051     1   107.9700462 569.024000
   9033   9034   9035     1   111.5100476 526.347200
   9033   9034   9040     1   110.1900474 564.840000
   9033   9030   9042     1   110.1900474 564.840000
   9034   9035   9039     1   107.9700462 569.024000
   9034   9035   9051     1   107.9700462 569.024000
   9034   9033   9041     1   110.1900474 564.840000
   9035   9034   9040     1   110.1900474 564.840000
   9039   9035   9051     1   108.2900466 608.353600
   9043   9029   9051     1   107.9700462 569.024000
   9052   9053   9056     1   111.5100476 526.347200
   9052   9053   9065     1   110.1900474 564.840000
   9052   9066   9072     1   110.1900474 564.840000
   9052   9074   9058     1   112.4800480 524.673600
   9053   9052   9066     1   111.5100476 526.347200
   9053   9052   9074     1   107.9700462 569.024000
   9053   9056   9057     1   111.5100476 526.347200
   9053   9056   9064     1   110.1900474 564.840000
   9056   9053   9065     1   110.1900474 564.840000
   9056   9057   9058     1   111.5100476 526.347200
   9056   9057   9063     1   110.1900474 564.840000
   9057   9056   9064     1   110.1900474 564.840000
   9057   9058   9062     1   107.9700462 569.024000
   9057   9058   9074     1   107.9700462 569.024000
   9058   9057   9063     1   110.1900474 564.840000
   9062   9058   9074     1   108.2900466 608.353600
   9066   9052   9074     1   107.9700462 569.024000
   9075   9076   9079     1   111.5100476 526.347200
   9075   9076   9088     1   110.1900474 564.840000
   9075   9089   9095     1   110.1900474 564.840000
   9075   9097   9081     1   112.4800480 524.673600
   9076   9079   9080     1   111.5100476 526.347200
   9076   9079   9087     1   110.1900474 564.840000
   9076   9075   9089     1   111.5100476 526.347200
   9076   9075   9097     1   107.9700462 569.024000
   9079   9080   9081     1   111.5100476 526.347200
   9079   9080   9086     1   110.1900474 564.840000
   9079   9076   9088     1   110.1900474 564.840000
   9080   9081   9085     1   107.9700462 569.024000
   9080   9081   9097     1   107.9700462 569.024000
   9080   9079   9087     1   110.1900474 564.840000
   9081   9080   9086     1   110.1900474 564.840000
   9085   9081   9097     1   108.2900466 608.353600
   9089   9075   9097     1   107.9700462 569.024000
   9098   9099   9102     1   111.5100476 526.347200
   9098   9099   9111     1   110.1900474 564.840000
   9098   9112   9118     1   110.1900474 564.840000
   9098   9120   9104     1   112.4800480 524.673600
   9099   9098   9112     1   111.5100476 526.347200
   9099   9098   9120     1   107.9700462 569.024000
   9099   9102   9103     1   111.5100476 526.347200
   9099   9102   9110     1   110.1900474 564.840000
   9102   9099   9111     1   110.1900474 564.840000
   9102   9103   9104     1   111.5100476 526.347200
   9102   9103   9109     1   110.1900474 564.840000
   9103   9102   9110     1   110.1900474 564.840000
   9103   9104   9108     1   107.9700462 569.024000
   9103   9104   9120     1   107.9700462 569.024000
   9104   9103   9109     1   110.1900474 564.840000
   9108   9104   9120     1   108.2900466 608.353600
   9112   9098   9120     1   107.9700462 569.024000
   9121   9122   9125     1   111.5100476 526.347200
   9121   9122   9134     1   110.1900474 564.840000
   9121   9135   9141     1   110.1900474 564.840000
   9121   9143   9127     1   112.4800480 524.673600
   9122   9125   9126     1   111.5100476 526.347200
   9122   9125   9133     1   110.1900474 564.840000
   9122   9121   9135     1   111.5100476 526.347200
   9122   9121   9143     1   107.9700462 569.024000
   9125   9126   9127     1   111.5100476 526.347200
   9125   9126   9132     1   110.1900474 564.840000
   9125   9122   9134     1   110.1900474 564.840000
   9126   9127   9131     1   107.9700462 569.024000
   9126   9127   9143     1   107.9700462 569.024000
   9126   9125   9133     1   110.1900474 564.840000
   9127   9126   9132     1   110.1900474 564.840000
   9131   9127   9143     1   108.2900466 608.353600
   9135   9121   9143     1   107.9700462 569.024000
   9144   9145   9148     1   111.5100476 526.347200
   9144   9145   9157     1   110.1900474 564.840000
   9144   9158   9164     1   110.1900474 564.840000
   9144   9166   9150     1   112.4800480 524.673600
   9145   9144   9158     1   111.5100476 526.347200
   9145   9144   9166     1   107.9700462 569.024000
   9145   9148   9149     1   111.5100476 526.347200
   9145   9148   9156     1   110.1900474 564.840000
   9148   9145   9157     1   110.1900474 564.840000
   9148   9149   9150     1   111.5100476 526.347200
   9148   9149   9155     1   110.1900474 564.840000
   9149   9148   9156     1   110.1900474 564.840000
   9149   9150   9154     1   107.9700462 569.024000
   9149   9150   9166     1   107.9700462 569.024000
   9150   9149   9155     1   110.1900474 564.840000
   9154   9150   9166     1   108.2900466 608.353600
   9158   9144   9166     1   107.9700462 569.024000
   9167   9168   9171     1   111.5100476 526.347200
   9167   9168   9180     1   110.1900474 564.840000
   9167   9181   9187     1   110.1900474 564.840000
   9167   9189   9173     1   112.4800480 524.673600
   9168   9171   9172     1   111.5100476 526.347200
   9168   9171   9179     1   110.1900474 564.840000
   9168   9167   9181     1   111.5100476 526.347200
   9168   9167   9189     1   107.9700462 569.024000
   9171   9172   9173     1   111.5100476 526.347200
   9171   9172   9178     1   110.1900474 564.840000
   9171   9168   9180     1   110.1900474 564.840000
   9172   9173   9177     1   107.9700462 569.024000
   9172   9173   9189     1   107.9700462 569.024000
   9172   9171   9179     1   110.1900474 564.840000
   9173   9172   9178     1   110.1900474 564.840000
   9177   9173   9189     1   108.2900466 608.353600
   9181   9167   9189     1   107.9700462 569.024000
   9190   9191   9194     1   111.5100476 526.347200
   9190   9191   9203     1   110.1900474 564.840000
   9190   9204   9210     1   110.1900474 564.840000
   9190   9212   9196     1   112.4800480 524.673600
   9191   9190   9204     1   111.5100476 526.347200
   9191   9190   9212     1   107.9700462 569.024000
   9191   9194   9195     1   111.5100476 526.347200
   9191   9194   9202     1   110.1900474 564.840000
   9194   9191   9203     1   110.1900474 564.840000
   9194   9195   9196     1   111.5100476 526.347200
   9194   9195   9201     1   110.1900474 564.840000
   9195   9194   9202     1   110.1900474 564.840000
   9195   9196   9200     1   107.9700462 569.024000
   9195   9196   9212     1   107.9700462 569.024000
   9196   9195   9201     1   110.1900474 564.840000
   9200   9196   9212     1   108.2900466 608.353600
   9204   9190   9212     1   107.9700462 569.024000
   9213   9214   9217     1   111.5100476 526.347200
   9213   9214   9226     1   110.1900474 564.840000
   9213   9227   9233     1   110.1900474 564.840000
   9213   9235   9219     1   112.4800480 524.673600
   9214   9217   9218     1   111.5100476 526.347200
   9214   9217   9225     1   110.1900474 564.840000
   9214   9213   9227     1   111.5100476 526.347200
   9214   9213   9235     1   107.9700462 569.024000
   9217   9218   9219     1   111.5100476 526.347200
   9217   9218   9224     1   110.1900474 564.840000
   9217   9214   9226     1   110.1900474 564.840000
   9218   9219   9223     1   107.9700462 569.024000
   9218   9219   9235     1   107.9700462 569.024000
   9218   9217   9225     1   110.1900474 564.840000
   9219   9218   9224     1   110.1900474 564.840000
   9223   9219   9235     1   108.2900466 608.353600
   9227   9213   9235     1   107.9700462 569.024000
   9236   9237   9240     1   111.5100476 526.347200
   9236   9237   9249     1   110.1900474 564.840000
   9236   9250   9256     1   110.1900474 564.840000
   9236   9258   9242     1   112.4800480 524.673600
   9237   9236   9250     1   111.5100476 526.347200
   9237   9236   9258     1   107.9700462 569.024000
   9237   9240   9241     1   111.5100476 526.347200
   9237   9240   9248     1   110.1900474 564.840000
   9240   9237   9249     1   110.1900474 564.840000
   9240   9241   9242     1   111.5100476 526.347200
   9240   9241   9247     1   110.1900474 564.840000
   9241   9240   9248     1   110.1900474 564.840000
   9241   9242   9246     1   107.9700462 569.024000
   9241   9242   9258     1   107.9700462 569.024000
   9242   9241   9247     1   110.1900474 564.840000
   9246   9242   9258     1   108.2900466 608.353600
   9250   9236   9258     1   107.9700462 569.024000
   9259   9260   9263     1   111.5100476 526.347200
   9259   9260   9272     1   110.1900474 564.840000
   9259   9273   9279     1   110.1900474 564.840000
   9259   9281   9265     1   112.4800480 524.673600
   9260   9263   9264     1   111.5100476 526.347200
   9260   9263   9271     1   110.1900474 564.840000
   9260   9259   9273     1   111.5100476 526.347200
   9260   9259   9281     1   107.9700462 569.024000
   9263   9264   9265     1   111.5100476 526.347200
   9263   9264   9270     1   110.1900474 564.840000
   9263   9260   9272     1   110.1900474 564.840000
   9264   9265   9269     1   107.9700462 569.024000
   9264   9265   9281     1   107.9700462 569.024000
   9264   9263   9271     1   110.1900474 564.840000
   9265   9264   9270     1   110.1900474 564.840000
   9269   9265   9281     1   108.2900466 608.353600
   9273   9259   9281     1   107.9700462 569.024000
   9282   9283   9286     1   111.5100476 526.347200
   9282   9283   9295     1   110.1900474 564.840000
   9282   9296   9302     1   110.1900474 564.840000
   9282   9304   9288     1   112.4800480 524.673600
   9283   9282   9296     1   111.5100476 526.347200
   9283   9282   9304     1   107.9700462 569.024000
   9283   9286   9287     1   111.5100476 526.347200
   9283   9286   9294     1   110.1900474 564.840000
   9286   9283   9295     1   110.1900474 564.840000
   9286   9287   9288     1   111.5100476 526.347200
   9286   9287   9293     1   110.1900474 564.840000
   9287   9286   9294     1   110.1900474 564.840000
   9287   9288   9292     1   107.9700462 569.024000
   9287   9288   9304     1   107.9700462 569.024000
   9288   9287   9293     1   110.1900474 564.840000
   9292   9288   9304     1   108.2900466 608.353600
   9296   9282   9304     1   107.9700462 569.024000
   9305   9306   9309     1   111.5100476 526.347200
   9305   9306   9318     1   110.1900474 564.840000
   9305   9319   9325     1   110.1900474 564.840000
   9305   9327   9311     1   112.4800480 524.673600
   9306   9309   9310     1   111.5100476 526.347200
   9306   9309   9317     1   110.1900474 564.840000
   9306   9305   9319     1   111.5100476 526.347200
   9306   9305   9327     1   107.9700462 569.024000
   9309   9310   9311     1   111.5100476 526.347200
   9309   9310   9316     1   110.1900474 564.840000
   9309   9306   9318     1   110.1900474 564.840000
   9310   9311   9315     1   107.9700462 569.024000
   9310   9311   9327     1   107.9700462 569.024000
   9310   9309   9317     1   110.1900474 564.840000
   9311   9310   9316     1   110.1900474 564.840000
   9315   9311   9327     1   108.2900466 608.353600
   9319   9305   9327     1   107.9700462 569.024000
   9328   9329   9332     1   111.5100476 526.347200
   9328   9329   9341     1   110.1900474 564.840000
   9328   9342   9348     1   110.1900474 564.840000
   9328   9350   9334     1   112.4800480 524.673600
   9329   9328   9342     1   111.5100476 526.347200
   9329   9328   9350     1   107.9700462 569.024000
   9329   9332   9333     1   111.5100476 526.347200
   9329   9332   9340     1   110.1900474 564.840000
   9332   9329   9341     1   110.1900474 564.840000
   9332   9333   9334     1   111.5100476 526.347200
   9332   9333   9339     1   110.1900474 564.840000
   9333   9332   9340     1   110.1900474 564.840000
   9333   9334   9338     1   107.9700462 569.024000
   9333   9334   9350     1   107.9700462 569.024000
   9334   9333   9339     1   110.1900474 564.840000
   9338   9334   9350     1   108.2900466 608.353600
   9342   9328   9350     1   107.9700462 569.024000
   9351   9352   9355     1   111.5100476 526.347200
   9351   9352   9364     1   110.1900474 564.840000
   9351   9365   9371     1   110.1900474 564.840000
   9351   9373   9357     1   112.4800480 524.673600
   9352   9355   9356     1   111.5100476 526.347200
   9352   9355   9363     1   110.1900474 564.840000
   9352   9351   9365     1   111.5100476 526.347200
   9352   9351   9373     1   107.9700462 569.024000
   9355   9356   9357     1   111.5100476 526.347200
   9355   9356   9362     1   110.1900474 564.840000
   9355   9352   9364     1   110.1900474 564.840000
   9356   9357   9361     1   107.9700462 569.024000
   9356   9357   9373     1   107.9700462 569.024000
   9356   9355   9363     1   110.1900474 564.840000
   9357   9356   9362     1   110.1900474 564.840000
   9361   9357   9373     1   108.2900466 608.353600
   9365   9351   9373     1   107.9700462 569.024000
   9374   9375   9378     1   111.5100476 526.347200
   9374   9375   9387     1   110.1900474 564.840000
   9374   9388   9394     1   110.1900474 564.840000
   9374   9396   9380     1   112.4800480 524.673600
   9375   9374   9388     1   111.5100476 526.347200
   9375   9374   9396     1   107.9700462 569.024000
   9375   9378   9379     1   111.5100476 526.347200
   9375   9378   9386     1   110.1900474 564.840000
   9378   9375   9387     1   110.1900474 564.840000
   9378   9379   9380     1   111.5100476 526.347200
   9378   9379   9385     1   110.1900474 564.840000
   9379   9378   9386     1   110.1900474 564.840000
   9379   9380   9384     1   107.9700462 569.024000
   9379   9380   9396     1   107.9700462 569.024000
   9380   9379   9385     1   110.1900474 564.840000
   9384   9380   9396     1   108.2900466 608.353600
   9388   9374   9396     1   107.9700462 569.024000
   9397   9398   9401     1   111.5100476 526.347200
   9397   9398   9410     1   110.1900474 564.840000
   9397   9411   9417     1   110.1900474 564.840000
   9397   9419   9403     1   112.4800480 524.673600
   9398   9401   9402     1   111.5100476 526.347200
   9398   9401   9409     1   110.1900474 564.840000
   9398   9397   9411     1   111.5100476 526.347200
   9398   9397   9419     1   107.9700462 569.024000
   9401   9402   9403     1   111.5100476 526.347200
   9401   9402   9408     1   110.1900474 564.840000
   9401   9398   9410     1   110.1900474 564.840000
   9402   9403   9407     1   107.9700462 569.024000
   9402   9403   9419     1   107.9700462 569.024000
   9402   9401   9409     1   110.1900474 564.840000
   9403   9402   9408     1   110.1900474 564.840000
   9407   9403   9419     1   108.2900466 608.353600
   9411   9397   9419     1   107.9700462 569.024000
   9420   9421   9424     1   111.5100476 526.347200
   9420   9421   9433     1   110.1900474 564.840000
   9420   9434   9440     1   110.1900474 564.840000
   9420   9442   9426     1   112.4800480 524.673600
   9421   9420   9434     1   111.5100476 526.347200
   9421   9420   9442     1   107.9700462 569.024000
   9421   9424   9425     1   111.5100476 526.347200
   9421   9424   9432     1   110.1900474 564.840000
   9424   9421   9433     1   110.1900474 564.840000
   9424   9425   9426     1   111.5100476 526.347200
   9424   9425   9431     1   110.1900474 564.840000
   9425   9424   9432     1   110.1900474 564.840000
   9425   9426   9430     1   107.9700462 569.024000
   9425   9426   9442     1   107.9700462 569.024000
   9426   9425   9431     1   110.1900474 564.840000
   9430   9426   9442     1   108.2900466 608.353600
   9434   9420   9442     1   107.9700462 569.024000
   9443   9444   9447     1   111.5100476 526.347200
   9443   9444   9456     1   110.1900474 564.840000
   9443   9457   9463     1   110.1900474 564.840000
   9443   9465   9449     1   112.4800480 524.673600
   9444   9447   9448     1   111.5100476 526.347200
   9444   9447   9455     1   110.1900474 564.840000
   9444   9443   9457     1   111.5100476 526.347200
   9444   9443   9465     1   107.9700462 569.024000
   9447   9448   9449     1   111.5100476 526.347200
   9447   9448   9454     1   110.1900474 564.840000
   9447   9444   9456     1   110.1900474 564.840000
   9448   9449   9453     1   107.9700462 569.024000
   9448   9449   9465     1   107.9700462 569.024000
   9448   9447   9455     1   110.1900474 564.840000
   9449   9448   9454     1   110.1900474 564.840000
   9453   9449   9465     1   108.2900466 608.353600
   9457   9443   9465     1   107.9700462 569.024000
   9466   9467   9470     1   111.5100476 526.347200
   9466   9467   9479     1   110.1900474 564.840000
   9466   9480   9486     1   110.1900474 564.840000
   9466   9488   9472     1   112.4800480 524.673600
   9467   9466   9480     1   111.5100476 526.347200
   9467   9466   9488     1   107.9700462 569.024000
   9467   9470   9471     1   111.5100476 526.347200
   9467   9470   9478     1   110.1900474 564.840000
   9470   9467   9479     1   110.1900474 564.840000
   9470   9471   9472     1   111.5100476 526.347200
   9470   9471   9477     1   110.1900474 564.840000
   9471   9470   9478     1   110.1900474 564.840000
   9471   9472   9476     1   107.9700462 569.024000
   9471   9472   9488     1   107.9700462 569.024000
   9472   9471   9477     1   110.1900474 564.840000
   9476   9472   9488     1   108.2900466 608.353600
   9480   9466   9488     1   107.9700462 569.024000
   9489   9490   9493     1   111.5100476 526.347200
   9489   9490   9502     1   110.1900474 564.840000
   9489   9503   9509     1   110.1900474 564.840000
   9489   9511   9495     1   112.4800480 524.673600
   9490   9493   9494     1   111.5100476 526.347200
   9490   9493   9501     1   110.1900474 564.840000
   9490   9489   9503     1   111.5100476 526.347200
   9490   9489   9511     1   107.9700462 569.024000
   9493   9494   9495     1   111.5100476 526.347200
   9493   9494   9500     1   110.1900474 564.840000
   9493   9490   9502     1   110.1900474 564.840000
   9494   9495   9499     1   107.9700462 569.024000
   9494   9495   9511     1   107.9700462 569.024000
   9494   9493   9501     1   110.1900474 564.840000
   9495   9494   9500     1   110.1900474 564.840000
   9499   9495   9511     1   108.2900466 608.353600
   9503   9489   9511     1   107.9700462 569.024000
   9512   9513   9516     1   111.5100476 526.347200
   9512   9513   9525     1   110.1900474 564.840000
   9512   9526   9532     1   110.1900474 564.840000
   9512   9534   9518     1   112.4800480 524.673600
   9513   9512   9526     1   111.5100476 526.347200
   9513   9512   9534     1   107.9700462 569.024000
   9513   9516   9517     1   111.5100476 526.347200
   9513   9516   9524     1   110.1900474 564.840000
   9516   9513   9525     1   110.1900474 564.840000
   9516   9517   9518     1   111.5100476 526.347200
   9516   9517   9523     1   110.1900474 564.840000
   9517   9516   9524     1   110.1900474 564.840000
   9517   9518   9522     1   107.9700462 569.024000
   9517   9518   9534     1   107.9700462 569.024000
   9518   9517   9523     1   110.1900474 564.840000
   9522   9518   9534     1   108.2900466 608.353600
   9526   9512   9534     1   107.9700462 569.024000
   9535   9536   9539     1   111.5100476 526.347200
   9535   9536   9548     1   110.1900474 564.840000
   9535   9549   9555     1   110.1900474 564.840000
   9535   9557   9541     1   112.4800480 524.673600
   9536   9539   9540     1   111.5100476 526.347200
   9536   9539   9547     1   110.1900474 564.840000
   9536   9535   9549     1   111.5100476 526.347200
   9536   9535   9557     1   107.9700462 569.024000
   9539   9540   9541     1   111.5100476 526.347200
   9539   9540   9546     1   110.1900474 564.840000
   9539   9536   9548     1   110.1900474 564.840000
   9540   9541   9545     1   107.9700462 569.024000
   9540   9541   9557     1   107.9700462 569.024000
   9540   9539   9547     1   110.1900474 564.840000
   9541   9540   9546     1   110.1900474 564.840000
   9545   9541   9557     1   108.2900466 608.353600
   9549   9535   9557     1   107.9700462 569.024000
   9558   9559   9562     1   111.5100476 526.347200
   9558   9559   9571     1   110.1900474 564.840000
   9558   9572   9578     1   110.1900474 564.840000
   9558   9580   9564     1   112.4800480 524.673600
   9559   9558   9572     1   111.5100476 526.347200
   9559   9558   9580     1   107.9700462 569.024000
   9559   9562   9563     1   111.5100476 526.347200
   9559   9562   9570     1   110.1900474 564.840000
   9562   9559   9571     1   110.1900474 564.840000
   9562   9563   9564     1   111.5100476 526.347200
   9562   9563   9569     1   110.1900474 564.840000
   9563   9562   9570     1   110.1900474 564.840000
   9563   9564   9568     1   107.9700462 569.024000
   9563   9564   9580     1   107.9700462 569.024000
   9564   9563   9569     1   110.1900474 564.840000
   9568   9564   9580     1   108.2900466 608.353600
   9572   9558   9580     1   107.9700462 569.024000
   9581   9582   9585     1   111.5100476 526.347200
   9581   9582   9594     1   110.1900474 564.840000
   9581   9595   9601     1   110.1900474 564.840000
   9581   9603   9587     1   112.4800480 524.673600
   9582   9585   9586     1   111.5100476 526.347200
   9582   9585   9593     1   110.1900474 564.840000
   9582   9581   9595     1   111.5100476 526.347200
   9582   9581   9603     1   107.9700462 569.024000
   9585   9586   9587     1   111.5100476 526.347200
   9585   9586   9592     1   110.1900474 564.840000
   9585   9582   9594     1   110.1900474 564.840000
   9586   9587   9591     1   107.9700462 569.024000
   9586   9587   9603     1   107.9700462 569.024000
   9586   9585   9593     1   110.1900474 564.840000
   9587   9586   9592     1   110.1900474 564.840000
   9591   9587   9603     1   108.2900466 608.353600
   9595   9581   9603     1   107.9700462 569.024000
   9604   9605   9608     1   111.5100476 526.347200
   9604   9605   9617     1   110.1900474 564.840000
   9604   9618   9624     1   110.1900474 564.840000
   9604   9626   9610     1   112.4800480 524.673600
   9605   9604   9618     1   111.5100476 526.347200
   9605   9604   9626     1   107.9700462 569.024000
   9605   9608   9609     1   111.5100476 526.347200
   9605   9608   9616     1   110.1900474 564.840000
   9608   9605   9617     1   110.1900474 564.840000
   9608   9609   9610     1   111.5100476 526.347200
   9608   9609   9615     1   110.1900474 564.840000
   9609   9608   9616     1   110.1900474 564.840000
   9609   9610   9614     1   107.9700462 569.024000
   9609   9610   9626     1   107.9700462 569.024000
   9610   9609   9615     1   110.1900474 564.840000
   9614   9610   9626     1   108.2900466 608.353600
   9618   9604   9626     1   107.9700462 569.024000
   9627   9628   9631     1   111.5100476 526.347200
   9627   9628   9640     1   110.1900474 564.840000
   9627   9641   9647     1   110.1900474 564.840000
   9627   9649   9633     1   112.4800480 524.673600
   9628   9631   9632     1   111.5100476 526.347200
   9628   9631   9639     1   110.1900474 564.840000
   9628   9627   9641     1   111.5100476 526.347200
   9628   9627   9649     1   107.9700462 569.024000
   9631   9632   9633     1   111.5100476 526.347200
   9631   9632   9638     1   110.1900474 564.840000
   9631   9628   9640     1   110.1900474 564.840000
   9632   9633   9637     1   107.9700462 569.024000
   9632   9633   9649     1   107.9700462 569.024000
   9632   9631   9639     1   110.1900474 564.840000
   9633   9632   9638     1   110.1900474 564.840000
   9637   9633   9649     1   108.2900466 608.353600
   9641   9627   9649     1   107.9700462 569.024000
   9650   9651   9654     1   111.5100476 526.347200
   9650   9651   9663     1   110.1900474 564.840000
   9650   9664   9670     1   110.1900474 564.840000
   9650   9672   9656     1   112.4800480 524.673600
   9651   9650   9664     1   111.5100476 526.347200
   9651   9650   9672     1   107.9700462 569.024000
   9651   9654   9655     1   111.5100476 526.347200
   9651   9654   9662     1   110.1900474 564.840000
   9654   9651   9663     1   110.1900474 564.840000
   9654   9655   9656     1   111.5100476 526.347200
   9654   9655   9661     1   110.1900474 564.840000
   9655   9654   9662     1   110.1900474 564.840000
   9655   9656   9660     1   107.9700462 569.024000
   9655   9656   9672     1   107.9700462 569.024000
   9656   9655   9661     1   110.1900474 564.840000
   9660   9656   9672     1   108.2900466 608.353600
   9664   9650   9672     1   107.9700462 569.024000
   9673   9674   9677     1   111.5100476 526.347200
   9673   9674   9686     1   110.1900474 564.840000
   9673   9687   9693     1   110.1900474 564.840000
   9673   9695   9679     1   112.4800480 524.673600
   9674   9677   9678     1   111.5100476 526.347200
   9674   9677   9685     1   110.1900474 564.840000
   9674   9673   9687     1   111.5100476 526.347200
   9674   9673   9695     1   107.9700462 569.024000
   9677   9678   9679     1   111.5100476 526.347200
   9677   9678   9684     1   110.1900474 564.840000
   9677   9674   9686     1   110.1900474 564.840000
   9678   9679   9683     1   107.9700462 569.024000
   9678   9679   9695     1   107.9700462 569.024000
   9678   9677   9685     1   110.1900474 564.840000
   9679   9678   9684     1   110.1900474 564.840000
   9683   9679   9695     1   108.2900466 608.353600
   9687   9673   9695     1   107.9700462 569.024000
   9696   9697   9700     1   111.5100476 526.347200
   9696   9697   9709     1   110.1900474 564.840000
   9696   9710   9716     1   110.1900474 564.840000
   9696   9718   9702     1   112.4800480 524.673600
   9697   9696   9710     1   111.5100476 526.347200
   9697   9696   9718     1   107.9700462 569.024000
   9697   9700   9701     1   111.5100476 526.347200
   9697   9700   9708     1   110.1900474 564.840000
   9700   9697   9709     1   110.1900474 564.840000
   9700   9701   9702     1   111.5100476 526.347200
   9700   9701   9707     1   110.1900474 564.840000
   9701   9700   9708     1   110.1900474 564.840000
   9701   9702   9706     1   107.9700462 569.024000
   9701   9702   9718     1   107.9700462 569.024000
   9702   9701   9707     1   110.1900474 564.840000
   9706   9702   9718     1   108.2900466 608.353600
   9710   9696   9718     1   107.9700462 569.024000
   9719   9720   9723     1   111.5100476 526.347200
   9719   9720   9732     1   110.1900474 564.840000
   9719   9733   9739     1   110.1900474 564.840000
   9719   9741   9725     1   112.4800480 524.673600
   9720   9723   9724     1   111.5100476 526.347200
   9720   9723   9731     1   110.1900474 564.840000
   9720   9719   9733     1   111.5100476 526.347200
   9720   9719   9741     1   107.9700462 569.024000
   9723   9724   9725     1   111.5100476 526.347200
   9723   9724   9730     1   110.1900474 564.840000
   9723   9720   9732     1   110.1900474 564.840000
   9724   9725   9729     1   107.9700462 569.024000
   9724   9725   9741     1   107.9700462 569.024000
   9724   9723   9731     1   110.1900474 564.840000
   9725   9724   9730     1   110.1900474 564.840000
   9729   9725   9741     1   108.2900466 608.353600
   9733   9719   9741     1   107.9700462 569.024000
   9742   9743   9746     1   111.5100476 526.347200
   9742   9743   9755     1   110.1900474 564.840000
   9742   9756   9762     1   110.1900474 564.840000
   9742   9764   9748     1   112.4800480 524.673600
   9743   9742   9756     1   111.5100476 526.347200
   9743   9742   9764     1   107.9700462 569.024000
   9743   9746   9747     1   111.5100476 526.347200
   9743   9746   9754     1   110.1900474 564.840000
   9746   9743   9755     1   110.1900474 564.840000
   9746   9747   9748     1   111.5100476 526.347200
   9746   9747   9753     1   110.1900474 564.840000
   9747   9746   9754     1   110.1900474 564.840000
   9747   9748   9752     1   107.9700462 569.024000
   9747   9748   9764     1   107.9700462 569.024000
   9748   9747   9753     1   110.1900474 564.840000
   9752   9748   9764     1   108.2900466 608.353600
   9756   9742   9764     1   107.9700462 569.024000
   9765   9766   9769     1   111.5100476 526.347200
   9765   9766   9778     1   110.1900474 564.840000
   9765   9779   9785     1   110.1900474 564.840000
   9765   9787   9771     1   112.4800480 524.673600
   9766   9769   9770     1   111.5100476 526.347200
   9766   9769   9777     1   110.1900474 564.840000
   9766   9765   9779     1   111.5100476 526.347200
   9766   9765   9787     1   107.9700462 569.024000
   9769   9770   9771     1   111.5100476 526.347200
   9769   9770   9776     1   110.1900474 564.840000
   9769   9766   9778     1   110.1900474 564.840000
   9770   9771   9775     1   107.9700462 569.024000
   9770   9771   9787     1   107.9700462 569.024000
   9770   9769   9777     1   110.1900474 564.840000
   9771   9770   9776     1   110.1900474 564.840000
   9775   9771   9787     1   108.2900466 608.353600
   9779   9765   9787     1   107.9700462 569.024000
   9788   9789   9792     1   111.5100476 526.347200
   9788   9789   9801     1   110.1900474 564.840000
   9788   9802   9808     1   110.1900474 564.840000
   9788   9810   9794     1   112.4800480 524.673600
   9789   9788   9802     1   111.5100476 526.347200
   9789   9788   9810     1   107.9700462 569.024000
   9789   9792   9793     1   111.5100476 526.347200
   9789   9792   9800     1   110.1900474 564.840000
   9792   9789   9801     1   110.1900474 564.840000
   9792   9793   9794     1   111.5100476 526.347200
   9792   9793   9799     1   110.1900474 564.840000
   9793   9792   9800     1   110.1900474 564.840000
   9793   9794   9798     1   107.9700462 569.024000
   9793   9794   9810     1   107.9700462 569.024000
   9794   9793   9799     1   110.1900474 564.840000
   9798   9794   9810     1   108.2900466 608.353600
   9802   9788   9810     1   107.9700462 569.024000
   9811   9812   9815     1   111.5100476 526.347200
   9811   9812   9824     1   110.1900474 564.840000
   9811   9825   9831     1   110.1900474 564.840000
   9811   9833   9817     1   112.4800480 524.673600
   9812   9815   9816     1   111.5100476 526.347200
   9812   9815   9823     1   110.1900474 564.840000
   9812   9811   9825     1   111.5100476 526.347200
   9812   9811   9833     1   107.9700462 569.024000
   9815   9816   9817     1   111.5100476 526.347200
   9815   9816   9822     1   110.1900474 564.840000
   9815   9812   9824     1   110.1900474 564.840000
   9816   9817   9821     1   107.9700462 569.024000
   9816   9817   9833     1   107.9700462 569.024000
   9816   9815   9823     1   110.1900474 564.840000
   9817   9816   9822     1   110.1900474 564.840000
   9821   9817   9833     1   108.2900466 608.353600
   9825   9811   9833     1   107.9700462 569.024000
   9834   9835   9838     1   111.5100476 526.347200
   9834   9835   9847     1   110.1900474 564.840000
   9834   9848   9854     1   110.1900474 564.840000
   9834   9856   9840     1   112.4800480 524.673600
   9835   9834   9848     1   111.5100476 526.347200
   9835   9834   9856     1   107.9700462 569.024000
   9835   9838   9839     1   111.5100476 526.347200
   9835   9838   9846     1   110.1900474 564.840000
   9838   9835   9847     1   110.1900474 564.840000
   9838   9839   9840     1   111.5100476 526.347200
   9838   9839   9845     1   110.1900474 564.840000
   9839   9838   9846     1   110.1900474 564.840000
   9839   9840   9844     1   107.9700462 569.024000
   9839   9840   9856     1   107.9700462 569.024000
   9840   9839   9845     1   110.1900474 564.840000
   9844   9840   9856     1   108.2900466 608.353600
   9848   9834   9856     1   107.9700462 569.024000
   9857   9858   9861     1   111.5100476 526.347200
   9857   9858   9870     1   110.1900474 564.840000
   9857   9871   9877     1   110.1900474 564.840000
   9857   9879   9863     1   112.4800480 524.673600
   9858   9861   9862     1   111.5100476 526.347200
   9858   9861   9869     1   110.1900474 564.840000
   9858   9857   9871     1   111.5100476 526.347200
   9858   9857   9879     1   107.9700462 569.024000
   9861   9862   9863     1   111.5100476 526.347200
   9861   9862   9868     1   110.1900474 564.840000
   9861   9858   9870     1   110.1900474 564.840000
   9862   9863   9867     1   107.9700462 569.024000
   9862   9863   9879     1   107.9700462 569.024000
   9862   9861   9869     1   110.1900474 564.840000
   9863   9862   9868     1   110.1900474 564.840000
   9867   9863   9879     1   108.2900466 608.353600
   9871   9857   9879     1   107.9700462 569.024000
   9880   9881   9884     1   111.5100476 526.347200
   9880   9881   9893     1   110.1900474 564.840000
   9880   9894   9900     1   110.1900474 564.840000
   9880   9902   9886     1   112.4800480 524.673600
   9881   9880   9894     1   111.5100476 526.347200
   9881   9880   9902     1   107.9700462 569.024000
   9881   9884   9885     1   111.5100476 526.347200
   9881   9884   9892     1   110.1900474 564.840000
   9884   9881   9893     1   110.1900474 564.840000
   9884   9885   9886     1   111.5100476 526.347200
   9884   9885   9891     1   110.1900474 564.840000
   9885   9884   9892     1   110.1900474 564.840000
   9885   9886   9890     1   107.9700462 569.024000
   9885   9886   9902     1   107.9700462 569.024000
   9886   9885   9891     1   110.1900474 564.840000
   9890   9886   9902     1   108.2900466 608.353600
   9894   9880   9902     1   107.9700462 569.024000
   9903   9904   9907     1   111.5100476 526.347200
   9903   9904   9916     1   110.1900474 564.840000
   9903   9917   9923     1   110.1900474 564.840000
   9903   9925   9909     1   112.4800480 524.673600
   9904   9907   9908     1   111.5100476 526.347200
   9904   9907   9915     1   110.1900474 564.840000
   9904   9903   9917     1   111.5100476 526.347200
   9904   9903   9925     1   107.9700462 569.024000
   9907   9908   9909     1   111.5100476 526.347200
   9907   9908   9914     1   110.1900474 564.840000
   9907   9904   9916     1   110.1900474 564.840000
   9908   9909   9913     1   107.9700462 569.024000
   9908   9909   9925     1   107.9700462 569.024000
   9908   9907   9915     1   110.1900474 564.840000
   9909   9908   9914     1   110.1900474 564.840000
   9913   9909   9925     1   108.2900466 608.353600
   9917   9903   9925     1   107.9700462 569.024000
      1      2      3     1   109.8800469 414.216000
      1      2      4     1   109.8800469 414.216000
      1      5      6     1   109.8800469 414.216000
      1      5      7     1   109.8800469 414.216000
      1      8      9     1   109.8800469 414.216000
      1      8     10     1   109.8800469 414.216000
      2     14     15     1   109.8000471 387.438400
      2     14     16     1   109.8000471 387.438400
      3      2     14     1   109.5600471 388.275200
      3      2      4     1   108.4600466 328.025600
      4      2     14     1   109.5600471 388.275200
      5     17     18     1   109.8000471 387.438400
      5     17     19     1   109.8000471 387.438400
      6      5     17     1   109.5600471 388.275200
      6      5      7     1   108.4600466 328.025600
      7      5     17     1   109.5600471 388.275200
      8     11     12     1   109.8000471 387.438400
      8     11     13     1   109.8000471 387.438400
      9      8     11     1   109.5600471 388.275200
      9      8     10     1   108.4600466 328.025600
     10      8     11     1   109.5600471 388.275200
     11     23     24     1   109.5600471 388.275200
     11     23     25     1   109.5600471 388.275200
     12     11     23     1   109.8000471 387.438400
     12     11     13     1   107.5800459 329.699200
     13     11     23     1   109.8000471 387.438400
     14     26     27     1   109.5600471 388.275200
     14     26     28     1   109.5600471 388.275200
     15     14     26     1   109.8000471 387.438400
     15     14     16     1   107.5800459 329.699200
     16     14     26     1   109.8000471 387.438400
     17     20     21     1   109.5600471 388.275200
     17     20     22     1   109.5600471 388.275200
     18     17     20     1   109.8000471 387.438400
     18     17     19     1   107.5800459 329.699200
     19     17     20     1   109.8000471 387.438400
     21     20     57     1   109.7800468 425.094400
     21     20     22     1   108.4600466 328.025600
     22     20     57     1   109.7800468 425.094400
     24     23     86     1   109.7800468 425.094400
     24     23     25     1   108.4600466 328.025600
     25     23     86     1   109.7800468 425.094400
     27     26    115     1   109.7800468 425.094400
     27     26     28     1   108.4600466 328.025600
     28     26    115     1   109.7800468 425.094400
     29     30     31     1   109.8800469 414.216000
     29     30     32     1   109.8800469 414.216000
     29     33     34     1   109.8800469 414.216000
     29     33     35     1   109.8800469 414.216000
     29     36     37     1   109.8800469 414.216000
     29     36     38     1   109.8800469 414.216000
     30     42     43     1   109.8000471 387.438400
     30     42     44     1   109.8000471 387.438400
     31     30     42     1   109.5600471 388.275200
     31     30     32     1   108.4600466 328.025600
     32     30     42     1   109.5600471 388.275200
     33     45     46     1   109.8000471 387.438400
     33     45     47     1   109.8000471 387.438400
     34     33     45     1   109.5600471 388.275200
     34     33     35     1   108.4600466 328.025600
     35     33     45     1   109.5600471 388.275200
     36     39     40     1   109.8000471 387.438400
     36     39     41     1   109.8000471 387.438400
     37     36     39     1   109.5600471 388.275200
     37     36     38     1   108.4600466 328.025600
     38     36     39     1   109.5600471 388.275200
     39     48     49     1   109.5600471 388.275200
     39     48     50     1   109.5600471 388.275200
     40     39     48     1   109.8000471 387.438400
     40     39     41     1   107.5800459 329.699200
     41     39     48     1   109.8000471 387.438400
     42     54     55     1   109.5600471 388.275200
     42     54     56     1   109.5600471 388.275200
     43     42     54     1   109.8000471 387.438400
     43     42     44     1   107.5800459 329.699200
     44     42     54     1   109.8000471 387.438400
     45     51     52     1   109.5600471 388.275200
     45     51     53     1   109.5600471 388.275200
     46     45     51     1   109.8000471 387.438400
     46     45     47     1   107.5800459 329.699200
     47     45     51     1   109.8000471 387.438400
     49     48     57     1   109.7800468 425.094400
     49     48     50     1   108.4600466 328.025600
     50     48     57     1   109.7800468 425.094400
     52     51    144     1   109.7800468 425.094400
     52     51     53     1   108.4600466 328.025600
     53     51    144     1   109.7800468 425.094400
     55     54    173     1   109.7800468 425.094400
     55     54     56     1   108.4600466 328.025600
     56     54    173     1   109.7800468 425.094400
     58     59     60     1   109.8800469 414.216000
     58     59     61     1   109.8800469 414.216000
     58     62     63     1   109.8800469 414.216000
     58     62     64     1   109.8800469 414.216000
     58     65     66     1   109.8800469 414.216000
     58     65     67     1   109.8800469 414.216000
     59     71     72     1   109.8000471 387.438400
     59     71     73     1   109.8000471 387.438400
     60     59     71     1   109.5600471 388.275200
     60     59     61     1   108.4600466 328.025600
     61     59     71     1   109.5600471 388.275200
     62     74     75     1   109.8000471 387.438400
     62     74     76     1   109.8000471 387.438400
     63     62     74     1   109.5600471 388.275200
     63     62     64     1   108.4600466 328.025600
     64     62     74     1   109.5600471 388.275200
     65     68     69     1   109.8000471 387.438400
     65     68     70     1   109.8000471 387.438400
     66     65     68     1   109.5600471 388.275200
     66     65     67     1   108.4600466 328.025600
     67     65     68     1   109.5600471 388.275200
     68     77     78     1   109.5600471 388.275200
     68     77     79     1   109.5600471 388.275200
     69     68     77     1   109.8000471 387.438400
     69     68     70     1   107.5800459 329.699200
     70     68     77     1   109.8000471 387.438400
     71     83     84     1   109.5600471 388.275200
     71     83     85     1   109.5600471 388.275200
     72     71     83     1   109.8000471 387.438400
     72     71     73     1   107.5800459 329.699200
     73     71     83     1   109.8000471 387.438400
     74     80     81     1   109.5600471 388.275200
     74     80     82     1   109.5600471 388.275200
     75     74     80     1   109.8000471 387.438400
     75     74     76     1   107.5800459 329.699200
     76     74     80     1   109.8000471 387.438400
     78     77     86     1   109.7800468 425.094400
     78     77     79     1   108.4600466 328.025600
     79     77     86     1   109.7800468 425.094400
     81     80    202     1   109.7800468 425.094400
     81     80     82     1   108.4600466 328.025600
     82     80    202     1   109.7800468 425.094400
     84     83    231     1   109.7800468 425.094400
     84     83     85     1   108.4600466 328.025600
     85     83    231     1   109.7800468 425.094400
     87     88     89     1   109.8800469 414.216000
     87     88     90     1   109.8800469 414.216000
     87     91     92     1   109.8800469 414.216000
     87     91     93     1   109.8800469 414.216000
     87     94     95     1   109.8800469 414.216000
     87     94     96     1   109.8800469 414.216000
     88    100    101     1   109.8000471 387.438400
     88    100    102     1   109.8000471 387.438400
     89     88    100     1   109.5600471 388.275200
     89     88     90     1   108.4600466 328.025600
     90     88    100     1   109.5600471 388.275200
     91    103    104     1   109.8000471 387.438400
     91    103    105     1   109.8000471 387.438400
     92     91    103     1   109.5600471 388.275200
     92     91     93     1   108.4600466 328.025600
     93     91    103     1   109.5600471 388.275200
     94     97     98     1   109.8000471 387.438400
     94     97     99     1   109.8000471 387.438400
     95     94     97     1   109.5600471 388.275200
     95     94     96     1   108.4600466 328.025600
     96     94     97     1   109.5600471 388.275200
     97    106    107     1   109.5600471 388.275200
     97    106    108     1   109.5600471 388.275200
     98     97    106     1   109.8000471 387.438400
     98     97     99     1   107.5800459 329.699200
     99     97    106     1   109.8000471 387.438400
    100    112    113     1   109.5600471 388.275200
    100    112    114     1   109.5600471 388.275200
    101    100    112     1   109.8000471 387.438400
    101    100    102     1   107.5800459 329.699200
    102    100    112     1   109.8000471 387.438400
    103    109    110     1   109.5600471 388.275200
    103    109    111     1   109.5600471 388.275200
    104    103    109     1   109.8000471 387.438400
    104    103    105     1   107.5800459 329.699200
    105    103    109     1   109.8000471 387.438400
    107    106    115     1   109.7800468 425.094400
    107    106    108     1   108.4600466 328.025600
    108    106    115     1   109.7800468 425.094400
    110    109    260     1   109.7800468 425.094400
    110    109    111     1   108.4600466 328.025600
    111    109    260     1   109.7800468 425.094400
    113    112    289     1   109.7800468 425.094400
    113    112    114     1   108.4600466 328.025600
    114    112    289     1   109.7800468 425.094400
    116    117    118     1   109.8800469 414.216000
    116    117    119     1   109.8800469 414.216000
    116    120    121     1   109.8800469 414.216000
    116    120    122     1   109.8800469 414.216000
    116    123    124     1   109.8800469 414.216000
    116    123    125     1   109.8800469 414.216000
    117    129    130     1   109.8000471 387.438400
    117    129    131     1   109.8000471 387.438400
    118    117    129     1   109.5600471 388.275200
    118    117    119     1   108.4600466 328.025600
    119    117    129     1   109.5600471 388.275200
    120    132    133     1   109.8000471 387.438400
    120    132    134     1   109.8000471 387.438400
    121    120    132     1   109.5600471 388.275200
    121    120    122     1   108.4600466 328.025600
    122    120    132     1   109.5600471 388.275200
    123    126    127     1   109.8000471 387.438400
    123    126    128     1   109.8000471 387.438400
    124    123    126     1   109.5600471 388.275200
    124    123    125     1   108.4600466 328.025600
    125    123    126     1   109.5600471 388.275200
    126    135    136     1   109.5600471 388.275200
    126    135    137     1   109.5600471 388.275200
    127    126    135     1   109.8000471 387.438400
    127    126    128     1   107.5800459 329.699200
    128    126    135     1   109.8000471 387.438400
    129    141    142     1   109.5600471 388.275200
    129    141    143     1   109.5600471 388.275200
    130    129    141     1   109.8000471 387.438400
    130    129    131     1   107.5800459 329.699200
    131    129    141     1   109.8000471 387.438400
    132    138    139     1   109.5600471 388.275200
    132    138    140     1   109.5600471 388.275200
    133    132    138     1   109.8000471 387.438400
    133    132    134     1   107.5800459 329.699200
    134    132    138     1   109.8000471 387.438400
    136    135    144     1   109.7800468 425.094400
    136    135    137     1   108.4600466 328.025600
    137    135    144     1   109.7800468 425.094400
    139    138    318     1   109.7800468 425.094400
    139    138    140     1   108.4600466 328.025600
    140    138    318     1   109.7800468 425.094400
    142    141    347     1   109.7800468 425.094400
    142    141    143     1   108.4600466 328.025600
    143    141    347     1   109.7800468 425.094400
    145    146    147     1   109.8800469 414.216000
    145    146    148     1   109.8800469 414.216000
    145    149    150     1   109.8800469 414.216000
    145    149    151     1   109.8800469 414.216000
    145    152    153     1   109.8800469 414.216000
    145    152    154     1   109.8800469 414.216000
    146    158    159     1   109.8000471 387.438400
    146    158    160     1   109.8000471 387.438400
    147    146    158     1   109.5600471 388.275200
    147    146    148     1   108.4600466 328.025600
    148    146    158     1   109.5600471 388.275200
    149    161    162     1   109.8000471 387.438400
    149    161    163     1   109.8000471 387.438400
    150    149    161     1   109.5600471 388.275200
    150    149    151     1   108.4600466 328.025600
    151    149    161     1   109.5600471 388.275200
    152    155    156     1   109.8000471 387.438400
    152    155    157     1   109.8000471 387.438400
    153    152    155     1   109.5600471 388.275200
    153    152    154     1   108.4600466 328.025600
    154    152    155     1   109.5600471 388.275200
    155    164    165     1   109.5600471 388.275200
    155    164    166     1   109.5600471 388.275200
    156    155    164     1   109.8000471 387.438400
    156    155    157     1   107.5800459 329.699200
    157    155    164     1   109.8000471 387.438400
    158    170    171     1   109.5600471 388.275200
    158    170    172     1   109.5600471 388.275200
    159    158    170     1   109.8000471 387.438400
    159    158    160     1   107.5800459 329.699200
    160    158    170     1   109.8000471 387.438400
    161    167    168     1   109.5600471 388.275200
    161    167    169     1   109.5600471 388.275200
    162    161    167     1   109.8000471 387.438400
    162    161    163     1   107.5800459 329.699200
    163    161    167     1   109.8000471 387.438400
    165    164    173     1   109.7800468 425.094400
    165    164    166     1   108.4600466 328.025600
    166    164    173     1   109.7800468 425.094400
    168    167    376     1   109.7800468 425.094400
    168    167    169     1   108.4600466 328.025600
    169    167    376     1   109.7800468 425.094400
    171    170    405     1   109.7800468 425.094400
    171    170    172     1   108.4600466 328.025600
    172    170    405     1   109.7800468 425.094400
    174    175    176     1   109.8800469 414.216000
    174    175    177     1   109.8800469 414.216000
    174    178    179     1   109.8800469 414.216000
    174    178    180     1   109.8800469 414.216000
    174    181    182     1   109.8800469 414.216000
    174    181    183     1   109.8800469 414.216000
    175    187    188     1   109.8000471 387.438400
    175    187    189     1   109.8000471 387.438400
    176    175    187     1   109.5600471 388.275200
    176    175    177     1   108.4600466 328.025600
    177    175    187     1   109.5600471 388.275200
    178    190    191     1   109.8000471 387.438400
    178    190    192     1   109.8000471 387.438400
    179    178    190     1   109.5600471 388.275200
    179    178    180     1   108.4600466 328.025600
    180    178    190     1   109.5600471 388.275200
    181    184    185     1   109.8000471 387.438400
    181    184    186     1   109.8000471 387.438400
    182    181    184     1   109.5600471 388.275200
    182    181    183     1   108.4600466 328.025600
    183    181    184     1   109.5600471 388.275200
    184    193    194     1   109.5600471 388.275200
    184    193    195     1   109.5600471 388.275200
    185    184    193     1   109.8000471 387.438400
    185    184    186     1   107.5800459 329.699200
    186    184    193     1   109.8000471 387.438400
    187    199    200     1   109.5600471 388.275200
    187    199    201     1   109.5600471 388.275200
    188    187    199     1   109.8000471 387.438400
    188    187    189     1   107.5800459 329.699200
    189    187    199     1   109.8000471 387.438400
    190    196    197     1   109.5600471 388.275200
    190    196    198     1   109.5600471 388.275200
    191    190    196     1   109.8000471 387.438400
    191    190    192     1   107.5800459 329.699200
    192    190    196     1   109.8000471 387.438400
    194    193    202     1   109.7800468 425.094400
    194    193    195     1   108.4600466 328.025600
    195    193    202     1   109.7800468 425.094400
    197    196    434     1   109.7800468 425.094400
    197    196    198     1   108.4600466 328.025600
    198    196    434     1   109.7800468 425.094400
    200    199    463     1   109.7800468 425.094400
    200    199    201     1   108.4600466 328.025600
    201    199    463     1   109.7800468 425.094400
    203    204    205     1   109.8800469 414.216000
    203    204    206     1   109.8800469 414.216000
    203    207    208     1   109.8800469 414.216000
    203    207    209     1   109.8800469 414.216000
    203    210    211     1   109.8800469 414.216000
    203    210    212     1   109.8800469 414.216000
    204    216    217     1   109.8000471 387.438400
    204    216    218     1   109.8000471 387.438400
    205    204    216     1   109.5600471 388.275200
    205    204    206     1   108.4600466 328.025600
    206    204    216     1   109.5600471 388.275200
    207    219    220     1   109.8000471 387.438400
    207    219    221     1   109.8000471 387.438400
    208    207    219     1   109.5600471 388.275200
    208    207    209     1   108.4600466 328.025600
    209    207    219     1   109.5600471 388.275200
    210    213    214     1   109.8000471 387.438400
    210    213    215     1   109.8000471 387.438400
    211    210    213     1   109.5600471 388.275200
    211    210    212     1   108.4600466 328.025600
    212    210    213     1   109.5600471 388.275200
    213    222    223     1   109.5600471 388.275200
    213    222    224     1   109.5600471 388.275200
    214    213    222     1   109.8000471 387.438400
    214    213    215     1   107.5800459 329.699200
    215    213    222     1   109.8000471 387.438400
    216    228    229     1   109.5600471 388.275200
    216    228    230     1   109.5600471 388.275200
    217    216    228     1   109.8000471 387.438400
    217    216    218     1   107.5800459 329.699200
    218    216    228     1   109.8000471 387.438400
    219    225    226     1   109.5600471 388.275200
    219    225    227     1   109.5600471 388.275200
    220    219    225     1   109.8000471 387.438400
    220    219    221     1   107.5800459 329.699200
    221    219    225     1   109.8000471 387.438400
    223    222    231     1   109.7800468 425.094400
    223    222    224     1   108.4600466 328.025600
    224    222    231     1   109.7800468 425.094400
    226    225    492     1   109.7800468 425.094400
    226    225    227     1   108.4600466 328.025600
    227    225    492     1   109.7800468 425.094400
    229    228    521     1   109.7800468 425.094400
    229    228    230     1   108.4600466 328.025600
    230    228    521     1   109.7800468 425.094400
    232    233    234     1   109.8800469 414.216000
    232    233    235     1   109.8800469 414.216000
    232    236    237     1   109.8800469 414.216000
    232    236    238     1   109.8800469 414.216000
    232    239    240     1   109.8800469 414.216000
    232    239    241     1   109.8800469 414.216000
    233    245    246     1   109.8000471 387.438400
    233    245    247     1   109.8000471 387.438400
    234    233    245     1   109.5600471 388.275200
    234    233    235     1   108.4600466 328.025600
    235    233    245     1   109.5600471 388.275200
    236    248    249     1   109.8000471 387.438400
    236    248    250     1   109.8000471 387.438400
    237    236    248     1   109.5600471 388.275200
    237    236    238     1   108.4600466 328.025600
    238    236    248     1   109.5600471 388.275200
    239    242    243     1   109.8000471 387.438400
    239    242    244     1   109.8000471 387.438400
    240    239    242     1   109.5600471 388.275200
    240    239    241     1   108.4600466 328.025600
    241    239    242     1   109.5600471 388.275200
    242    251    252     1   109.5600471 388.275200
    242    251    253     1   109.5600471 388.275200
    243    242    251     1   109.8000471 387.438400
    243    242    244     1   107.5800459 329.699200
    244    242    251     1   109.8000471 387.438400
    245    257    258     1   109.5600471 388.275200
    245    257    259     1   109.5600471 388.275200
    246    245    257     1   109.8000471 387.438400
    246    245    247     1   107.5800459 329.699200
    247    245    257     1   109.8000471 387.438400
    248    254    255     1   109.5600471 388.275200
    248    254    256     1   109.5600471 388.275200
    249    248    254     1   109.8000471 387.438400
    249    248    250     1   107.5800459 329.699200
    250    248    254     1   109.8000471 387.438400
    252    251    260     1   109.7800468 425.094400
    252    251    253     1   108.4600466 328.025600
    253    251    260     1   109.7800468 425.094400
    255    254    550     1   109.7800468 425.094400
    255    254    256     1   108.4600466 328.025600
    256    254    550     1   109.7800468 425.094400
    258    257    579     1   109.7800468 425.094400
    258    257    259     1   108.4600466 328.025600
    259    257    579     1   109.7800468 425.094400
    261    262    263     1   109.8800469 414.216000
    261    262    264     1   109.8800469 414.216000
    261    265    266     1   109.8800469 414.216000
    261    265    267     1   109.8800469 414.216000
    261    268    269     1   109.8800469 414.216000
    261    268    270     1   109.8800469 414.216000
    262    274    275     1   109.8000471 387.438400
    262    274    276     1   109.8000471 387.438400
    263    262    274     1   109.5600471 388.275200
    263    262    264     1   108.4600466 328.025600
    264    262    274     1   109.5600471 388.275200
    265    277    278     1   109.8000471 387.438400
    265    277    279     1   109.8000471 387.438400
    266    265    277     1   109.5600471 388.275200
    266    265    267     1   108.4600466 328.025600
    267    265    277     1   109.5600471 388.275200
    268    271    272     1   109.8000471 387.438400
    268    271    273     1   109.8000471 387.438400
    269    268    271     1   109.5600471 388.275200
    269    268    270     1   108.4600466 328.025600
    270    268    271     1   109.5600471 388.275200
    271    280    281     1   109.5600471 388.275200
    271    280    282     1   109.5600471 388.275200
    272    271    280     1   109.8000471 387.438400
    272    271    273     1   107.5800459 329.699200
    273    271    280     1   109.8000471 387.438400
    274    286    287     1   109.5600471 388.275200
    274    286    288     1   109.5600471 388.275200
    275    274    286     1   109.8000471 387.438400
    275    274    276     1   107.5800459 329.699200
    276    274    286     1   109.8000471 387.438400
    277    283    284     1   109.5600471 388.275200
    277    283    285     1   109.5600471 388.275200
    278    277    283     1   109.8000471 387.438400
    278    277    279     1   107.5800459 329.699200
    279    277    283     1   109.8000471 387.438400
    281    280    289     1   109.7800468 425.094400
    281    280    282     1   108.4600466 328.025600
    282    280    289     1   109.7800468 425.094400
    284    283    608     1   109.7800468 425.094400
    284    283    285     1   108.4600466 328.025600
    285    283    608     1   109.7800468 425.094400
    287    286    637     1   109.7800468 425.094400
    287    286    288     1   108.4600466 328.025600
    288    286    637     1   109.7800468 425.094400
    290    291    292     1   109.8800469 414.216000
    290    291    293     1   109.8800469 414.216000
    290    294    295     1   109.8800469 414.216000
    290    294    296     1   109.8800469 414.216000
    290    297    298     1   109.8800469 414.216000
    290    297    299     1   109.8800469 414.216000
    291    303    304     1   109.8000471 387.438400
    291    303    305     1   109.8000471 387.438400
    292    291    303     1   109.5600471 388.275200
    292    291    293     1   108.4600466 328.025600
    293    291    303     1   109.5600471 388.275200
    294    306    307     1   109.8000471 387.438400
    294    306    308     1   109.8000471 387.438400
    295    294    306     1   109.5600471 388.275200
    295    294    296     1   108.4600466 328.025600
    296    294    306     1   109.5600471 388.275200
    297    300    301     1   109.8000471 387.438400
    297    300    302     1   109.8000471 387.438400
    298    297    300     1   109.5600471 388.275200
    298    297    299     1   108.4600466 328.025600
    299    297    300     1   109.5600471 388.275200
    300    309    310     1   109.5600471 388.275200
    300    309    311     1   109.5600471 388.275200
    301    300    309     1   109.8000471 387.438400
    301    300    302     1   107.5800459 329.699200
    302    300    309     1   109.8000471 387.438400
    303    315    316     1   109.5600471 388.275200
    303    315    317     1   109.5600471 388.275200
    304    303    315     1   109.8000471 387.438400
    304    303    305     1   107.5800459 329.699200
    305    303    315     1   109.8000471 387.438400
    306    312    313     1   109.5600471 388.275200
    306    312    314     1   109.5600471 388.275200
    307    306    312     1   109.8000471 387.438400
    307    306    308     1   107.5800459 329.699200
    308    306    312     1   109.8000471 387.438400
    310    309    318     1   109.7800468 425.094400
    310    309    311     1   108.4600466 328.025600
    311    309    318     1   109.7800468 425.094400
    313    312    666     1   109.7800468 425.094400
    313    312    314     1   108.4600466 328.025600
    314    312    666     1   109.7800468 425.094400
    316    315    695     1   109.7800468 425.094400
    316    315    317     1   108.4600466 328.025600
    317    315    695     1   109.7800468 425.094400
    319    320    321     1   109.8800469 414.216000
    319    320    322     1   109.8800469 414.216000
    319    323    324     1   109.8800469 414.216000
    319    323    325     1   109.8800469 414.216000
    319    326    327     1   109.8800469 414.216000
    319    326    328     1   109.8800469 414.216000
    320    332    333     1   109.8000471 387.438400
    320    332    334     1   109.8000471 387.438400
    321    320    332     1   109.5600471 388.275200
    321    320    322     1   108.4600466 328.025600
    322    320    332     1   109.5600471 388.275200
    323    335    336     1   109.8000471 387.438400
    323    335    337     1   109.8000471 387.438400
    324    323    335     1   109.5600471 388.275200
    324    323    325     1   108.4600466 328.025600
    325    323    335     1   109.5600471 388.275200
    326    329    330     1   109.8000471 387.438400
    326    329    331     1   109.8000471 387.438400
    327    326    329     1   109.5600471 388.275200
    327    326    328     1   108.4600466 328.025600
    328    326    329     1   109.5600471 388.275200
    329    338    339     1   109.5600471 388.275200
    329    338    340     1   109.5600471 388.275200
    330    329    338     1   109.8000471 387.438400
    330    329    331     1   107.5800459 329.699200
    331    329    338     1   109.8000471 387.438400
    332    344    345     1   109.5600471 388.275200
    332    344    346     1   109.5600471 388.275200
    333    332    344     1   109.8000471 387.438400
    333    332    334     1   107.5800459 329.699200
    334    332    344     1   109.8000471 387.438400
    335    341    342     1   109.5600471 388.275200
    335    341    343     1   109.5600471 388.275200
    336    335    341     1   109.8000471 387.438400
    336    335    337     1   107.5800459 329.699200
    337    335    341     1   109.8000471 387.438400
    339    338    347     1   109.7800468 425.094400
    339    338    340     1   108.4600466 328.025600
    340    338    347     1   109.7800468 425.094400
    342    341    724     1   109.7800468 425.094400
    342    341    343     1   108.4600466 328.025600
    343    341    724     1   109.7800468 425.094400
    345    344    753     1   109.7800468 425.094400
    345    344    346     1   108.4600466 328.025600
    346    344    753     1   109.7800468 425.094400
    348    349    350     1   109.8800469 414.216000
    348    349    351     1   109.8800469 414.216000
    348    352    353     1   109.8800469 414.216000
    348    352    354     1   109.8800469 414.216000
    348    355    356     1   109.8800469 414.216000
    348    355    357     1   109.8800469 414.216000
    349    361    362     1   109.8000471 387.438400
    349    361    363     1   109.8000471 387.438400
    350    349    361     1   109.5600471 388.275200
    350    349    351     1   108.4600466 328.025600
    351    349    361     1   109.5600471 388.275200
    352    364    365     1   109.8000471 387.438400
    352    364    366     1   109.8000471 387.438400
    353    352    364     1   109.5600471 388.275200
    353    352    354     1   108.4600466 328.025600
    354    352    364     1   109.5600471 388.275200
    355    358    359     1   109.8000471 387.438400
    355    358    360     1   109.8000471 387.438400
    356    355    358     1   109.5600471 388.275200
    356    355    357     1   108.4600466 328.025600
    357    355    358     1   109.5600471 388.275200
    358    367    368     1   109.5600471 388.275200
    358    367    369     1   109.5600471 388.275200
    359    358    367     1   109.8000471 387.438400
    359    358    360     1   107.5800459 329.699200
    360    358    367     1   109.8000471 387.438400
    361    373    374     1   109.5600471 388.275200
    361    373    375     1   109.5600471 388.275200
    362    361    373     1   109.8000471 387.438400
    362    361    363     1   107.5800459 329.699200
    363    361    373     1   109.8000471 387.438400
    364    370    371     1   109.5600471 388.275200
    364    370    372     1   109.5600471 388.275200
    365    364    370     1   109.8000471 387.438400
    365    364    366     1   107.5800459 329.699200
    366    364    370     1   109.8000471 387.438400
    368    367    376     1   109.7800468 425.094400
    368    367    369     1   108.4600466 328.025600
    369    367    376     1   109.7800468 425.094400
    371    370    782     1   109.7800468 425.094400
    371    370    372     1   108.4600466 328.025600
    372    370    782     1   109.7800468 425.094400
    374    373    811     1   109.7800468 425.094400
    374    373    375     1   108.4600466 328.025600
    375    373    811     1   109.7800468 425.094400
    377    378    379     1   109.8800469 414.216000
    377    378    380     1   109.8800469 414.216000
    377    381    382     1   109.8800469 414.216000
    377    381    383     1   109.8800469 414.216000
    377    384    385     1   109.8800469 414.216000
    377    384    386     1   109.8800469 414.216000
    378    390    391     1   109.8000471 387.438400
    378    390    392     1   109.8000471 387.438400
    379    378    390     1   109.5600471 388.275200
    379    378    380     1   108.4600466 328.025600
    380    378    390     1   109.5600471 388.275200
    381    393    394     1   109.8000471 387.438400
    381    393    395     1   109.8000471 387.438400
    382    381    393     1   109.5600471 388.275200
    382    381    383     1   108.4600466 328.025600
    383    381    393     1   109.5600471 388.275200
    384    387    388     1   109.8000471 387.438400
    384    387    389     1   109.8000471 387.438400
    385    384    387     1   109.5600471 388.275200
    385    384    386     1   108.4600466 328.025600
    386    384    387     1   109.5600471 388.275200
    387    396    397     1   109.5600471 388.275200
    387    396    398     1   109.5600471 388.275200
    388    387    396     1   109.8000471 387.438400
    388    387    389     1   107.5800459 329.699200
    389    387    396     1   109.8000471 387.438400
    390    402    403     1   109.5600471 388.275200
    390    402    404     1   109.5600471 388.275200
    391    390    402     1   109.8000471 387.438400
    391    390    392     1   107.5800459 329.699200
    392    390    402     1   109.8000471 387.438400
    393    399    400     1   109.5600471 388.275200
    393    399    401     1   109.5600471 388.275200
    394    393    399     1   109.8000471 387.438400
    394    393    395     1   107.5800459 329.699200
    395    393    399     1   109.8000471 387.438400
    397    396    405     1   109.7800468 425.094400
    397    396    398     1   108.4600466 328.025600
    398    396    405     1   109.7800468 425.094400
    400    399    840     1   109.7800468 425.094400
    400    399    401     1   108.4600466 328.025600
    401    399    840     1   109.7800468 425.094400
    403    402    869     1   109.7800468 425.094400
    403    402    404     1   108.4600466 328.025600
    404    402    869     1   109.7800468 425.094400
    406    407    408     1   109.8800469 414.216000
    406    407    409     1   109.8800469 414.216000
    406    410    411     1   109.8800469 414.216000
    406    410    412     1   109.8800469 414.216000
    406    413    414     1   109.8800469 414.216000
    406    413    415     1   109.8800469 414.216000
    407    419    420     1   109.8000471 387.438400
    407    419    421     1   109.8000471 387.438400
    408    407    419     1   109.5600471 388.275200
    408    407    409     1   108.4600466 328.025600
    409    407    419     1   109.5600471 388.275200
    410    422    423     1   109.8000471 387.438400
    410    422    424     1   109.8000471 387.438400
    411    410    422     1   109.5600471 388.275200
    411    410    412     1   108.4600466 328.025600
    412    410    422     1   109.5600471 388.275200
    413    416    417     1   109.8000471 387.438400
    413    416    418     1   109.8000471 387.438400
    414    413    416     1   109.5600471 388.275200
    414    413    415     1   108.4600466 328.025600
    415    413    416     1   109.5600471 388.275200
    416    425    426     1   109.5600471 388.275200
    416    425    427     1   109.5600471 388.275200
    417    416    425     1   109.8000471 387.438400
    417    416    418     1   107.5800459 329.699200
    418    416    425     1   109.8000471 387.438400
    419    431    432     1   109.5600471 388.275200
    419    431    433     1   109.5600471 388.275200
    420    419    431     1   109.8000471 387.438400
    420    419    421     1   107.5800459 329.699200
    421    419    431     1   109.8000471 387.438400
    422    428    429     1   109.5600471 388.275200
    422    428    430     1   109.5600471 388.275200
    423    422    428     1   109.8000471 387.438400
    423    422    424     1   107.5800459 329.699200
    424    422    428     1   109.8000471 387.438400
    426    425    434     1   109.7800468 425.094400
    426    425    427     1   108.4600466 328.025600
    427    425    434     1   109.7800468 425.094400
    429    428    898     1   109.7800468 425.094400
    429    428    430     1   108.4600466 328.025600
    430    428    898     1   109.7800468 425.094400
    432    431    927     1   109.7800468 425.094400
    432    431    433     1   108.4600466 328.025600
    433    431    927     1   109.7800468 425.094400
    435    436    437     1   109.8800469 414.216000
    435    436    438     1   109.8800469 414.216000
    435    439    440     1   109.8800469 414.216000
    435    439    441     1   109.8800469 414.216000
    435    442    443     1   109.8800469 414.216000
    435    442    444     1   109.8800469 414.216000
    436    448    449     1   109.8000471 387.438400
    436    448    450     1   109.8000471 387.438400
    437    436    448     1   109.5600471 388.275200
    437    436    438     1   108.4600466 328.025600
    438    436    448     1   109.5600471 388.275200
    439    451    452     1   109.8000471 387.438400
    439    451    453     1   109.8000471 387.438400
    440    439    451     1   109.5600471 388.275200
    440    439    441     1   108.4600466 328.025600
    441    439    451     1   109.5600471 388.275200
    442    445    446     1   109.8000471 387.438400
    442    445    447     1   109.8000471 387.438400
    443    442    445     1   109.5600471 388.275200
    443    442    444     1   108.4600466 328.025600
    444    442    445     1   109.5600471 388.275200
    445    454    455     1   109.5600471 388.275200
    445    454    456     1   109.5600471 388.275200
    446    445    454     1   109.8000471 387.438400
    446    445    447     1   107.5800459 329.699200
    447    445    454     1   109.8000471 387.438400
    448    460    461     1   109.5600471 388.275200
    448    460    462     1   109.5600471 388.275200
    449    448    460     1   109.8000471 387.438400
    449    448    450     1   107.5800459 329.699200
    450    448    460     1   109.8000471 387.438400
    451    457    458     1   109.5600471 388.275200
    451    457    459     1   109.5600471 388.275200
    452    451    457     1   109.8000471 387.438400
    452    451    453     1   107.5800459 329.699200
    453    451    457     1   109.8000471 387.438400
    455    454    463     1   109.7800468 425.094400
    455    454    456     1   108.4600466 328.025600
    456    454    463     1   109.7800468 425.094400
    458    457    956     1   109.7800468 425.094400
    458    457    459     1   108.4600466 328.025600
    459    457    956     1   109.7800468 425.094400
    461    460    985     1   109.7800468 425.094400
    461    460    462     1   108.4600466 328.025600
    462    460    985     1   109.7800468 425.094400
    464    465    466     1   109.8800469 414.216000
    464    465    467     1   109.8800469 414.216000
    464    468    469     1   109.8800469 414.216000
    464    468    470     1   109.8800469 414.216000
    464    471    472     1   109.8800469 414.216000
    464    471    473     1   109.8800469 414.216000
    465    477    478     1   109.8000471 387.438400
    465    477    479     1   109.8000471 387.438400
    466    465    477     1   109.5600471 388.275200
    466    465    467     1   108.4600466 328.025600
    467    465    477     1   109.5600471 388.275200
    468    480    481     1   109.8000471 387.438400
    468    480    482     1   109.8000471 387.438400
    469    468    480     1   109.5600471 388.275200
    469    468    470     1   108.4600466 328.025600
    470    468    480     1   109.5600471 388.275200
    471    474    475     1   109.8000471 387.438400
    471    474    476     1   109.8000471 387.438400
    472    471    474     1   109.5600471 388.275200
    472    471    473     1   108.4600466 328.025600
    473    471    474     1   109.5600471 388.275200
    474    483    484     1   109.5600471 388.275200
    474    483    485     1   109.5600471 388.275200
    475    474    483     1   109.8000471 387.438400
    475    474    476     1   107.5800459 329.699200
    476    474    483     1   109.8000471 387.438400
    477    489    490     1   109.5600471 388.275200
    477    489    491     1   109.5600471 388.275200
    478    477    489     1   109.8000471 387.438400
    478    477    479     1   107.5800459 329.699200
    479    477    489     1   109.8000471 387.438400
    480    486    487     1   109.5600471 388.275200
    480    486    488     1   109.5600471 388.275200
    481    480    486     1   109.8000471 387.438400
    481    480    482     1   107.5800459 329.699200
    482    480    486     1   109.8000471 387.438400
    484    483    492     1   109.7800468 425.094400
    484    483    485     1   108.4600466 328.025600
    485    483    492     1   109.7800468 425.094400
    487    486   1014     1   109.7800468 425.094400
    487    486    488     1   108.4600466 328.025600
    488    486   1014     1   109.7800468 425.094400
    490    489   1043     1   109.7800468 425.094400
    490    489    491     1   108.4600466 328.025600
    491    489   1043     1   109.7800468 425.094400
    493    494    495     1   109.8800469 414.216000
    493    494    496     1   109.8800469 414.216000
    493    497    498     1   109.8800469 414.216000
    493    497    499     1   109.8800469 414.216000
    493    500    501     1   109.8800469 414.216000
    493    500    502     1   109.8800469 414.216000
    494    506    507     1   109.8000471 387.438400
    494    506    508     1   109.8000471 387.438400
    495    494    506     1   109.5600471 388.275200
    495    494    496     1   108.4600466 328.025600
    496    494    506     1   109.5600471 388.275200
    497    509    510     1   109.8000471 387.438400
    497    509    511     1   109.8000471 387.438400
    498    497    509     1   109.5600471 388.275200
    498    497    499     1   108.4600466 328.025600
    499    497    509     1   109.5600471 388.275200
    500    503    504     1   109.8000471 387.438400
    500    503    505     1   109.8000471 387.438400
    501    500    503     1   109.5600471 388.275200
    501    500    502     1   108.4600466 328.025600
    502    500    503     1   109.5600471 388.275200
    503    512    513     1   109.5600471 388.275200
    503    512    514     1   109.5600471 388.275200
    504    503    512     1   109.8000471 387.438400
    504    503    505     1   107.5800459 329.699200
    505    503    512     1   109.8000471 387.438400
    506    518    519     1   109.5600471 388.275200
    506    518    520     1   109.5600471 388.275200
    507    506    518     1   109.8000471 387.438400
    507    506    508     1   107.5800459 329.699200
    508    506    518     1   109.8000471 387.438400
    509    515    516     1   109.5600471 388.275200
    509    515    517     1   109.5600471 388.275200
    510    509    515     1   109.8000471 387.438400
    510    509    511     1   107.5800459 329.699200
    511    509    515     1   109.8000471 387.438400
    513    512    521     1   109.7800468 425.094400
    513    512    514     1   108.4600466 328.025600
    514    512    521     1   109.7800468 425.094400
    516    515   1072     1   109.7800468 425.094400
    516    515    517     1   108.4600466 328.025600
    517    515   1072     1   109.7800468 425.094400
    519    518   1101     1   109.7800468 425.094400
    519    518    520     1   108.4600466 328.025600
    520    518   1101     1   109.7800468 425.094400
    522    523    524     1   109.8800469 414.216000
    522    523    525     1   109.8800469 414.216000
    522    526    527     1   109.8800469 414.216000
    522    526    528     1   109.8800469 414.216000
    522    529    530     1   109.8800469 414.216000
    522    529    531     1   109.8800469 414.216000
    523    535    536     1   109.8000471 387.438400
    523    535    537     1   109.8000471 387.438400
    524    523    535     1   109.5600471 388.275200
    524    523    525     1   108.4600466 328.025600
    525    523    535     1   109.5600471 388.275200
    526    538    539     1   109.8000471 387.438400
    526    538    540     1   109.8000471 387.438400
    527    526    538     1   109.5600471 388.275200
    527    526    528     1   108.4600466 328.025600
    528    526    538     1   109.5600471 388.275200
    529    532    533     1   109.8000471 387.438400
    529    532    534     1   109.8000471 387.438400
    530    529    532     1   109.5600471 388.275200
    530    529    531     1   108.4600466 328.025600
    531    529    532     1   109.5600471 388.275200
    532    541    542     1   109.5600471 388.275200
    532    541    543     1   109.5600471 388.275200
    533    532    541     1   109.8000471 387.438400
    533    532    534     1   107.5800459 329.699200
    534    532    541     1   109.8000471 387.438400
    535    547    548     1   109.5600471 388.275200
    535    547    549     1   109.5600471 388.275200
    536    535    547     1   109.8000471 387.438400
    536    535    537     1   107.5800459 329.699200
    537    535    547     1   109.8000471 387.438400
    538    544    545     1   109.5600471 388.275200
    538    544    546     1   109.5600471 388.275200
    539    538    544     1   109.8000471 387.438400
    539    538    540     1   107.5800459 329.699200
    540    538    544     1   109.8000471 387.438400
    542    541    550     1   109.7800468 425.094400
    542    541    543     1   108.4600466 328.025600
    543    541    550     1   109.7800468 425.094400
    545    544   1130     1   109.7800468 425.094400
    545    544    546     1   108.4600466 328.025600
    546    544   1130     1   109.7800468 425.094400
    548    547   1159     1   109.7800468 425.094400
    548    547    549     1   108.4600466 328.025600
    549    547   1159     1   109.7800468 425.094400
    551    552    553     1   109.8800469 414.216000
    551    552    554     1   109.8800469 414.216000
    551    555    556     1   109.8800469 414.216000
    551    555    557     1   109.8800469 414.216000
    551    558    559     1   109.8800469 414.216000
    551    558    560     1   109.8800469 414.216000
    552    564    565     1   109.8000471 387.438400
    552    564    566     1   109.8000471 387.438400
    553    552    564     1   109.5600471 388.275200
    553    552    554     1   108.4600466 328.025600
    554    552    564     1   109.5600471 388.275200
    555    567    568     1   109.8000471 387.438400
    555    567    569     1   109.8000471 387.438400
    556    555    567     1   109.5600471 388.275200
    556    555    557     1   108.4600466 328.025600
    557    555    567     1   109.5600471 388.275200
    558    561    562     1   109.8000471 387.438400
    558    561    563     1   109.8000471 387.438400
    559    558    561     1   109.5600471 388.275200
    559    558    560     1   108.4600466 328.025600
    560    558    561     1   109.5600471 388.275200
    561    570    571     1   109.5600471 388.275200
    561    570    572     1   109.5600471 388.275200
    562    561    570     1   109.8000471 387.438400
    562    561    563     1   107.5800459 329.699200
    563    561    570     1   109.8000471 387.438400
    564    576    577     1   109.5600471 388.275200
    564    576    578     1   109.5600471 388.275200
    565    564    576     1   109.8000471 387.438400
    565    564    566     1   107.5800459 329.699200
    566    564    576     1   109.8000471 387.438400
    567    573    574     1   109.5600471 388.275200
    567    573    575     1   109.5600471 388.275200
    568    567    573     1   109.8000471 387.438400
    568    567    569     1   107.5800459 329.699200
    569    567    573     1   109.8000471 387.438400
    571    570    579     1   109.7800468 425.094400
    571    570    572     1   108.4600466 328.025600
    572    570    579     1   109.7800468 425.094400
    574    573   1188     1   109.7800468 425.094400
    574    573    575     1   108.4600466 328.025600
    575    573   1188     1   109.7800468 425.094400
    577    576   1217     1   109.7800468 425.094400
    577    576    578     1   108.4600466 328.025600
    578    576   1217     1   109.7800468 425.094400
    580    581    582     1   109.8800469 414.216000
    580    581    583     1   109.8800469 414.216000
    580    584    585     1   109.8800469 414.216000
    580    584    586     1   109.8800469 414.216000
    580    587    588     1   109.8800469 414.216000
    580    587    589     1   109.8800469 414.216000
    581    593    594     1   109.8000471 387.438400
    581    593    595     1   109.8000471 387.438400
    582    581    593     1   109.5600471 388.275200
    582    581    583     1   108.4600466 328.025600
    583    581    593     1   109.5600471 388.275200
    584    596    597     1   109.8000471 387.438400
    584    596    598     1   109.8000471 387.438400
    585    584    596     1   109.5600471 388.275200
    585    584    586     1   108.4600466 328.025600
    586    584    596     1   109.5600471 388.275200
    587    590    591     1   109.8000471 387.438400
    587    590    592     1   109.8000471 387.438400
    588    587    590     1   109.5600471 388.275200
    588    587    589     1   108.4600466 328.025600
    589    587    590     1   109.5600471 388.275200
    590    599    600     1   109.5600471 388.275200
    590    599    601     1   109.5600471 388.275200
    591    590    599     1   109.8000471 387.438400
    591    590    592     1   107.5800459 329.699200
    592    590    599     1   109.8000471 387.438400
    593    605    606     1   109.5600471 388.275200
    593    605    607     1   109.5600471 388.275200
    594    593    605     1   109.8000471 387.438400
    594    593    595     1   107.5800459 329.699200
    595    593    605     1   109.8000471 387.438400
    596    602    603     1   109.5600471 388.275200
    596    602    604     1   109.5600471 388.275200
    597    596    602     1   109.8000471 387.438400
    597    596    598     1   107.5800459 329.699200
    598    596    602     1   109.8000471 387.438400
    600    599    608     1   109.7800468 425.094400
    600    599    601     1   108.4600466 328.025600
    601    599    608     1   109.7800468 425.094400
    603    602   1246     1   109.7800468 425.094400
    603    602    604     1   108.4600466 328.025600
    604    602   1246     1   109.7800468 425.094400
    606    605   1275     1   109.7800468 425.094400
    606    605    607     1   108.4600466 328.025600
    607    605   1275     1   109.7800468 425.094400
    609    610    611     1   109.8800469 414.216000
    609    610    612     1   109.8800469 414.216000
    609    613    614     1   109.8800469 414.216000
    609    613    615     1   109.8800469 414.216000
    609    616    617     1   109.8800469 414.216000
    609    616    618     1   109.8800469 414.216000
    610    622    623     1   109.8000471 387.438400
    610    622    624     1   109.8000471 387.438400
    611    610    622     1   109.5600471 388.275200
    611    610    612     1   108.4600466 328.025600
    612    610    622     1   109.5600471 388.275200
    613    625    626     1   109.8000471 387.438400
    613    625    627     1   109.8000471 387.438400
    614    613    625     1   109.5600471 388.275200
    614    613    615     1   108.4600466 328.025600
    615    613    625     1   109.5600471 388.275200
    616    619    620     1   109.8000471 387.438400
    616    619    621     1   109.8000471 387.438400
    617    616    619     1   109.5600471 388.275200
    617    616    618     1   108.4600466 328.025600
    618    616    619     1   109.5600471 388.275200
    619    628    629     1   109.5600471 388.275200
    619    628    630     1   109.5600471 388.275200
    620    619    628     1   109.8000471 387.438400
    620    619    621     1   107.5800459 329.699200
    621    619    628     1   109.8000471 387.438400
    622    634    635     1   109.5600471 388.275200
    622    634    636     1   109.5600471 388.275200
    623    622    634     1   109.8000471 387.438400
    623    622    624     1   107.5800459 329.699200
    624    622    634     1   109.8000471 387.438400
    625    631    632     1   109.5600471 388.275200
    625    631    633     1   109.5600471 388.275200
    626    625    631     1   109.8000471 387.438400
    626    625    627     1   107.5800459 329.699200
    627    625    631     1   109.8000471 387.438400
    629    628    637     1   109.7800468 425.094400
    629    628    630     1   108.4600466 328.025600
    630    628    637     1   109.7800468 425.094400
    632    631   1304     1   109.7800468 425.094400
    632    631    633     1   108.4600466 328.025600
    633    631   1304     1   109.7800468 425.094400
    635    634   1333     1   109.7800468 425.094400
    635    634    636     1   108.4600466 328.025600
    636    634   1333     1   109.7800468 425.094400
    638    639    640     1   109.8800469 414.216000
    638    639    641     1   109.8800469 414.216000
    638    642    643     1   109.8800469 414.216000
    638    642    644     1   109.8800469 414.216000
    638    645    646     1   109.8800469 414.216000
    638    645    647     1   109.8800469 414.216000
    639    651    652     1   109.8000471 387.438400
    639    651    653     1   109.8000471 387.438400
    640    639    651     1   109.5600471 388.275200
    640    639    641     1   108.4600466 328.025600
    641    639    651     1   109.5600471 388.275200
    642    654    655     1   109.8000471 387.438400
    642    654    656     1   109.8000471 387.438400
    643    642    654     1   109.5600471 388.275200
    643    642    644     1   108.4600466 328.025600
    644    642    654     1   109.5600471 388.275200
    645    648    649     1   109.8000471 387.438400
    645    648    650     1   109.8000471 387.438400
    646    645    648     1   109.5600471 388.275200
    646    645    647     1   108.4600466 328.025600
    647    645    648     1   109.5600471 388.275200
    648    657    658     1   109.5600471 388.275200
    648    657    659     1   109.5600471 388.275200
    649    648    657     1   109.8000471 387.438400
    649    648    650     1   107.5800459 329.699200
    650    648    657     1   109.8000471 387.438400
    651    663    664     1   109.5600471 388.275200
    651    663    665     1   109.5600471 388.275200
    652    651    663     1   109.8000471 387.438400
    652    651    653     1   107.5800459 329.699200
    653    651    663     1   109.8000471 387.438400
    654    660    661     1   109.5600471 388.275200
    654    660    662     1   109.5600471 388.275200
    655    654    660     1   109.8000471 387.438400
    655    654    656     1   107.5800459 329.699200
    656    654    660     1   109.8000471 387.438400
    658    657    666     1   109.7800468 425.094400
    658    657    659     1   108.4600466 328.025600
    659    657    666     1   109.7800468 425.094400
    661    660   1362     1   109.7800468 425.094400
    661    660    662     1   108.4600466 328.025600
    662    660   1362     1   109.7800468 425.094400
    664    663   1391     1   109.7800468 425.094400
    664    663    665     1   108.4600466 328.025600
    665    663   1391     1   109.7800468 425.094400
    667    668    669     1   109.8800469 414.216000
    667    668    670     1   109.8800469 414.216000
    667    671    672     1   109.8800469 414.216000
    667    671    673     1   109.8800469 414.216000
    667    674    675     1   109.8800469 414.216000
    667    674    676     1   109.8800469 414.216000
    668    680    681     1   109.8000471 387.438400
    668    680    682     1   109.8000471 387.438400
    669    668    680     1   109.5600471 388.275200
    669    668    670     1   108.4600466 328.025600
    670    668    680     1   109.5600471 388.275200
    671    683    684     1   109.8000471 387.438400
    671    683    685     1   109.8000471 387.438400
    672    671    683     1   109.5600471 388.275200
    672    671    673     1   108.4600466 328.025600
    673    671    683     1   109.5600471 388.275200
    674    677    678     1   109.8000471 387.438400
    674    677    679     1   109.8000471 387.438400
    675    674    677     1   109.5600471 388.275200
    675    674    676     1   108.4600466 328.025600
    676    674    677     1   109.5600471 388.275200
    677    686    687     1   109.5600471 388.275200
    677    686    688     1   109.5600471 388.275200
    678    677    686     1   109.8000471 387.438400
    678    677    679     1   107.5800459 329.699200
    679    677    686     1   109.8000471 387.438400
    680    692    693     1   109.5600471 388.275200
    680    692    694     1   109.5600471 388.275200
    681    680    692     1   109.8000471 387.438400
    681    680    682     1   107.5800459 329.699200
    682    680    692     1   109.8000471 387.438400
    683    689    690     1   109.5600471 388.275200
    683    689    691     1   109.5600471 388.275200
    684    683    689     1   109.8000471 387.438400
    684    683    685     1   107.5800459 329.699200
    685    683    689     1   109.8000471 387.438400
    687    686    695     1   109.7800468 425.094400
    687    686    688     1   108.4600466 328.025600
    688    686    695     1   109.7800468 425.094400
    690    689   1420     1   109.7800468 425.094400
    690    689    691     1   108.4600466 328.025600
    691    689   1420     1   109.7800468 425.094400
    693    692   1449     1   109.7800468 425.094400
    693    692    694     1   108.4600466 328.025600
    694    692   1449     1   109.7800468 425.094400
    696    697    698     1   109.8800469 414.216000
    696    697    699     1   109.8800469 414.216000
    696    700    701     1   109.8800469 414.216000
    696    700    702     1   109.8800469 414.216000
    696    703    704     1   109.8800469 414.216000
    696    703    705     1   109.8800469 414.216000
    697    709    710     1   109.8000471 387.438400
    697    709    711     1   109.8000471 387.438400
    698    697    709     1   109.5600471 388.275200
    698    697    699     1   108.4600466 328.025600
    699    697    709     1   109.5600471 388.275200
    700    712    713     1   109.8000471 387.438400
    700    712    714     1   109.8000471 387.438400
    701    700    712     1   109.5600471 388.275200
    701    700    702     1   108.4600466 328.025600
    702    700    712     1   109.5600471 388.275200
    703    706    707     1   109.8000471 387.438400
    703    706    708     1   109.8000471 387.438400
    704    703    706     1   109.5600471 388.275200
    704    703    705     1   108.4600466 328.025600
    705    703    706     1   109.5600471 388.275200
    706    715    716     1   109.5600471 388.275200
    706    715    717     1   109.5600471 388.275200
    707    706    715     1   109.8000471 387.438400
    707    706    708     1   107.5800459 329.699200
    708    706    715     1   109.8000471 387.438400
    709    721    722     1   109.5600471 388.275200
    709    721    723     1   109.5600471 388.275200
    710    709    721     1   109.8000471 387.438400
    710    709    711     1   107.5800459 329.699200
    711    709    721     1   109.8000471 387.438400
    712    718    719     1   109.5600471 388.275200
    712    718    720     1   109.5600471 388.275200
    713    712    718     1   109.8000471 387.438400
    713    712    714     1   107.5800459 329.699200
    714    712    718     1   109.8000471 387.438400
    716    715    724     1   109.7800468 425.094400
    716    715    717     1   108.4600466 328.025600
    717    715    724     1   109.7800468 425.094400
    719    718   1478     1   109.7800468 425.094400
    719    718    720     1   108.4600466 328.025600
    720    718   1478     1   109.7800468 425.094400
    722    721   1507     1   109.7800468 425.094400
    722    721    723     1   108.4600466 328.025600
    723    721   1507     1   109.7800468 425.094400
    725    726    727     1   109.8800469 414.216000
    725    726    728     1   109.8800469 414.216000
    725    729    730     1   109.8800469 414.216000
    725    729    731     1   109.8800469 414.216000
    725    732    733     1   109.8800469 414.216000
    725    732    734     1   109.8800469 414.216000
    726    738    739     1   109.8000471 387.438400
    726    738    740     1   109.8000471 387.438400
    727    726    738     1   109.5600471 388.275200
    727    726    728     1   108.4600466 328.025600
    728    726    738     1   109.5600471 388.275200
    729    741    742     1   109.8000471 387.438400
    729    741    743     1   109.8000471 387.438400
    730    729    741     1   109.5600471 388.275200
    730    729    731     1   108.4600466 328.025600
    731    729    741     1   109.5600471 388.275200
    732    735    736     1   109.8000471 387.438400
    732    735    737     1   109.8000471 387.438400
    733    732    735     1   109.5600471 388.275200
    733    732    734     1   108.4600466 328.025600
    734    732    735     1   109.5600471 388.275200
    735    744    745     1   109.5600471 388.275200
    735    744    746     1   109.5600471 388.275200
    736    735    744     1   109.8000471 387.438400
    736    735    737     1   107.5800459 329.699200
    737    735    744     1   109.8000471 387.438400
    738    750    751     1   109.5600471 388.275200
    738    750    752     1   109.5600471 388.275200
    739    738    750     1   109.8000471 387.438400
    739    738    740     1   107.5800459 329.699200
    740    738    750     1   109.8000471 387.438400
    741    747    748     1   109.5600471 388.275200
    741    747    749     1   109.5600471 388.275200
    742    741    747     1   109.8000471 387.438400
    742    741    743     1   107.5800459 329.699200
    743    741    747     1   109.8000471 387.438400
    745    744    753     1   109.7800468 425.094400
    745    744    746     1   108.4600466 328.025600
    746    744    753     1   109.7800468 425.094400
    748    747   1536     1   109.7800468 425.094400
    748    747    749     1   108.4600466 328.025600
    749    747   1536     1   109.7800468 425.094400
    751    750   1565     1   109.7800468 425.094400
    751    750    752     1   108.4600466 328.025600
    752    750   1565     1   109.7800468 425.094400
    754    755    756     1   109.8800469 414.216000
    754    755    757     1   109.8800469 414.216000
    754    758    759     1   109.8800469 414.216000
    754    758    760     1   109.8800469 414.216000
    754    761    762     1   109.8800469 414.216000
    754    761    763     1   109.8800469 414.216000
    755    767    768     1   109.8000471 387.438400
    755    767    769     1   109.8000471 387.438400
    756    755    767     1   109.5600471 388.275200
    756    755    757     1   108.4600466 328.025600
    757    755    767     1   109.5600471 388.275200
    758    770    771     1   109.8000471 387.438400
    758    770    772     1   109.8000471 387.438400
    759    758    770     1   109.5600471 388.275200
    759    758    760     1   108.4600466 328.025600
    760    758    770     1   109.5600471 388.275200
    761    764    765     1   109.8000471 387.438400
    761    764    766     1   109.8000471 387.438400
    762    761    764     1   109.5600471 388.275200
    762    761    763     1   108.4600466 328.025600
    763    761    764     1   109.5600471 388.275200
    764    773    774     1   109.5600471 388.275200
    764    773    775     1   109.5600471 388.275200
    765    764    773     1   109.8000471 387.438400
    765    764    766     1   107.5800459 329.699200
    766    764    773     1   109.8000471 387.438400
    767    779    780     1   109.5600471 388.275200
    767    779    781     1   109.5600471 388.275200
    768    767    779     1   109.8000471 387.438400
    768    767    769     1   107.5800459 329.699200
    769    767    779     1   109.8000471 387.438400
    770    776    777     1   109.5600471 388.275200
    770    776    778     1   109.5600471 388.275200
    771    770    776     1   109.8000471 387.438400
    771    770    772     1   107.5800459 329.699200
    772    770    776     1   109.8000471 387.438400
    774    773    782     1   109.7800468 425.094400
    774    773    775     1   108.4600466 328.025600
    775    773    782     1   109.7800468 425.094400
    777    776   1594     1   109.7800468 425.094400
    777    776    778     1   108.4600466 328.025600
    778    776   1594     1   109.7800468 425.094400
    780    779   1623     1   109.7800468 425.094400
    780    779    781     1   108.4600466 328.025600
    781    779   1623     1   109.7800468 425.094400
    783    784    785     1   109.8800469 414.216000
    783    784    786     1   109.8800469 414.216000
    783    787    788     1   109.8800469 414.216000
    783    787    789     1   109.8800469 414.216000
    783    790    791     1   109.8800469 414.216000
    783    790    792     1   109.8800469 414.216000
    784    796    797     1   109.8000471 387.438400
    784    796    798     1   109.8000471 387.438400
    785    784    796     1   109.5600471 388.275200
    785    784    786     1   108.4600466 328.025600
    786    784    796     1   109.5600471 388.275200
    787    799    800     1   109.8000471 387.438400
    787    799    801     1   109.8000471 387.438400
    788    787    799     1   109.5600471 388.275200
    788    787    789     1   108.4600466 328.025600
    789    787    799     1   109.5600471 388.275200
    790    793    794     1   109.8000471 387.438400
    790    793    795     1   109.8000471 387.438400
    791    790    793     1   109.5600471 388.275200
    791    790    792     1   108.4600466 328.025600
    792    790    793     1   109.5600471 388.275200
    793    802    803     1   109.5600471 388.275200
    793    802    804     1   109.5600471 388.275200
    794    793    802     1   109.8000471 387.438400
    794    793    795     1   107.5800459 329.699200
    795    793    802     1   109.8000471 387.438400
    796    808    809     1   109.5600471 388.275200
    796    808    810     1   109.5600471 388.275200
    797    796    808     1   109.8000471 387.438400
    797    796    798     1   107.5800459 329.699200
    798    796    808     1   109.8000471 387.438400
    799    805    806     1   109.5600471 388.275200
    799    805    807     1   109.5600471 388.275200
    800    799    805     1   109.8000471 387.438400
    800    799    801     1   107.5800459 329.699200
    801    799    805     1   109.8000471 387.438400
    803    802    811     1   109.7800468 425.094400
    803    802    804     1   108.4600466 328.025600
    804    802    811     1   109.7800468 425.094400
    806    805   1652     1   109.7800468 425.094400
    806    805    807     1   108.4600466 328.025600
    807    805   1652     1   109.7800468 425.094400
    809    808   1681     1   109.7800468 425.094400
    809    808    810     1   108.4600466 328.025600
    810    808   1681     1   109.7800468 425.094400
    812    813    814     1   109.8800469 414.216000
    812    813    815     1   109.8800469 414.216000
    812    816    817     1   109.8800469 414.216000
    812    816    818     1   109.8800469 414.216000
    812    819    820     1   109.8800469 414.216000
    812    819    821     1   109.8800469 414.216000
    813    825    826     1   109.8000471 387.438400
    813    825    827     1   109.8000471 387.438400
    814    813    825     1   109.5600471 388.275200
    814    813    815     1   108.4600466 328.025600
    815    813    825     1   109.5600471 388.275200
    816    828    829     1   109.8000471 387.438400
    816    828    830     1   109.8000471 387.438400
    817    816    828     1   109.5600471 388.275200
    817    816    818     1   108.4600466 328.025600
    818    816    828     1   109.5600471 388.275200
    819    822    823     1   109.8000471 387.438400
    819    822    824     1   109.8000471 387.438400
    820    819    822     1   109.5600471 388.275200
    820    819    821     1   108.4600466 328.025600
    821    819    822     1   109.5600471 388.275200
    822    831    832     1   109.5600471 388.275200
    822    831    833     1   109.5600471 388.275200
    823    822    831     1   109.8000471 387.438400
    823    822    824     1   107.5800459 329.699200
    824    822    831     1   109.8000471 387.438400
    825    837    838     1   109.5600471 388.275200
    825    837    839     1   109.5600471 388.275200
    826    825    837     1   109.8000471 387.438400
    826    825    827     1   107.5800459 329.699200
    827    825    837     1   109.8000471 387.438400
    828    834    835     1   109.5600471 388.275200
    828    834    836     1   109.5600471 388.275200
    829    828    834     1   109.8000471 387.438400
    829    828    830     1   107.5800459 329.699200
    830    828    834     1   109.8000471 387.438400
    832    831    840     1   109.7800468 425.094400
    832    831    833     1   108.4600466 328.025600
    833    831    840     1   109.7800468 425.094400
    835    834   1710     1   109.7800468 425.094400
    835    834    836     1   108.4600466 328.025600
    836    834   1710     1   109.7800468 425.094400
    838    837   1739     1   109.7800468 425.094400
    838    837    839     1   108.4600466 328.025600
    839    837   1739     1   109.7800468 425.094400
    841    842    843     1   109.8800469 414.216000
    841    842    844     1   109.8800469 414.216000
    841    845    846     1   109.8800469 414.216000
    841    845    847     1   109.8800469 414.216000
    841    848    849     1   109.8800469 414.216000
    841    848    850     1   109.8800469 414.216000
    842    854    855     1   109.8000471 387.438400
    842    854    856     1   109.8000471 387.438400
    843    842    854     1   109.5600471 388.275200
    843    842    844     1   108.4600466 328.025600
    844    842    854     1   109.5600471 388.275200
    845    857    858     1   109.8000471 387.438400
    845    857    859     1   109.8000471 387.438400
    846    845    857     1   109.5600471 388.275200
    846    845    847     1   108.4600466 328.025600
    847    845    857     1   109.5600471 388.275200
    848    851    852     1   109.8000471 387.438400
    848    851    853     1   109.8000471 387.438400
    849    848    851     1   109.5600471 388.275200
    849    848    850     1   108.4600466 328.025600
    850    848    851     1   109.5600471 388.275200
    851    860    861     1   109.5600471 388.275200
    851    860    862     1   109.5600471 388.275200
    852    851    860     1   109.8000471 387.438400
    852    851    853     1   107.5800459 329.699200
    853    851    860     1   109.8000471 387.438400
    854    866    867     1   109.5600471 388.275200
    854    866    868     1   109.5600471 388.275200
    855    854    866     1   109.8000471 387.438400
    855    854    856     1   107.5800459 329.699200
    856    854    866     1   109.8000471 387.438400
    857    863    864     1   109.5600471 388.275200
    857    863    865     1   109.5600471 388.275200
    858    857    863     1   109.8000471 387.438400
    858    857    859     1   107.5800459 329.699200
    859    857    863     1   109.8000471 387.438400
    861    860    869     1   109.7800468 425.094400
    861    860    862     1   108.4600466 328.025600
    862    860    869     1   109.7800468 425.094400
    864    863   1768     1   109.7800468 425.094400
    864    863    865     1   108.4600466 328.025600
    865    863   1768     1   109.7800468 425.094400
    867    866   1797     1   109.7800468 425.094400
    867    866    868     1   108.4600466 328.025600
    868    866   1797     1   109.7800468 425.094400
    870    871    872     1   109.8800469 414.216000
    870    871    873     1   109.8800469 414.216000
    870    874    875     1   109.8800469 414.216000
    870    874    876     1   109.8800469 414.216000
    870    877    878     1   109.8800469 414.216000
    870    877    879     1   109.8800469 414.216000
    871    883    884     1   109.8000471 387.438400
    871    883    885     1   109.8000471 387.438400
    872    871    883     1   109.5600471 388.275200
    872    871    873     1   108.4600466 328.025600
    873    871    883     1   109.5600471 388.275200
    874    886    887     1   109.8000471 387.438400
    874    886    888     1   109.8000471 387.438400
    875    874    886     1   109.5600471 388.275200
    875    874    876     1   108.4600466 328.025600
    876    874    886     1   109.5600471 388.275200
    877    880    881     1   109.8000471 387.438400
    877    880    882     1   109.8000471 387.438400
    878    877    880     1   109.5600471 388.275200
    878    877    879     1   108.4600466 328.025600
    879    877    880     1   109.5600471 388.275200
    880    889    890     1   109.5600471 388.275200
    880    889    891     1   109.5600471 388.275200
    881    880    889     1   109.8000471 387.438400
    881    880    882     1   107.5800459 329.699200
    882    880    889     1   109.8000471 387.438400
    883    895    896     1   109.5600471 388.275200
    883    895    897     1   109.5600471 388.275200
    884    883    895     1   109.8000471 387.438400
    884    883    885     1   107.5800459 329.699200
    885    883    895     1   109.8000471 387.438400
    886    892    893     1   109.5600471 388.275200
    886    892    894     1   109.5600471 388.275200
    887    886    892     1   109.8000471 387.438400
    887    886    888     1   107.5800459 329.699200
    888    886    892     1   109.8000471 387.438400
    890    889    898     1   109.7800468 425.094400
    890    889    891     1   108.4600466 328.025600
    891    889    898     1   109.7800468 425.094400
    893    892   1826     1   109.7800468 425.094400
    893    892    894     1   108.4600466 328.025600
    894    892   1826     1   109.7800468 425.094400
    896    895   1855     1   109.7800468 425.094400
    896    895    897     1   108.4600466 328.025600
    897    895   1855     1   109.7800468 425.094400
    899    900    901     1   109.8800469 414.216000
    899    900    902     1   109.8800469 414.216000
    899    903    904     1   109.8800469 414.216000
    899    903    905     1   109.8800469 414.216000
    899    906    907     1   109.8800469 414.216000
    899    906    908     1   109.8800469 414.216000
    900    912    913     1   109.8000471 387.438400
    900    912    914     1   109.8000471 387.438400
    901    900    912     1   109.5600471 388.275200
    901    900    902     1   108.4600466 328.025600
    902    900    912     1   109.5600471 388.275200
    903    915    916     1   109.8000471 387.438400
    903    915    917     1   109.8000471 387.438400
    904    903    915     1   109.5600471 388.275200
    904    903    905     1   108.4600466 328.025600
    905    903    915     1   109.5600471 388.275200
    906    909    910     1   109.8000471 387.438400
    906    909    911     1   109.8000471 387.438400
    907    906    909     1   109.5600471 388.275200
    907    906    908     1   108.4600466 328.025600
    908    906    909     1   109.5600471 388.275200
    909    918    919     1   109.5600471 388.275200
    909    918    920     1   109.5600471 388.275200
    910    909    918     1   109.8000471 387.438400
    910    909    911     1   107.5800459 329.699200
    911    909    918     1   109.8000471 387.438400
    912    924    925     1   109.5600471 388.275200
    912    924    926     1   109.5600471 388.275200
    913    912    924     1   109.8000471 387.438400
    913    912    914     1   107.5800459 329.699200
    914    912    924     1   109.8000471 387.438400
    915    921    922     1   109.5600471 388.275200
    915    921    923     1   109.5600471 388.275200
    916    915    921     1   109.8000471 387.438400
    916    915    917     1   107.5800459 329.699200
    917    915    921     1   109.8000471 387.438400
    919    918    927     1   109.7800468 425.094400
    919    918    920     1   108.4600466 328.025600
    920    918    927     1   109.7800468 425.094400
    922    921   1884     1   109.7800468 425.094400
    922    921    923     1   108.4600466 328.025600
    923    921   1884     1   109.7800468 425.094400
    925    924   1913     1   109.7800468 425.094400
    925    924    926     1   108.4600466 328.025600
    926    924   1913     1   109.7800468 425.094400
    928    929    930     1   109.8800469 414.216000
    928    929    931     1   109.8800469 414.216000
    928    932    933     1   109.8800469 414.216000
    928    932    934     1   109.8800469 414.216000
    928    935    936     1   109.8800469 414.216000
    928    935    937     1   109.8800469 414.216000
    929    941    942     1   109.8000471 387.438400
    929    941    943     1   109.8000471 387.438400
    930    929    941     1   109.5600471 388.275200
    930    929    931     1   108.4600466 328.025600
    931    929    941     1   109.5600471 388.275200
    932    944    945     1   109.8000471 387.438400
    932    944    946     1   109.8000471 387.438400
    933    932    944     1   109.5600471 388.275200
    933    932    934     1   108.4600466 328.025600
    934    932    944     1   109.5600471 388.275200
    935    938    939     1   109.8000471 387.438400
    935    938    940     1   109.8000471 387.438400
    936    935    938     1   109.5600471 388.275200
    936    935    937     1   108.4600466 328.025600
    937    935    938     1   109.5600471 388.275200
    938    947    948     1   109.5600471 388.275200
    938    947    949     1   109.5600471 388.275200
    939    938    947     1   109.8000471 387.438400
    939    938    940     1   107.5800459 329.699200
    940    938    947     1   109.8000471 387.438400
    941    953    954     1   109.5600471 388.275200
    941    953    955     1   109.5600471 388.275200
    942    941    953     1   109.8000471 387.438400
    942    941    943     1   107.5800459 329.699200
    943    941    953     1   109.8000471 387.438400
    944    950    951     1   109.5600471 388.275200
    944    950    952     1   109.5600471 388.275200
    945    944    950     1   109.8000471 387.438400
    945    944    946     1   107.5800459 329.699200
    946    944    950     1   109.8000471 387.438400
    948    947    956     1   109.7800468 425.094400
    948    947    949     1   108.4600466 328.025600
    949    947    956     1   109.7800468 425.094400
    951    950   1942     1   109.7800468 425.094400
    951    950    952     1   108.4600466 328.025600
    952    950   1942     1   109.7800468 425.094400
    954    953   1971     1   109.7800468 425.094400
    954    953    955     1   108.4600466 328.025600
    955    953   1971     1   109.7800468 425.094400
    957    958    959     1   109.8800469 414.216000
    957    958    960     1   109.8800469 414.216000
    957    961    962     1   109.8800469 414.216000
    957    961    963     1   109.8800469 414.216000
    957    964    965     1   109.8800469 414.216000
    957    964    966     1   109.8800469 414.216000
    958    970    971     1   109.8000471 387.438400
    958    970    972     1   109.8000471 387.438400
    959    958    970     1   109.5600471 388.275200
    959    958    960     1   108.4600466 328.025600
    960    958    970     1   109.5600471 388.275200
    961    973    974     1   109.8000471 387.438400
    961    973    975     1   109.8000471 387.438400
    962    961    973     1   109.5600471 388.275200
    962    961    963     1   108.4600466 328.025600
    963    961    973     1   109.5600471 388.275200
    964    967    968     1   109.8000471 387.438400
    964    967    969     1   109.8000471 387.438400
    965    964    967     1   109.5600471 388.275200
    965    964    966     1   108.4600466 328.025600
    966    964    967     1   109.5600471 388.275200
    967    976    977     1   109.5600471 388.275200
    967    976    978     1   109.5600471 388.275200
    968    967    976     1   109.8000471 387.438400
    968    967    969     1   107.5800459 329.699200
    969    967    976     1   109.8000471 387.438400
    970    982    983     1   109.5600471 388.275200
    970    982    984     1   109.5600471 388.275200
    971    970    982     1   109.8000471 387.438400
    971    970    972     1   107.5800459 329.699200
    972    970    982     1   109.8000471 387.438400
    973    979    980     1   109.5600471 388.275200
    973    979    981     1   109.5600471 388.275200
    974    973    979     1   109.8000471 387.438400
    974    973    975     1   107.5800459 329.699200
    975    973    979     1   109.8000471 387.438400
    977    976    985     1   109.7800468 425.094400
    977    976    978     1   108.4600466 328.025600
    978    976    985     1   109.7800468 425.094400
    980    979   2000     1   109.7800468 425.094400
    980    979    981     1   108.4600466 328.025600
    981    979   2000     1   109.7800468 425.094400
    983    982   2029     1   109.7800468 425.094400
    983    982    984     1   108.4600466 328.025600
    984    982   2029     1   109.7800468 425.094400
    986    987    988     1   109.8800469 414.216000
    986    987    989     1   109.8800469 414.216000
    986    990    991     1   109.8800469 414.216000
    986    990    992     1   109.8800469 414.216000
    986    993    994     1   109.8800469 414.216000
    986    993    995     1   109.8800469 414.216000
    987    999   1000     1   109.8000471 387.438400
    987    999   1001     1   109.8000471 387.438400
    988    987    999     1   109.5600471 388.275200
    988    987    989     1   108.4600466 328.025600
    989    987    999     1   109.5600471 388.275200
    990   1002   1003     1   109.8000471 387.438400
    990   1002   1004     1   109.8000471 387.438400
    991    990   1002     1   109.5600471 388.275200
    991    990    992     1   108.4600466 328.025600
    992    990   1002     1   109.5600471 388.275200
    993    996    997     1   109.8000471 387.438400
    993    996    998     1   109.8000471 387.438400
    994    993    996     1   109.5600471 388.275200
    994    993    995     1   108.4600466 328.025600
    995    993    996     1   109.5600471 388.275200
    996   1005   1006     1   109.5600471 388.275200
    996   1005   1007     1   109.5600471 388.275200
    997    996   1005     1   109.8000471 387.438400
    997    996    998     1   107.5800459 329.699200
    998    996   1005     1   109.8000471 387.438400
    999   1011   1012     1   109.5600471 388.275200
    999   1011   1013     1   109.5600471 388.275200
   1000    999   1011     1   109.8000471 387.438400
   1000    999   1001     1   107.5800459 329.699200
   1001    999   1011     1   109.8000471 387.438400
   1002   1008   1009     1   109.5600471 388.275200
   1002   1008   1010     1   109.5600471 388.275200
   1003   1002   1008     1   109.8000471 387.438400
   1003   1002   1004     1   107.5800459 329.699200
   1004   1002   1008     1   109.8000471 387.438400
   1006   1005   1014     1   109.7800468 425.094400
   1006   1005   1007     1   108.4600466 328.025600
   1007   1005   1014     1   109.7800468 425.094400
   1009   1008   2058     1   109.7800468 425.094400
   1009   1008   1010     1   108.4600466 328.025600
   1010   1008   2058     1   109.7800468 425.094400
   1012   1011   2087     1   109.7800468 425.094400
   1012   1011   1013     1   108.4600466 328.025600
   1013   1011   2087     1   109.7800468 425.094400
   1015   1016   1017     1   109.8800469 414.216000
   1015   1016   1018     1   109.8800469 414.216000
   1015   1019   1020     1   109.8800469 414.216000
   1015   1019   1021     1   109.8800469 414.216000
   1015   1022   1023     1   109.8800469 414.216000
   1015   1022   1024     1   109.8800469 414.216000
   1016   1028   1029     1   109.8000471 387.438400
   1016   1028   1030     1   109.8000471 387.438400
   1017   1016   1028     1   109.5600471 388.275200
   1017   1016   1018     1   108.4600466 328.025600
   1018   1016   1028     1   109.5600471 388.275200
   1019   1031   1032     1   109.8000471 387.438400
   1019   1031   1033     1   109.8000471 387.438400
   1020   1019   1031     1   109.5600471 388.275200
   1020   1019   1021     1   108.4600466 328.025600
   1021   1019   1031     1   109.5600471 388.275200
   1022   1025   1026     1   109.8000471 387.438400
   1022   1025   1027     1   109.8000471 387.438400
   1023   1022   1025     1   109.5600471 388.275200
   1023   1022   1024     1   108.4600466 328.025600
   1024   1022   1025     1   109.5600471 388.275200
   1025   1034   1035     1   109.5600471 388.275200
   1025   1034   1036     1   109.5600471 388.275200
   1026   1025   1034     1   109.8000471 387.438400
   1026   1025   1027     1   107.5800459 329.699200
   1027   1025   1034     1   109.8000471 387.438400
   1028   1040   1041     1   109.5600471 388.275200
   1028   1040   1042     1   109.5600471 388.275200
   1029   1028   1040     1   109.8000471 387.438400
   1029   1028   1030     1   107.5800459 329.699200
   1030   1028   1040     1   109.8000471 387.438400
   1031   1037   1038     1   109.5600471 388.275200
   1031   1037   1039     1   109.5600471 388.275200
   1032   1031   1037     1   109.8000471 387.438400
   1032   1031   1033     1   107.5800459 329.699200
   1033   1031   1037     1   109.8000471 387.438400
   1035   1034   1043     1   109.7800468 425.094400
   1035   1034   1036     1   108.4600466 328.025600
   1036   1034   1043     1   109.7800468 425.094400
   1038   1037   2116     1   109.7800468 425.094400
   1038   1037   1039     1   108.4600466 328.025600
   1039   1037   2116     1   109.7800468 425.094400
   1041   1040   2145     1   109.7800468 425.094400
   1041   1040   1042     1   108.4600466 328.025600
   1042   1040   2145     1   109.7800468 425.094400
   1044   1045   1046     1   109.8800469 414.216000
   1044   1045   1047     1   109.8800469 414.216000
   1044   1048   1049     1   109.8800469 414.216000
   1044   1048   1050     1   109.8800469 414.216000
   1044   1051   1052     1   109.8800469 414.216000
   1044   1051   1053     1   109.8800469 414.216000
   1045   1057   1058     1   109.8000471 387.438400
   1045   1057   1059     1   109.8000471 387.438400
   1046   1045   1057     1   109.5600471 388.275200
   1046   1045   1047     1   108.4600466 328.025600
   1047   1045   1057     1   109.5600471 388.275200
   1048   1060   1061     1   109.8000471 387.438400
   1048   1060   1062     1   109.8000471 387.438400
   1049   1048   1060     1   109.5600471 388.275200
   1049   1048   1050     1   108.4600466 328.025600
   1050   1048   1060     1   109.5600471 388.275200
   1051   1054   1055     1   109.8000471 387.438400
   1051   1054   1056     1   109.8000471 387.438400
   1052   1051   1054     1   109.5600471 388.275200
   1052   1051   1053     1   108.4600466 328.025600
   1053   1051   1054     1   109.5600471 388.275200
   1054   1063   1064     1   109.5600471 388.275200
   1054   1063   1065     1   109.5600471 388.275200
   1055   1054   1063     1   109.8000471 387.438400
   1055   1054   1056     1   107.5800459 329.699200
   1056   1054   1063     1   109.8000471 387.438400
   1057   1069   1070     1   109.5600471 388.275200
   1057   1069   1071     1   109.5600471 388.275200
   1058   1057   1069     1   109.8000471 387.438400
   1058   1057   1059     1   107.5800459 329.699200
   1059   1057   1069     1   109.8000471 387.438400
   1060   1066   1067     1   109.5600471 388.275200
   1060   1066   1068     1   109.5600471 388.275200
   1061   1060   1066     1   109.8000471 387.438400
   1061   1060   1062     1   107.5800459 329.699200
   1062   1060   1066     1   109.8000471 387.438400
   1064   1063   1072     1   109.7800468 425.094400
   1064   1063   1065     1   108.4600466 328.025600
   1065   1063   1072     1   109.7800468 425.094400
   1067   1066   2174     1   109.7800468 425.094400
   1067   1066   1068     1   108.4600466 328.025600
   1068   1066   2174     1   109.7800468 425.094400
   1070   1069   2203     1   109.7800468 425.094400
   1070   1069   1071     1   108.4600466 328.025600
   1071   1069   2203     1   109.7800468 425.094400
   1073   1074   1075     1   109.8800469 414.216000
   1073   1074   1076     1   109.8800469 414.216000
   1073   1077   1078     1   109.8800469 414.216000
   1073   1077   1079     1   109.8800469 414.216000
   1073   1080   1081     1   109.8800469 414.216000
   1073   1080   1082     1   109.8800469 414.216000
   1074   1086   1087     1   109.8000471 387.438400
   1074   1086   1088     1   109.8000471 387.438400
   1075   1074   1086     1   109.5600471 388.275200
   1075   1074   1076     1   108.4600466 328.025600
   1076   1074   1086     1   109.5600471 388.275200
   1077   1089   1090     1   109.8000471 387.438400
   1077   1089   1091     1   109.8000471 387.438400
   1078   1077   1089     1   109.5600471 388.275200
   1078   1077   1079     1   108.4600466 328.025600
   1079   1077   1089     1   109.5600471 388.275200
   1080   1083   1084     1   109.8000471 387.438400
   1080   1083   1085     1   109.8000471 387.438400
   1081   1080   1083     1   109.5600471 388.275200
   1081   1080   1082     1   108.4600466 328.025600
   1082   1080   1083     1   109.5600471 388.275200
   1083   1092   1093     1   109.5600471 388.275200
   1083   1092   1094     1   109.5600471 388.275200
   1084   1083   1092     1   109.8000471 387.438400
   1084   1083   1085     1   107.5800459 329.699200
   1085   1083   1092     1   109.8000471 387.438400
   1086   1098   1099     1   109.5600471 388.275200
   1086   1098   1100     1   109.5600471 388.275200
   1087   1086   1098     1   109.8000471 387.438400
   1087   1086   1088     1   107.5800459 329.699200
   1088   1086   1098     1   109.8000471 387.438400
   1089   1095   1096     1   109.5600471 388.275200
   1089   1095   1097     1   109.5600471 388.275200
   1090   1089   1095     1   109.8000471 387.438400
   1090   1089   1091     1   107.5800459 329.699200
   1091   1089   1095     1   109.8000471 387.438400
   1093   1092   1101     1   109.7800468 425.094400
   1093   1092   1094     1   108.4600466 328.025600
   1094   1092   1101     1   109.7800468 425.094400
   1096   1095   2232     1   109.7800468 425.094400
   1096   1095   1097     1   108.4600466 328.025600
   1097   1095   2232     1   109.7800468 425.094400
   1099   1098   2261     1   109.7800468 425.094400
   1099   1098   1100     1   108.4600466 328.025600
   1100   1098   2261     1   109.7800468 425.094400
   1102   1103   1104     1   109.8800469 414.216000
   1102   1103   1105     1   109.8800469 414.216000
   1102   1106   1107     1   109.8800469 414.216000
   1102   1106   1108     1   109.8800469 414.216000
   1102   1109   1110     1   109.8800469 414.216000
   1102   1109   1111     1   109.8800469 414.216000
   1103   1115   1116     1   109.8000471 387.438400
   1103   1115   1117     1   109.8000471 387.438400
   1104   1103   1115     1   109.5600471 388.275200
   1104   1103   1105     1   108.4600466 328.025600
   1105   1103   1115     1   109.5600471 388.275200
   1106   1118   1119     1   109.8000471 387.438400
   1106   1118   1120     1   109.8000471 387.438400
   1107   1106   1118     1   109.5600471 388.275200
   1107   1106   1108     1   108.4600466 328.025600
   1108   1106   1118     1   109.5600471 388.275200
   1109   1112   1113     1   109.8000471 387.438400
   1109   1112   1114     1   109.8000471 387.438400
   1110   1109   1112     1   109.5600471 388.275200
   1110   1109   1111     1   108.4600466 328.025600
   1111   1109   1112     1   109.5600471 388.275200
   1112   1121   1122     1   109.5600471 388.275200
   1112   1121   1123     1   109.5600471 388.275200
   1113   1112   1121     1   109.8000471 387.438400
   1113   1112   1114     1   107.5800459 329.699200
   1114   1112   1121     1   109.8000471 387.438400
   1115   1127   1128     1   109.5600471 388.275200
   1115   1127   1129     1   109.5600471 388.275200
   1116   1115   1127     1   109.8000471 387.438400
   1116   1115   1117     1   107.5800459 329.699200
   1117   1115   1127     1   109.8000471 387.438400
   1118   1124   1125     1   109.5600471 388.275200
   1118   1124   1126     1   109.5600471 388.275200
   1119   1118   1124     1   109.8000471 387.438400
   1119   1118   1120     1   107.5800459 329.699200
   1120   1118   1124     1   109.8000471 387.438400
   1122   1121   1130     1   109.7800468 425.094400
   1122   1121   1123     1   108.4600466 328.025600
   1123   1121   1130     1   109.7800468 425.094400
   1125   1124   2290     1   109.7800468 425.094400
   1125   1124   1126     1   108.4600466 328.025600
   1126   1124   2290     1   109.7800468 425.094400
   1128   1127   2319     1   109.7800468 425.094400
   1128   1127   1129     1   108.4600466 328.025600
   1129   1127   2319     1   109.7800468 425.094400
   1131   1132   1133     1   109.8800469 414.216000
   1131   1132   1134     1   109.8800469 414.216000
   1131   1135   1136     1   109.8800469 414.216000
   1131   1135   1137     1   109.8800469 414.216000
   1131   1138   1139     1   109.8800469 414.216000
   1131   1138   1140     1   109.8800469 414.216000
   1132   1144   1145     1   109.8000471 387.438400
   1132   1144   1146     1   109.8000471 387.438400
   1133   1132   1144     1   109.5600471 388.275200
   1133   1132   1134     1   108.4600466 328.025600
   1134   1132   1144     1   109.5600471 388.275200
   1135   1147   1148     1   109.8000471 387.438400
   1135   1147   1149     1   109.8000471 387.438400
   1136   1135   1147     1   109.5600471 388.275200
   1136   1135   1137     1   108.4600466 328.025600
   1137   1135   1147     1   109.5600471 388.275200
   1138   1141   1142     1   109.8000471 387.438400
   1138   1141   1143     1   109.8000471 387.438400
   1139   1138   1141     1   109.5600471 388.275200
   1139   1138   1140     1   108.4600466 328.025600
   1140   1138   1141     1   109.5600471 388.275200
   1141   1150   1151     1   109.5600471 388.275200
   1141   1150   1152     1   109.5600471 388.275200
   1142   1141   1150     1   109.8000471 387.438400
   1142   1141   1143     1   107.5800459 329.699200
   1143   1141   1150     1   109.8000471 387.438400
   1144   1156   1157     1   109.5600471 388.275200
   1144   1156   1158     1   109.5600471 388.275200
   1145   1144   1156     1   109.8000471 387.438400
   1145   1144   1146     1   107.5800459 329.699200
   1146   1144   1156     1   109.8000471 387.438400
   1147   1153   1154     1   109.5600471 388.275200
   1147   1153   1155     1   109.5600471 388.275200
   1148   1147   1153     1   109.8000471 387.438400
   1148   1147   1149     1   107.5800459 329.699200
   1149   1147   1153     1   109.8000471 387.438400
   1151   1150   1159     1   109.7800468 425.094400
   1151   1150   1152     1   108.4600466 328.025600
   1152   1150   1159     1   109.7800468 425.094400
   1154   1153   2348     1   109.7800468 425.094400
   1154   1153   1155     1   108.4600466 328.025600
   1155   1153   2348     1   109.7800468 425.094400
   1157   1156   2377     1   109.7800468 425.094400
   1157   1156   1158     1   108.4600466 328.025600
   1158   1156   2377     1   109.7800468 425.094400
   1160   1161   1162     1   109.8800469 414.216000
   1160   1161   1163     1   109.8800469 414.216000
   1160   1164   1165     1   109.8800469 414.216000
   1160   1164   1166     1   109.8800469 414.216000
   1160   1167   1168     1   109.8800469 414.216000
   1160   1167   1169     1   109.8800469 414.216000
   1161   1173   1174     1   109.8000471 387.438400
   1161   1173   1175     1   109.8000471 387.438400
   1162   1161   1173     1   109.5600471 388.275200
   1162   1161   1163     1   108.4600466 328.025600
   1163   1161   1173     1   109.5600471 388.275200
   1164   1176   1177     1   109.8000471 387.438400
   1164   1176   1178     1   109.8000471 387.438400
   1165   1164   1176     1   109.5600471 388.275200
   1165   1164   1166     1   108.4600466 328.025600
   1166   1164   1176     1   109.5600471 388.275200
   1167   1170   1171     1   109.8000471 387.438400
   1167   1170   1172     1   109.8000471 387.438400
   1168   1167   1170     1   109.5600471 388.275200
   1168   1167   1169     1   108.4600466 328.025600
   1169   1167   1170     1   109.5600471 388.275200
   1170   1179   1180     1   109.5600471 388.275200
   1170   1179   1181     1   109.5600471 388.275200
   1171   1170   1179     1   109.8000471 387.438400
   1171   1170   1172     1   107.5800459 329.699200
   1172   1170   1179     1   109.8000471 387.438400
   1173   1185   1186     1   109.5600471 388.275200
   1173   1185   1187     1   109.5600471 388.275200
   1174   1173   1185     1   109.8000471 387.438400
   1174   1173   1175     1   107.5800459 329.699200
   1175   1173   1185     1   109.8000471 387.438400
   1176   1182   1183     1   109.5600471 388.275200
   1176   1182   1184     1   109.5600471 388.275200
   1177   1176   1182     1   109.8000471 387.438400
   1177   1176   1178     1   107.5800459 329.699200
   1178   1176   1182     1   109.8000471 387.438400
   1180   1179   1188     1   109.7800468 425.094400
   1180   1179   1181     1   108.4600466 328.025600
   1181   1179   1188     1   109.7800468 425.094400
   1183   1182   2406     1   109.7800468 425.094400
   1183   1182   1184     1   108.4600466 328.025600
   1184   1182   2406     1   109.7800468 425.094400
   1186   1185   2435     1   109.7800468 425.094400
   1186   1185   1187     1   108.4600466 328.025600
   1187   1185   2435     1   109.7800468 425.094400
   1189   1190   1191     1   109.8800469 414.216000
   1189   1190   1192     1   109.8800469 414.216000
   1189   1193   1194     1   109.8800469 414.216000
   1189   1193   1195     1   109.8800469 414.216000
   1189   1196   1197     1   109.8800469 414.216000
   1189   1196   1198     1   109.8800469 414.216000
   1190   1202   1203     1   109.8000471 387.438400
   1190   1202   1204     1   109.8000471 387.438400
   1191   1190   1202     1   109.5600471 388.275200
   1191   1190   1192     1   108.4600466 328.025600
   1192   1190   1202     1   109.5600471 388.275200
   1193   1205   1206     1   109.8000471 387.438400
   1193   1205   1207     1   109.8000471 387.438400
   1194   1193   1205     1   109.5600471 388.275200
   1194   1193   1195     1   108.4600466 328.025600
   1195   1193   1205     1   109.5600471 388.275200
   1196   1199   1200     1   109.8000471 387.438400
   1196   1199   1201     1   109.8000471 387.438400
   1197   1196   1199     1   109.5600471 388.275200
   1197   1196   1198     1   108.4600466 328.025600
   1198   1196   1199     1   109.5600471 388.275200
   1199   1208   1209     1   109.5600471 388.275200
   1199   1208   1210     1   109.5600471 388.275200
   1200   1199   1208     1   109.8000471 387.438400
   1200   1199   1201     1   107.5800459 329.699200
   1201   1199   1208     1   109.8000471 387.438400
   1202   1214   1215     1   109.5600471 388.275200
   1202   1214   1216     1   109.5600471 388.275200
   1203   1202   1214     1   109.8000471 387.438400
   1203   1202   1204     1   107.5800459 329.699200
   1204   1202   1214     1   109.8000471 387.438400
   1205   1211   1212     1   109.5600471 388.275200
   1205   1211   1213     1   109.5600471 388.275200
   1206   1205   1211     1   109.8000471 387.438400
   1206   1205   1207     1   107.5800459 329.699200
   1207   1205   1211     1   109.8000471 387.438400
   1209   1208   1217     1   109.7800468 425.094400
   1209   1208   1210     1   108.4600466 328.025600
   1210   1208   1217     1   109.7800468 425.094400
   1212   1211   2464     1   109.7800468 425.094400
   1212   1211   1213     1   108.4600466 328.025600
   1213   1211   2464     1   109.7800468 425.094400
   1215   1214   2493     1   109.7800468 425.094400
   1215   1214   1216     1   108.4600466 328.025600
   1216   1214   2493     1   109.7800468 425.094400
   1218   1219   1220     1   109.8800469 414.216000
   1218   1219   1221     1   109.8800469 414.216000
   1218   1222   1223     1   109.8800469 414.216000
   1218   1222   1224     1   109.8800469 414.216000
   1218   1225   1226     1   109.8800469 414.216000
   1218   1225   1227     1   109.8800469 414.216000
   1219   1231   1232     1   109.8000471 387.438400
   1219   1231   1233     1   109.8000471 387.438400
   1220   1219   1231     1   109.5600471 388.275200
   1220   1219   1221     1   108.4600466 328.025600
   1221   1219   1231     1   109.5600471 388.275200
   1222   1234   1235     1   109.8000471 387.438400
   1222   1234   1236     1   109.8000471 387.438400
   1223   1222   1234     1   109.5600471 388.275200
   1223   1222   1224     1   108.4600466 328.025600
   1224   1222   1234     1   109.5600471 388.275200
   1225   1228   1229     1   109.8000471 387.438400
   1225   1228   1230     1   109.8000471 387.438400
   1226   1225   1228     1   109.5600471 388.275200
   1226   1225   1227     1   108.4600466 328.025600
   1227   1225   1228     1   109.5600471 388.275200
   1228   1237   1238     1   109.5600471 388.275200
   1228   1237   1239     1   109.5600471 388.275200
   1229   1228   1237     1   109.8000471 387.438400
   1229   1228   1230     1   107.5800459 329.699200
   1230   1228   1237     1   109.8000471 387.438400
   1231   1243   1244     1   109.5600471 388.275200
   1231   1243   1245     1   109.5600471 388.275200
   1232   1231   1243     1   109.8000471 387.438400
   1232   1231   1233     1   107.5800459 329.699200
   1233   1231   1243     1   109.8000471 387.438400
   1234   1240   1241     1   109.5600471 388.275200
   1234   1240   1242     1   109.5600471 388.275200
   1235   1234   1240     1   109.8000471 387.438400
   1235   1234   1236     1   107.5800459 329.699200
   1236   1234   1240     1   109.8000471 387.438400
   1238   1237   1246     1   109.7800468 425.094400
   1238   1237   1239     1   108.4600466 328.025600
   1239   1237   1246     1   109.7800468 425.094400
   1241   1240   2522     1   109.7800468 425.094400
   1241   1240   1242     1   108.4600466 328.025600
   1242   1240   2522     1   109.7800468 425.094400
   1244   1243   2551     1   109.7800468 425.094400
   1244   1243   1245     1   108.4600466 328.025600
   1245   1243   2551     1   109.7800468 425.094400
   1247   1248   1249     1   109.8800469 414.216000
   1247   1248   1250     1   109.8800469 414.216000
   1247   1251   1252     1   109.8800469 414.216000
   1247   1251   1253     1   109.8800469 414.216000
   1247   1254   1255     1   109.8800469 414.216000
   1247   1254   1256     1   109.8800469 414.216000
   1248   1260   1261     1   109.8000471 387.438400
   1248   1260   1262     1   109.8000471 387.438400
   1249   1248   1260     1   109.5600471 388.275200
   1249   1248   1250     1   108.4600466 328.025600
   1250   1248   1260     1   109.5600471 388.275200
   1251   1263   1264     1   109.8000471 387.438400
   1251   1263   1265     1   109.8000471 387.438400
   1252   1251   1263     1   109.5600471 388.275200
   1252   1251   1253     1   108.4600466 328.025600
   1253   1251   1263     1   109.5600471 388.275200
   1254   1257   1258     1   109.8000471 387.438400
   1254   1257   1259     1   109.8000471 387.438400
   1255   1254   1257     1   109.5600471 388.275200
   1255   1254   1256     1   108.4600466 328.025600
   1256   1254   1257     1   109.5600471 388.275200
   1257   1266   1267     1   109.5600471 388.275200
   1257   1266   1268     1   109.5600471 388.275200
   1258   1257   1266     1   109.8000471 387.438400
   1258   1257   1259     1   107.5800459 329.699200
   1259   1257   1266     1   109.8000471 387.438400
   1260   1272   1273     1   109.5600471 388.275200
   1260   1272   1274     1   109.5600471 388.275200
   1261   1260   1272     1   109.8000471 387.438400
   1261   1260   1262     1   107.5800459 329.699200
   1262   1260   1272     1   109.8000471 387.438400
   1263   1269   1270     1   109.5600471 388.275200
   1263   1269   1271     1   109.5600471 388.275200
   1264   1263   1269     1   109.8000471 387.438400
   1264   1263   1265     1   107.5800459 329.699200
   1265   1263   1269     1   109.8000471 387.438400
   1267   1266   1275     1   109.7800468 425.094400
   1267   1266   1268     1   108.4600466 328.025600
   1268   1266   1275     1   109.7800468 425.094400
   1270   1269   2580     1   109.7800468 425.094400
   1270   1269   1271     1   108.4600466 328.025600
   1271   1269   2580     1   109.7800468 425.094400
   1273   1272   2609     1   109.7800468 425.094400
   1273   1272   1274     1   108.4600466 328.025600
   1274   1272   2609     1   109.7800468 425.094400
   1276   1277   1278     1   109.8800469 414.216000
   1276   1277   1279     1   109.8800469 414.216000
   1276   1280   1281     1   109.8800469 414.216000
   1276   1280   1282     1   109.8800469 414.216000
   1276   1283   1284     1   109.8800469 414.216000
   1276   1283   1285     1   109.8800469 414.216000
   1277   1289   1290     1   109.8000471 387.438400
   1277   1289   1291     1   109.8000471 387.438400
   1278   1277   1289     1   109.5600471 388.275200
   1278   1277   1279     1   108.4600466 328.025600
   1279   1277   1289     1   109.5600471 388.275200
   1280   1292   1293     1   109.8000471 387.438400
   1280   1292   1294     1   109.8000471 387.438400
   1281   1280   1292     1   109.5600471 388.275200
   1281   1280   1282     1   108.4600466 328.025600
   1282   1280   1292     1   109.5600471 388.275200
   1283   1286   1287     1   109.8000471 387.438400
   1283   1286   1288     1   109.8000471 387.438400
   1284   1283   1286     1   109.5600471 388.275200
   1284   1283   1285     1   108.4600466 328.025600
   1285   1283   1286     1   109.5600471 388.275200
   1286   1295   1296     1   109.5600471 388.275200
   1286   1295   1297     1   109.5600471 388.275200
   1287   1286   1295     1   109.8000471 387.438400
   1287   1286   1288     1   107.5800459 329.699200
   1288   1286   1295     1   109.8000471 387.438400
   1289   1301   1302     1   109.5600471 388.275200
   1289   1301   1303     1   109.5600471 388.275200
   1290   1289   1301     1   109.8000471 387.438400
   1290   1289   1291     1   107.5800459 329.699200
   1291   1289   1301     1   109.8000471 387.438400
   1292   1298   1299     1   109.5600471 388.275200
   1292   1298   1300     1   109.5600471 388.275200
   1293   1292   1298     1   109.8000471 387.438400
   1293   1292   1294     1   107.5800459 329.699200
   1294   1292   1298     1   109.8000471 387.438400
   1296   1295   1304     1   109.7800468 425.094400
   1296   1295   1297     1   108.4600466 328.025600
   1297   1295   1304     1   109.7800468 425.094400
   1299   1298   2638     1   109.7800468 425.094400
   1299   1298   1300     1   108.4600466 328.025600
   1300   1298   2638     1   109.7800468 425.094400
   1302   1301   2667     1   109.7800468 425.094400
   1302   1301   1303     1   108.4600466 328.025600
   1303   1301   2667     1   109.7800468 425.094400
   1305   1306   1307     1   109.8800469 414.216000
   1305   1306   1308     1   109.8800469 414.216000
   1305   1309   1310     1   109.8800469 414.216000
   1305   1309   1311     1   109.8800469 414.216000
   1305   1312   1313     1   109.8800469 414.216000
   1305   1312   1314     1   109.8800469 414.216000
   1306   1318   1319     1   109.8000471 387.438400
   1306   1318   1320     1   109.8000471 387.438400
   1307   1306   1318     1   109.5600471 388.275200
   1307   1306   1308     1   108.4600466 328.025600
   1308   1306   1318     1   109.5600471 388.275200
   1309   1321   1322     1   109.8000471 387.438400
   1309   1321   1323     1   109.8000471 387.438400
   1310   1309   1321     1   109.5600471 388.275200
   1310   1309   1311     1   108.4600466 328.025600
   1311   1309   1321     1   109.5600471 388.275200
   1312   1315   1316     1   109.8000471 387.438400
   1312   1315   1317     1   109.8000471 387.438400
   1313   1312   1315     1   109.5600471 388.275200
   1313   1312   1314     1   108.4600466 328.025600
   1314   1312   1315     1   109.5600471 388.275200
   1315   1324   1325     1   109.5600471 388.275200
   1315   1324   1326     1   109.5600471 388.275200
   1316   1315   1324     1   109.8000471 387.438400
   1316   1315   1317     1   107.5800459 329.699200
   1317   1315   1324     1   109.8000471 387.438400
   1318   1330   1331     1   109.5600471 388.275200
   1318   1330   1332     1   109.5600471 388.275200
   1319   1318   1330     1   109.8000471 387.438400
   1319   1318   1320     1   107.5800459 329.699200
   1320   1318   1330     1   109.8000471 387.438400
   1321   1327   1328     1   109.5600471 388.275200
   1321   1327   1329     1   109.5600471 388.275200
   1322   1321   1327     1   109.8000471 387.438400
   1322   1321   1323     1   107.5800459 329.699200
   1323   1321   1327     1   109.8000471 387.438400
   1325   1324   1333     1   109.7800468 425.094400
   1325   1324   1326     1   108.4600466 328.025600
   1326   1324   1333     1   109.7800468 425.094400
   1328   1327   2696     1   109.7800468 425.094400
   1328   1327   1329     1   108.4600466 328.025600
   1329   1327   2696     1   109.7800468 425.094400
   1331   1330   2725     1   109.7800468 425.094400
   1331   1330   1332     1   108.4600466 328.025600
   1332   1330   2725     1   109.7800468 425.094400
   1334   1335   1336     1   109.8800469 414.216000
   1334   1335   1337     1   109.8800469 414.216000
   1334   1338   1339     1   109.8800469 414.216000
   1334   1338   1340     1   109.8800469 414.216000
   1334   1341   1342     1   109.8800469 414.216000
   1334   1341   1343     1   109.8800469 414.216000
   1335   1347   1348     1   109.8000471 387.438400
   1335   1347   1349     1   109.8000471 387.438400
   1336   1335   1347     1   109.5600471 388.275200
   1336   1335   1337     1   108.4600466 328.025600
   1337   1335   1347     1   109.5600471 388.275200
   1338   1350   1351     1   109.8000471 387.438400
   1338   1350   1352     1   109.8000471 387.438400
   1339   1338   1350     1   109.5600471 388.275200
   1339   1338   1340     1   108.4600466 328.025600
   1340   1338   1350     1   109.5600471 388.275200
   1341   1344   1345     1   109.8000471 387.438400
   1341   1344   1346     1   109.8000471 387.438400
   1342   1341   1344     1   109.5600471 388.275200
   1342   1341   1343     1   108.4600466 328.025600
   1343   1341   1344     1   109.5600471 388.275200
   1344   1353   1354     1   109.5600471 388.275200
   1344   1353   1355     1   109.5600471 388.275200
   1345   1344   1353     1   109.8000471 387.438400
   1345   1344   1346     1   107.5800459 329.699200
   1346   1344   1353     1   109.8000471 387.438400
   1347   1359   1360     1   109.5600471 388.275200
   1347   1359   1361     1   109.5600471 388.275200
   1348   1347   1359     1   109.8000471 387.438400
   1348   1347   1349     1   107.5800459 329.699200
   1349   1347   1359     1   109.8000471 387.438400
   1350   1356   1357     1   109.5600471 388.275200
   1350   1356   1358     1   109.5600471 388.275200
   1351   1350   1356     1   109.8000471 387.438400
   1351   1350   1352     1   107.5800459 329.699200
   1352   1350   1356     1   109.8000471 387.438400
   1354   1353   1362     1   109.7800468 425.094400
   1354   1353   1355     1   108.4600466 328.025600
   1355   1353   1362     1   109.7800468 425.094400
   1357   1356   2754     1   109.7800468 425.094400
   1357   1356   1358     1   108.4600466 328.025600
   1358   1356   2754     1   109.7800468 425.094400
   1360   1359   2783     1   109.7800468 425.094400
   1360   1359   1361     1   108.4600466 328.025600
   1361   1359   2783     1   109.7800468 425.094400
   1363   1364   1365     1   109.8800469 414.216000
   1363   1364   1366     1   109.8800469 414.216000
   1363   1367   1368     1   109.8800469 414.216000
   1363   1367   1369     1   109.8800469 414.216000
   1363   1370   1371     1   109.8800469 414.216000
   1363   1370   1372     1   109.8800469 414.216000
   1364   1376   1377     1   109.8000471 387.438400
   1364   1376   1378     1   109.8000471 387.438400
   1365   1364   1376     1   109.5600471 388.275200
   1365   1364   1366     1   108.4600466 328.025600
   1366   1364   1376     1   109.5600471 388.275200
   1367   1379   1380     1   109.8000471 387.438400
   1367   1379   1381     1   109.8000471 387.438400
   1368   1367   1379     1   109.5600471 388.275200
   1368   1367   1369     1   108.4600466 328.025600
   1369   1367   1379     1   109.5600471 388.275200
   1370   1373   1374     1   109.8000471 387.438400
   1370   1373   1375     1   109.8000471 387.438400
   1371   1370   1373     1   109.5600471 388.275200
   1371   1370   1372     1   108.4600466 328.025600
   1372   1370   1373     1   109.5600471 388.275200
   1373   1382   1383     1   109.5600471 388.275200
   1373   1382   1384     1   109.5600471 388.275200
   1374   1373   1382     1   109.8000471 387.438400
   1374   1373   1375     1   107.5800459 329.699200
   1375   1373   1382     1   109.8000471 387.438400
   1376   1388   1389     1   109.5600471 388.275200
   1376   1388   1390     1   109.5600471 388.275200
   1377   1376   1388     1   109.8000471 387.438400
   1377   1376   1378     1   107.5800459 329.699200
   1378   1376   1388     1   109.8000471 387.438400
   1379   1385   1386     1   109.5600471 388.275200
   1379   1385   1387     1   109.5600471 388.275200
   1380   1379   1385     1   109.8000471 387.438400
   1380   1379   1381     1   107.5800459 329.699200
   1381   1379   1385     1   109.8000471 387.438400
   1383   1382   1391     1   109.7800468 425.094400
   1383   1382   1384     1   108.4600466 328.025600
   1384   1382   1391     1   109.7800468 425.094400
   1386   1385   2812     1   109.7800468 425.094400
   1386   1385   1387     1   108.4600466 328.025600
   1387   1385   2812     1   109.7800468 425.094400
   1389   1388   2841     1   109.7800468 425.094400
   1389   1388   1390     1   108.4600466 328.025600
   1390   1388   2841     1   109.7800468 425.094400
   1392   1393   1394     1   109.8800469 414.216000
   1392   1393   1395     1   109.8800469 414.216000
   1392   1396   1397     1   109.8800469 414.216000
   1392   1396   1398     1   109.8800469 414.216000
   1392   1399   1400     1   109.8800469 414.216000
   1392   1399   1401     1   109.8800469 414.216000
   1393   1405   1406     1   109.8000471 387.438400
   1393   1405   1407     1   109.8000471 387.438400
   1394   1393   1405     1   109.5600471 388.275200
   1394   1393   1395     1   108.4600466 328.025600
   1395   1393   1405     1   109.5600471 388.275200
   1396   1408   1409     1   109.8000471 387.438400
   1396   1408   1410     1   109.8000471 387.438400
   1397   1396   1408     1   109.5600471 388.275200
   1397   1396   1398     1   108.4600466 328.025600
   1398   1396   1408     1   109.5600471 388.275200
   1399   1402   1403     1   109.8000471 387.438400
   1399   1402   1404     1   109.8000471 387.438400
   1400   1399   1402     1   109.5600471 388.275200
   1400   1399   1401     1   108.4600466 328.025600
   1401   1399   1402     1   109.5600471 388.275200
   1402   1411   1412     1   109.5600471 388.275200
   1402   1411   1413     1   109.5600471 388.275200
   1403   1402   1411     1   109.8000471 387.438400
   1403   1402   1404     1   107.5800459 329.699200
   1404   1402   1411     1   109.8000471 387.438400
   1405   1417   1418     1   109.5600471 388.275200
   1405   1417   1419     1   109.5600471 388.275200
   1406   1405   1417     1   109.8000471 387.438400
   1406   1405   1407     1   107.5800459 329.699200
   1407   1405   1417     1   109.8000471 387.438400
   1408   1414   1415     1   109.5600471 388.275200
   1408   1414   1416     1   109.5600471 388.275200
   1409   1408   1414     1   109.8000471 387.438400
   1409   1408   1410     1   107.5800459 329.699200
   1410   1408   1414     1   109.8000471 387.438400
   1412   1411   1420     1   109.7800468 425.094400
   1412   1411   1413     1   108.4600466 328.025600
   1413   1411   1420     1   109.7800468 425.094400
   1415   1414   2870     1   109.7800468 425.094400
   1415   1414   1416     1   108.4600466 328.025600
   1416   1414   2870     1   109.7800468 425.094400
   1418   1417   2899     1   109.7800468 425.094400
   1418   1417   1419     1   108.4600466 328.025600
   1419   1417   2899     1   109.7800468 425.094400
   1421   1422   1423     1   109.8800469 414.216000
   1421   1422   1424     1   109.8800469 414.216000
   1421   1425   1426     1   109.8800469 414.216000
   1421   1425   1427     1   109.8800469 414.216000
   1421   1428   1429     1   109.8800469 414.216000
   1421   1428   1430     1   109.8800469 414.216000
   1422   1434   1435     1   109.8000471 387.438400
   1422   1434   1436     1   109.8000471 387.438400
   1423   1422   1434     1   109.5600471 388.275200
   1423   1422   1424     1   108.4600466 328.025600
   1424   1422   1434     1   109.5600471 388.275200
   1425   1437   1438     1   109.8000471 387.438400
   1425   1437   1439     1   109.8000471 387.438400
   1426   1425   1437     1   109.5600471 388.275200
   1426   1425   1427     1   108.4600466 328.025600
   1427   1425   1437     1   109.5600471 388.275200
   1428   1431   1432     1   109.8000471 387.438400
   1428   1431   1433     1   109.8000471 387.438400
   1429   1428   1431     1   109.5600471 388.275200
   1429   1428   1430     1   108.4600466 328.025600
   1430   1428   1431     1   109.5600471 388.275200
   1431   1440   1441     1   109.5600471 388.275200
   1431   1440   1442     1   109.5600471 388.275200
   1432   1431   1440     1   109.8000471 387.438400
   1432   1431   1433     1   107.5800459 329.699200
   1433   1431   1440     1   109.8000471 387.438400
   1434   1446   1447     1   109.5600471 388.275200
   1434   1446   1448     1   109.5600471 388.275200
   1435   1434   1446     1   109.8000471 387.438400
   1435   1434   1436     1   107.5800459 329.699200
   1436   1434   1446     1   109.8000471 387.438400
   1437   1443   1444     1   109.5600471 388.275200
   1437   1443   1445     1   109.5600471 388.275200
   1438   1437   1443     1   109.8000471 387.438400
   1438   1437   1439     1   107.5800459 329.699200
   1439   1437   1443     1   109.8000471 387.438400
   1441   1440   1449     1   109.7800468 425.094400
   1441   1440   1442     1   108.4600466 328.025600
   1442   1440   1449     1   109.7800468 425.094400
   1444   1443   2928     1   109.7800468 425.094400
   1444   1443   1445     1   108.4600466 328.025600
   1445   1443   2928     1   109.7800468 425.094400
   1447   1446   2957     1   109.7800468 425.094400
   1447   1446   1448     1   108.4600466 328.025600
   1448   1446   2957     1   109.7800468 425.094400
   1450   1451   1452     1   109.8800469 414.216000
   1450   1451   1453     1   109.8800469 414.216000
   1450   1454   1455     1   109.8800469 414.216000
   1450   1454   1456     1   109.8800469 414.216000
   1450   1457   1458     1   109.8800469 414.216000
   1450   1457   1459     1   109.8800469 414.216000
   1451   1463   1464     1   109.8000471 387.438400
   1451   1463   1465     1   109.8000471 387.438400
   1452   1451   1463     1   109.5600471 388.275200
   1452   1451   1453     1   108.4600466 328.025600
   1453   1451   1463     1   109.5600471 388.275200
   1454   1466   1467     1   109.8000471 387.438400
   1454   1466   1468     1   109.8000471 387.438400
   1455   1454   1466     1   109.5600471 388.275200
   1455   1454   1456     1   108.4600466 328.025600
   1456   1454   1466     1   109.5600471 388.275200
   1457   1460   1461     1   109.8000471 387.438400
   1457   1460   1462     1   109.8000471 387.438400
   1458   1457   1460     1   109.5600471 388.275200
   1458   1457   1459     1   108.4600466 328.025600
   1459   1457   1460     1   109.5600471 388.275200
   1460   1469   1470     1   109.5600471 388.275200
   1460   1469   1471     1   109.5600471 388.275200
   1461   1460   1469     1   109.8000471 387.438400
   1461   1460   1462     1   107.5800459 329.699200
   1462   1460   1469     1   109.8000471 387.438400
   1463   1475   1476     1   109.5600471 388.275200
   1463   1475   1477     1   109.5600471 388.275200
   1464   1463   1475     1   109.8000471 387.438400
   1464   1463   1465     1   107.5800459 329.699200
   1465   1463   1475     1   109.8000471 387.438400
   1466   1472   1473     1   109.5600471 388.275200
   1466   1472   1474     1   109.5600471 388.275200
   1467   1466   1472     1   109.8000471 387.438400
   1467   1466   1468     1   107.5800459 329.699200
   1468   1466   1472     1   109.8000471 387.438400
   1470   1469   1478     1   109.7800468 425.094400
   1470   1469   1471     1   108.4600466 328.025600
   1471   1469   1478     1   109.7800468 425.094400
   1473   1472   2986     1   109.7800468 425.094400
   1473   1472   1474     1   108.4600466 328.025600
   1474   1472   2986     1   109.7800468 425.094400
   1476   1475   3015     1   109.7800468 425.094400
   1476   1475   1477     1   108.4600466 328.025600
   1477   1475   3015     1   109.7800468 425.094400
   1479   1480   1481     1   109.8800469 414.216000
   1479   1480   1482     1   109.8800469 414.216000
   1479   1483   1484     1   109.8800469 414.216000
   1479   1483   1485     1   109.8800469 414.216000
   1479   1486   1487     1   109.8800469 414.216000
   1479   1486   1488     1   109.8800469 414.216000
   1480   1492   1493     1   109.8000471 387.438400
   1480   1492   1494     1   109.8000471 387.438400
   1481   1480   1492     1   109.5600471 388.275200
   1481   1480   1482     1   108.4600466 328.025600
   1482   1480   1492     1   109.5600471 388.275200
   1483   1495   1496     1   109.8000471 387.438400
   1483   1495   1497     1   109.8000471 387.438400
   1484   1483   1495     1   109.5600471 388.275200
   1484   1483   1485     1   108.4600466 328.025600
   1485   1483   1495     1   109.5600471 388.275200
   1486   1489   1490     1   109.8000471 387.438400
   1486   1489   1491     1   109.8000471 387.438400
   1487   1486   1489     1   109.5600471 388.275200
   1487   1486   1488     1   108.4600466 328.025600
   1488   1486   1489     1   109.5600471 388.275200
   1489   1498   1499     1   109.5600471 388.275200
   1489   1498   1500     1   109.5600471 388.275200
   1490   1489   1498     1   109.8000471 387.438400
   1490   1489   1491     1   107.5800459 329.699200
   1491   1489   1498     1   109.8000471 387.438400
   1492   1504   1505     1   109.5600471 388.275200
   1492   1504   1506     1   109.5600471 388.275200
   1493   1492   1504     1   109.8000471 387.438400
   1493   1492   1494     1   107.5800459 329.699200
   1494   1492   1504     1   109.8000471 387.438400
   1495   1501   1502     1   109.5600471 388.275200
   1495   1501   1503     1   109.5600471 388.275200
   1496   1495   1501     1   109.8000471 387.438400
   1496   1495   1497     1   107.5800459 329.699200
   1497   1495   1501     1   109.8000471 387.438400
   1499   1498   1507     1   109.7800468 425.094400
   1499   1498   1500     1   108.4600466 328.025600
   1500   1498   1507     1   109.7800468 425.094400
   1502   1501   3044     1   109.7800468 425.094400
   1502   1501   1503     1   108.4600466 328.025600
   1503   1501   3044     1   109.7800468 425.094400
   1505   1504   3073     1   109.7800468 425.094400
   1505   1504   1506     1   108.4600466 328.025600
   1506   1504   3073     1   109.7800468 425.094400
   1508   1509   1510     1   109.8800469 414.216000
   1508   1509   1511     1   109.8800469 414.216000
   1508   1512   1513     1   109.8800469 414.216000
   1508   1512   1514     1   109.8800469 414.216000
   1508   1515   1516     1   109.8800469 414.216000
   1508   1515   1517     1   109.8800469 414.216000
   1509   1521   1522     1   109.8000471 387.438400
   1509   1521   1523     1   109.8000471 387.438400
   1510   1509   1521     1   109.5600471 388.275200
   1510   1509   1511     1   108.4600466 328.025600
   1511   1509   1521     1   109.5600471 388.275200
   1512   1524   1525     1   109.8000471 387.438400
   1512   1524   1526     1   109.8000471 387.438400
   1513   1512   1524     1   109.5600471 388.275200
   1513   1512   1514     1   108.4600466 328.025600
   1514   1512   1524     1   109.5600471 388.275200
   1515   1518   1519     1   109.8000471 387.438400
   1515   1518   1520     1   109.8000471 387.438400
   1516   1515   1518     1   109.5600471 388.275200
   1516   1515   1517     1   108.4600466 328.025600
   1517   1515   1518     1   109.5600471 388.275200
   1518   1527   1528     1   109.5600471 388.275200
   1518   1527   1529     1   109.5600471 388.275200
   1519   1518   1527     1   109.8000471 387.438400
   1519   1518   1520     1   107.5800459 329.699200
   1520   1518   1527     1   109.8000471 387.438400
   1521   1533   1534     1   109.5600471 388.275200
   1521   1533   1535     1   109.5600471 388.275200
   1522   1521   1533     1   109.8000471 387.438400
   1522   1521   1523     1   107.5800459 329.699200
   1523   1521   1533     1   109.8000471 387.438400
   1524   1530   1531     1   109.5600471 388.275200
   1524   1530   1532     1   109.5600471 388.275200
   1525   1524   1530     1   109.8000471 387.438400
   1525   1524   1526     1   107.5800459 329.699200
   1526   1524   1530     1   109.8000471 387.438400
   1528   1527   1536     1   109.7800468 425.094400
   1528   1527   1529     1   108.4600466 328.025600
   1529   1527   1536     1   109.7800468 425.094400
   1531   1530   3102     1   109.7800468 425.094400
   1531   1530   1532     1   108.4600466 328.025600
   1532   1530   3102     1   109.7800468 425.094400
   1534   1533   3131     1   109.7800468 425.094400
   1534   1533   1535     1   108.4600466 328.025600
   1535   1533   3131     1   109.7800468 425.094400
   1537   1538   1539     1   109.8800469 414.216000
   1537   1538   1540     1   109.8800469 414.216000
   1537   1541   1542     1   109.8800469 414.216000
   1537   1541   1543     1   109.8800469 414.216000
   1537   1544   1545     1   109.8800469 414.216000
   1537   1544   1546     1   109.8800469 414.216000
   1538   1550   1551     1   109.8000471 387.438400
   1538   1550   1552     1   109.8000471 387.438400
   1539   1538   1550     1   109.5600471 388.275200
   1539   1538   1540     1   108.4600466 328.025600
   1540   1538   1550     1   109.5600471 388.275200
   1541   1553   1554     1   109.8000471 387.438400
   1541   1553   1555     1   109.8000471 387.438400
   1542   1541   1553     1   109.5600471 388.275200
   1542   1541   1543     1   108.4600466 328.025600
   1543   1541   1553     1   109.5600471 388.275200
   1544   1547   1548     1   109.8000471 387.438400
   1544   1547   1549     1   109.8000471 387.438400
   1545   1544   1547     1   109.5600471 388.275200
   1545   1544   1546     1   108.4600466 328.025600
   1546   1544   1547     1   109.5600471 388.275200
   1547   1556   1557     1   109.5600471 388.275200
   1547   1556   1558     1   109.5600471 388.275200
   1548   1547   1556     1   109.8000471 387.438400
   1548   1547   1549     1   107.5800459 329.699200
   1549   1547   1556     1   109.8000471 387.438400
   1550   1562   1563     1   109.5600471 388.275200
   1550   1562   1564     1   109.5600471 388.275200
   1551   1550   1562     1   109.8000471 387.438400
   1551   1550   1552     1   107.5800459 329.699200
   1552   1550   1562     1   109.8000471 387.438400
   1553   1559   1560     1   109.5600471 388.275200
   1553   1559   1561     1   109.5600471 388.275200
   1554   1553   1559     1   109.8000471 387.438400
   1554   1553   1555     1   107.5800459 329.699200
   1555   1553   1559     1   109.8000471 387.438400
   1557   1556   1565     1   109.7800468 425.094400
   1557   1556   1558     1   108.4600466 328.025600
   1558   1556   1565     1   109.7800468 425.094400
   1560   1559   3160     1   109.7800468 425.094400
   1560   1559   1561     1   108.4600466 328.025600
   1561   1559   3160     1   109.7800468 425.094400
   1563   1562   3189     1   109.7800468 425.094400
   1563   1562   1564     1   108.4600466 328.025600
   1564   1562   3189     1   109.7800468 425.094400
   1566   1567   1568     1   109.8800469 414.216000
   1566   1567   1569     1   109.8800469 414.216000
   1566   1570   1571     1   109.8800469 414.216000
   1566   1570   1572     1   109.8800469 414.216000
   1566   1573   1574     1   109.8800469 414.216000
   1566   1573   1575     1   109.8800469 414.216000
   1567   1579   1580     1   109.8000471 387.438400
   1567   1579   1581     1   109.8000471 387.438400
   1568   1567   1579     1   109.5600471 388.275200
   1568   1567   1569     1   108.4600466 328.025600
   1569   1567   1579     1   109.5600471 388.275200
   1570   1582   1583     1   109.8000471 387.438400
   1570   1582   1584     1   109.8000471 387.438400
   1571   1570   1582     1   109.5600471 388.275200
   1571   1570   1572     1   108.4600466 328.025600
   1572   1570   1582     1   109.5600471 388.275200
   1573   1576   1577     1   109.8000471 387.438400
   1573   1576   1578     1   109.8000471 387.438400
   1574   1573   1576     1   109.5600471 388.275200
   1574   1573   1575     1   108.4600466 328.025600
   1575   1573   1576     1   109.5600471 388.275200
   1576   1585   1586     1   109.5600471 388.275200
   1576   1585   1587     1   109.5600471 388.275200
   1577   1576   1585     1   109.8000471 387.438400
   1577   1576   1578     1   107.5800459 329.699200
   1578   1576   1585     1   109.8000471 387.438400
   1579   1591   1592     1   109.5600471 388.275200
   1579   1591   1593     1   109.5600471 388.275200
   1580   1579   1591     1   109.8000471 387.438400
   1580   1579   1581     1   107.5800459 329.699200
   1581   1579   1591     1   109.8000471 387.438400
   1582   1588   1589     1   109.5600471 388.275200
   1582   1588   1590     1   109.5600471 388.275200
   1583   1582   1588     1   109.8000471 387.438400
   1583   1582   1584     1   107.5800459 329.699200
   1584   1582   1588     1   109.8000471 387.438400
   1586   1585   1594     1   109.7800468 425.094400
   1586   1585   1587     1   108.4600466 328.025600
   1587   1585   1594     1   109.7800468 425.094400
   1589   1588   3218     1   109.7800468 425.094400
   1589   1588   1590     1   108.4600466 328.025600
   1590   1588   3218     1   109.7800468 425.094400
   1592   1591   3247     1   109.7800468 425.094400
   1592   1591   1593     1   108.4600466 328.025600
   1593   1591   3247     1   109.7800468 425.094400
   1595   1596   1597     1   109.8800469 414.216000
   1595   1596   1598     1   109.8800469 414.216000
   1595   1599   1600     1   109.8800469 414.216000
   1595   1599   1601     1   109.8800469 414.216000
   1595   1602   1603     1   109.8800469 414.216000
   1595   1602   1604     1   109.8800469 414.216000
   1596   1608   1609     1   109.8000471 387.438400
   1596   1608   1610     1   109.8000471 387.438400
   1597   1596   1608     1   109.5600471 388.275200
   1597   1596   1598     1   108.4600466 328.025600
   1598   1596   1608     1   109.5600471 388.275200
   1599   1611   1612     1   109.8000471 387.438400
   1599   1611   1613     1   109.8000471 387.438400
   1600   1599   1611     1   109.5600471 388.275200
   1600   1599   1601     1   108.4600466 328.025600
   1601   1599   1611     1   109.5600471 388.275200
   1602   1605   1606     1   109.8000471 387.438400
   1602   1605   1607     1   109.8000471 387.438400
   1603   1602   1605     1   109.5600471 388.275200
   1603   1602   1604     1   108.4600466 328.025600
   1604   1602   1605     1   109.5600471 388.275200
   1605   1614   1615     1   109.5600471 388.275200
   1605   1614   1616     1   109.5600471 388.275200
   1606   1605   1614     1   109.8000471 387.438400
   1606   1605   1607     1   107.5800459 329.699200
   1607   1605   1614     1   109.8000471 387.438400
   1608   1620   1621     1   109.5600471 388.275200
   1608   1620   1622     1   109.5600471 388.275200
   1609   1608   1620     1   109.8000471 387.438400
   1609   1608   1610     1   107.5800459 329.699200
   1610   1608   1620     1   109.8000471 387.438400
   1611   1617   1618     1   109.5600471 388.275200
   1611   1617   1619     1   109.5600471 388.275200
   1612   1611   1617     1   109.8000471 387.438400
   1612   1611   1613     1   107.5800459 329.699200
   1613   1611   1617     1   109.8000471 387.438400
   1615   1614   1623     1   109.7800468 425.094400
   1615   1614   1616     1   108.4600466 328.025600
   1616   1614   1623     1   109.7800468 425.094400
   1618   1617   3276     1   109.7800468 425.094400
   1618   1617   1619     1   108.4600466 328.025600
   1619   1617   3276     1   109.7800468 425.094400
   1621   1620   3305     1   109.7800468 425.094400
   1621   1620   1622     1   108.4600466 328.025600
   1622   1620   3305     1   109.7800468 425.094400
   1624   1625   1626     1   109.8800469 414.216000
   1624   1625   1627     1   109.8800469 414.216000
   1624   1628   1629     1   109.8800469 414.216000
   1624   1628   1630     1   109.8800469 414.216000
   1624   1631   1632     1   109.8800469 414.216000
   1624   1631   1633     1   109.8800469 414.216000
   1625   1637   1638     1   109.8000471 387.438400
   1625   1637   1639     1   109.8000471 387.438400
   1626   1625   1637     1   109.5600471 388.275200
   1626   1625   1627     1   108.4600466 328.025600
   1627   1625   1637     1   109.5600471 388.275200
   1628   1640   1641     1   109.8000471 387.438400
   1628   1640   1642     1   109.8000471 387.438400
   1629   1628   1640     1   109.5600471 388.275200
   1629   1628   1630     1   108.4600466 328.025600
   1630   1628   1640     1   109.5600471 388.275200
   1631   1634   1635     1   109.8000471 387.438400
   1631   1634   1636     1   109.8000471 387.438400
   1632   1631   1634     1   109.5600471 388.275200
   1632   1631   1633     1   108.4600466 328.025600
   1633   1631   1634     1   109.5600471 388.275200
   1634   1643   1644     1   109.5600471 388.275200
   1634   1643   1645     1   109.5600471 388.275200
   1635   1634   1643     1   109.8000471 387.438400
   1635   1634   1636     1   107.5800459 329.699200
   1636   1634   1643     1   109.8000471 387.438400
   1637   1649   1650     1   109.5600471 388.275200
   1637   1649   1651     1   109.5600471 388.275200
   1638   1637   1649     1   109.8000471 387.438400
   1638   1637   1639     1   107.5800459 329.699200
   1639   1637   1649     1   109.8000471 387.438400
   1640   1646   1647     1   109.5600471 388.275200
   1640   1646   1648     1   109.5600471 388.275200
   1641   1640   1646     1   109.8000471 387.438400
   1641   1640   1642     1   107.5800459 329.699200
   1642   1640   1646     1   109.8000471 387.438400
   1644   1643   1652     1   109.7800468 425.094400
   1644   1643   1645     1   108.4600466 328.025600
   1645   1643   1652     1   109.7800468 425.094400
   1647   1646   3334     1   109.7800468 425.094400
   1647   1646   1648     1   108.4600466 328.025600
   1648   1646   3334     1   109.7800468 425.094400
   1650   1649   3363     1   109.7800468 425.094400
   1650   1649   1651     1   108.4600466 328.025600
   1651   1649   3363     1   109.7800468 425.094400
   1653   1654   1655     1   109.8800469 414.216000
   1653   1654   1656     1   109.8800469 414.216000
   1653   1657   1658     1   109.8800469 414.216000
   1653   1657   1659     1   109.8800469 414.216000
   1653   1660   1661     1   109.8800469 414.216000
   1653   1660   1662     1   109.8800469 414.216000
   1654   1666   1667     1   109.8000471 387.438400
   1654   1666   1668     1   109.8000471 387.438400
   1655   1654   1666     1   109.5600471 388.275200
   1655   1654   1656     1   108.4600466 328.025600
   1656   1654   1666     1   109.5600471 388.275200
   1657   1669   1670     1   109.8000471 387.438400
   1657   1669   1671     1   109.8000471 387.438400
   1658   1657   1669     1   109.5600471 388.275200
   1658   1657   1659     1   108.4600466 328.025600
   1659   1657   1669     1   109.5600471 388.275200
   1660   1663   1664     1   109.8000471 387.438400
   1660   1663   1665     1   109.8000471 387.438400
   1661   1660   1663     1   109.5600471 388.275200
   1661   1660   1662     1   108.4600466 328.025600
   1662   1660   1663     1   109.5600471 388.275200
   1663   1672   1673     1   109.5600471 388.275200
   1663   1672   1674     1   109.5600471 388.275200
   1664   1663   1672     1   109.8000471 387.438400
   1664   1663   1665     1   107.5800459 329.699200
   1665   1663   1672     1   109.8000471 387.438400
   1666   1678   1679     1   109.5600471 388.275200
   1666   1678   1680     1   109.5600471 388.275200
   1667   1666   1678     1   109.8000471 387.438400
   1667   1666   1668     1   107.5800459 329.699200
   1668   1666   1678     1   109.8000471 387.438400
   1669   1675   1676     1   109.5600471 388.275200
   1669   1675   1677     1   109.5600471 388.275200
   1670   1669   1675     1   109.8000471 387.438400
   1670   1669   1671     1   107.5800459 329.699200
   1671   1669   1675     1   109.8000471 387.438400
   1673   1672   1681     1   109.7800468 425.094400
   1673   1672   1674     1   108.4600466 328.025600
   1674   1672   1681     1   109.7800468 425.094400
   1676   1675   3392     1   109.7800468 425.094400
   1676   1675   1677     1   108.4600466 328.025600
   1677   1675   3392     1   109.7800468 425.094400
   1679   1678   3421     1   109.7800468 425.094400
   1679   1678   1680     1   108.4600466 328.025600
   1680   1678   3421     1   109.7800468 425.094400
   1682   1683   1684     1   109.8800469 414.216000
   1682   1683   1685     1   109.8800469 414.216000
   1682   1686   1687     1   109.8800469 414.216000
   1682   1686   1688     1   109.8800469 414.216000
   1682   1689   1690     1   109.8800469 414.216000
   1682   1689   1691     1   109.8800469 414.216000
   1683   1695   1696     1   109.8000471 387.438400
   1683   1695   1697     1   109.8000471 387.438400
   1684   1683   1695     1   109.5600471 388.275200
   1684   1683   1685     1   108.4600466 328.025600
   1685   1683   1695     1   109.5600471 388.275200
   1686   1698   1699     1   109.8000471 387.438400
   1686   1698   1700     1   109.8000471 387.438400
   1687   1686   1698     1   109.5600471 388.275200
   1687   1686   1688     1   108.4600466 328.025600
   1688   1686   1698     1   109.5600471 388.275200
   1689   1692   1693     1   109.8000471 387.438400
   1689   1692   1694     1   109.8000471 387.438400
   1690   1689   1692     1   109.5600471 388.275200
   1690   1689   1691     1   108.4600466 328.025600
   1691   1689   1692     1   109.5600471 388.275200
   1692   1701   1702     1   109.5600471 388.275200
   1692   1701   1703     1   109.5600471 388.275200
   1693   1692   1701     1   109.8000471 387.438400
   1693   1692   1694     1   107.5800459 329.699200
   1694   1692   1701     1   109.8000471 387.438400
   1695   1707   1708     1   109.5600471 388.275200
   1695   1707   1709     1   109.5600471 388.275200
   1696   1695   1707     1   109.8000471 387.438400
   1696   1695   1697     1   107.5800459 329.699200
   1697   1695   1707     1   109.8000471 387.438400
   1698   1704   1705     1   109.5600471 388.275200
   1698   1704   1706     1   109.5600471 388.275200
   1699   1698   1704     1   109.8000471 387.438400
   1699   1698   1700     1   107.5800459 329.699200
   1700   1698   1704     1   109.8000471 387.438400
   1702   1701   1710     1   109.7800468 425.094400
   1702   1701   1703     1   108.4600466 328.025600
   1703   1701   1710     1   109.7800468 425.094400
   1705   1704   3450     1   109.7800468 425.094400
   1705   1704   1706     1   108.4600466 328.025600
   1706   1704   3450     1   109.7800468 425.094400
   1708   1707   3479     1   109.7800468 425.094400
   1708   1707   1709     1   108.4600466 328.025600
   1709   1707   3479     1   109.7800468 425.094400
   1711   1712   1713     1   109.8800469 414.216000
   1711   1712   1714     1   109.8800469 414.216000
   1711   1715   1716     1   109.8800469 414.216000
   1711   1715   1717     1   109.8800469 414.216000
   1711   1718   1719     1   109.8800469 414.216000
   1711   1718   1720     1   109.8800469 414.216000
   1712   1724   1725     1   109.8000471 387.438400
   1712   1724   1726     1   109.8000471 387.438400
   1713   1712   1724     1   109.5600471 388.275200
   1713   1712   1714     1   108.4600466 328.025600
   1714   1712   1724     1   109.5600471 388.275200
   1715   1727   1728     1   109.8000471 387.438400
   1715   1727   1729     1   109.8000471 387.438400
   1716   1715   1727     1   109.5600471 388.275200
   1716   1715   1717     1   108.4600466 328.025600
   1717   1715   1727     1   109.5600471 388.275200
   1718   1721   1722     1   109.8000471 387.438400
   1718   1721   1723     1   109.8000471 387.438400
   1719   1718   1721     1   109.5600471 388.275200
   1719   1718   1720     1   108.4600466 328.025600
   1720   1718   1721     1   109.5600471 388.275200
   1721   1730   1731     1   109.5600471 388.275200
   1721   1730   1732     1   109.5600471 388.275200
   1722   1721   1730     1   109.8000471 387.438400
   1722   1721   1723     1   107.5800459 329.699200
   1723   1721   1730     1   109.8000471 387.438400
   1724   1736   1737     1   109.5600471 388.275200
   1724   1736   1738     1   109.5600471 388.275200
   1725   1724   1736     1   109.8000471 387.438400
   1725   1724   1726     1   107.5800459 329.699200
   1726   1724   1736     1   109.8000471 387.438400
   1727   1733   1734     1   109.5600471 388.275200
   1727   1733   1735     1   109.5600471 388.275200
   1728   1727   1733     1   109.8000471 387.438400
   1728   1727   1729     1   107.5800459 329.699200
   1729   1727   1733     1   109.8000471 387.438400
   1731   1730   1739     1   109.7800468 425.094400
   1731   1730   1732     1   108.4600466 328.025600
   1732   1730   1739     1   109.7800468 425.094400
   1734   1733   3508     1   109.7800468 425.094400
   1734   1733   1735     1   108.4600466 328.025600
   1735   1733   3508     1   109.7800468 425.094400
   1737   1736   3537     1   109.7800468 425.094400
   1737   1736   1738     1   108.4600466 328.025600
   1738   1736   3537     1   109.7800468 425.094400
   1740   1741   1742     1   109.8800469 414.216000
   1740   1741   1743     1   109.8800469 414.216000
   1740   1744   1745     1   109.8800469 414.216000
   1740   1744   1746     1   109.8800469 414.216000
   1740   1747   1748     1   109.8800469 414.216000
   1740   1747   1749     1   109.8800469 414.216000
   1741   1753   1754     1   109.8000471 387.438400
   1741   1753   1755     1   109.8000471 387.438400
   1742   1741   1753     1   109.5600471 388.275200
   1742   1741   1743     1   108.4600466 328.025600
   1743   1741   1753     1   109.5600471 388.275200
   1744   1756   1757     1   109.8000471 387.438400
   1744   1756   1758     1   109.8000471 387.438400
   1745   1744   1756     1   109.5600471 388.275200
   1745   1744   1746     1   108.4600466 328.025600
   1746   1744   1756     1   109.5600471 388.275200
   1747   1750   1751     1   109.8000471 387.438400
   1747   1750   1752     1   109.8000471 387.438400
   1748   1747   1750     1   109.5600471 388.275200
   1748   1747   1749     1   108.4600466 328.025600
   1749   1747   1750     1   109.5600471 388.275200
   1750   1759   1760     1   109.5600471 388.275200
   1750   1759   1761     1   109.5600471 388.275200
   1751   1750   1759     1   109.8000471 387.438400
   1751   1750   1752     1   107.5800459 329.699200
   1752   1750   1759     1   109.8000471 387.438400
   1753   1765   1766     1   109.5600471 388.275200
   1753   1765   1767     1   109.5600471 388.275200
   1754   1753   1765     1   109.8000471 387.438400
   1754   1753   1755     1   107.5800459 329.699200
   1755   1753   1765     1   109.8000471 387.438400
   1756   1762   1763     1   109.5600471 388.275200
   1756   1762   1764     1   109.5600471 388.275200
   1757   1756   1762     1   109.8000471 387.438400
   1757   1756   1758     1   107.5800459 329.699200
   1758   1756   1762     1   109.8000471 387.438400
   1760   1759   1768     1   109.7800468 425.094400
   1760   1759   1761     1   108.4600466 328.025600
   1761   1759   1768     1   109.7800468 425.094400
   1763   1762   3566     1   109.7800468 425.094400
   1763   1762   1764     1   108.4600466 328.025600
   1764   1762   3566     1   109.7800468 425.094400
   1766   1765   3595     1   109.7800468 425.094400
   1766   1765   1767     1   108.4600466 328.025600
   1767   1765   3595     1   109.7800468 425.094400
   1769   1770   1771     1   109.8800469 414.216000
   1769   1770   1772     1   109.8800469 414.216000
   1769   1773   1774     1   109.8800469 414.216000
   1769   1773   1775     1   109.8800469 414.216000
   1769   1776   1777     1   109.8800469 414.216000
   1769   1776   1778     1   109.8800469 414.216000
   1770   1782   1783     1   109.8000471 387.438400
   1770   1782   1784     1   109.8000471 387.438400
   1771   1770   1782     1   109.5600471 388.275200
   1771   1770   1772     1   108.4600466 328.025600
   1772   1770   1782     1   109.5600471 388.275200
   1773   1785   1786     1   109.8000471 387.438400
   1773   1785   1787     1   109.8000471 387.438400
   1774   1773   1785     1   109.5600471 388.275200
   1774   1773   1775     1   108.4600466 328.025600
   1775   1773   1785     1   109.5600471 388.275200
   1776   1779   1780     1   109.8000471 387.438400
   1776   1779   1781     1   109.8000471 387.438400
   1777   1776   1779     1   109.5600471 388.275200
   1777   1776   1778     1   108.4600466 328.025600
   1778   1776   1779     1   109.5600471 388.275200
   1779   1788   1789     1   109.5600471 388.275200
   1779   1788   1790     1   109.5600471 388.275200
   1780   1779   1788     1   109.8000471 387.438400
   1780   1779   1781     1   107.5800459 329.699200
   1781   1779   1788     1   109.8000471 387.438400
   1782   1794   1795     1   109.5600471 388.275200
   1782   1794   1796     1   109.5600471 388.275200
   1783   1782   1794     1   109.8000471 387.438400
   1783   1782   1784     1   107.5800459 329.699200
   1784   1782   1794     1   109.8000471 387.438400
   1785   1791   1792     1   109.5600471 388.275200
   1785   1791   1793     1   109.5600471 388.275200
   1786   1785   1791     1   109.8000471 387.438400
   1786   1785   1787     1   107.5800459 329.699200
   1787   1785   1791     1   109.8000471 387.438400
   1789   1788   1797     1   109.7800468 425.094400
   1789   1788   1790     1   108.4600466 328.025600
   1790   1788   1797     1   109.7800468 425.094400
   1792   1791   3624     1   109.7800468 425.094400
   1792   1791   1793     1   108.4600466 328.025600
   1793   1791   3624     1   109.7800468 425.094400
   1795   1794   3653     1   109.7800468 425.094400
   1795   1794   1796     1   108.4600466 328.025600
   1796   1794   3653     1   109.7800468 425.094400
   1798   1799   1800     1   109.8800469 414.216000
   1798   1799   1801     1   109.8800469 414.216000
   1798   1802   1803     1   109.8800469 414.216000
   1798   1802   1804     1   109.8800469 414.216000
   1798   1805   1806     1   109.8800469 414.216000
   1798   1805   1807     1   109.8800469 414.216000
   1799   1811   1812     1   109.8000471 387.438400
   1799   1811   1813     1   109.8000471 387.438400
   1800   1799   1811     1   109.5600471 388.275200
   1800   1799   1801     1   108.4600466 328.025600
   1801   1799   1811     1   109.5600471 388.275200
   1802   1814   1815     1   109.8000471 387.438400
   1802   1814   1816     1   109.8000471 387.438400
   1803   1802   1814     1   109.5600471 388.275200
   1803   1802   1804     1   108.4600466 328.025600
   1804   1802   1814     1   109.5600471 388.275200
   1805   1808   1809     1   109.8000471 387.438400
   1805   1808   1810     1   109.8000471 387.438400
   1806   1805   1808     1   109.5600471 388.275200
   1806   1805   1807     1   108.4600466 328.025600
   1807   1805   1808     1   109.5600471 388.275200
   1808   1817   1818     1   109.5600471 388.275200
   1808   1817   1819     1   109.5600471 388.275200
   1809   1808   1817     1   109.8000471 387.438400
   1809   1808   1810     1   107.5800459 329.699200
   1810   1808   1817     1   109.8000471 387.438400
   1811   1823   1824     1   109.5600471 388.275200
   1811   1823   1825     1   109.5600471 388.275200
   1812   1811   1823     1   109.8000471 387.438400
   1812   1811   1813     1   107.5800459 329.699200
   1813   1811   1823     1   109.8000471 387.438400
   1814   1820   1821     1   109.5600471 388.275200
   1814   1820   1822     1   109.5600471 388.275200
   1815   1814   1820     1   109.8000471 387.438400
   1815   1814   1816     1   107.5800459 329.699200
   1816   1814   1820     1   109.8000471 387.438400
   1818   1817   1826     1   109.7800468 425.094400
   1818   1817   1819     1   108.4600466 328.025600
   1819   1817   1826     1   109.7800468 425.094400
   1821   1820   3682     1   109.7800468 425.094400
   1821   1820   1822     1   108.4600466 328.025600
   1822   1820   3682     1   109.7800468 425.094400
   1824   1823   3711     1   109.7800468 425.094400
   1824   1823   1825     1   108.4600466 328.025600
   1825   1823   3711     1   109.7800468 425.094400
   1827   1828   1829     1   109.8800469 414.216000
   1827   1828   1830     1   109.8800469 414.216000
   1827   1831   1832     1   109.8800469 414.216000
   1827   1831   1833     1   109.8800469 414.216000
   1827   1834   1835     1   109.8800469 414.216000
   1827   1834   1836     1   109.8800469 414.216000
   1828   1840   1841     1   109.8000471 387.438400
   1828   1840   1842     1   109.8000471 387.438400
   1829   1828   1840     1   109.5600471 388.275200
   1829   1828   1830     1   108.4600466 328.025600
   1830   1828   1840     1   109.5600471 388.275200
   1831   1843   1844     1   109.8000471 387.438400
   1831   1843   1845     1   109.8000471 387.438400
   1832   1831   1843     1   109.5600471 388.275200
   1832   1831   1833     1   108.4600466 328.025600
   1833   1831   1843     1   109.5600471 388.275200
   1834   1837   1838     1   109.8000471 387.438400
   1834   1837   1839     1   109.8000471 387.438400
   1835   1834   1837     1   109.5600471 388.275200
   1835   1834   1836     1   108.4600466 328.025600
   1836   1834   1837     1   109.5600471 388.275200
   1837   1846   1847     1   109.5600471 388.275200
   1837   1846   1848     1   109.5600471 388.275200
   1838   1837   1846     1   109.8000471 387.438400
   1838   1837   1839     1   107.5800459 329.699200
   1839   1837   1846     1   109.8000471 387.438400
   1840   1852   1853     1   109.5600471 388.275200
   1840   1852   1854     1   109.5600471 388.275200
   1841   1840   1852     1   109.8000471 387.438400
   1841   1840   1842     1   107.5800459 329.699200
   1842   1840   1852     1   109.8000471 387.438400
   1843   1849   1850     1   109.5600471 388.275200
   1843   1849   1851     1   109.5600471 388.275200
   1844   1843   1849     1   109.8000471 387.438400
   1844   1843   1845     1   107.5800459 329.699200
   1845   1843   1849     1   109.8000471 387.438400
   1847   1846   1855     1   109.7800468 425.094400
   1847   1846   1848     1   108.4600466 328.025600
   1848   1846   1855     1   109.7800468 425.094400
   1850   1849   3740     1   109.7800468 425.094400
   1850   1849   1851     1   108.4600466 328.025600
   1851   1849   3740     1   109.7800468 425.094400
   1853   1852   3769     1   109.7800468 425.094400
   1853   1852   1854     1   108.4600466 328.025600
   1854   1852   3769     1   109.7800468 425.094400
   1856   1857   1858     1   109.8800469 414.216000
   1856   1857   1859     1   109.8800469 414.216000
   1856   1860   1861     1   109.8800469 414.216000
   1856   1860   1862     1   109.8800469 414.216000
   1856   1863   1864     1   109.8800469 414.216000
   1856   1863   1865     1   109.8800469 414.216000
   1857   1869   1870     1   109.8000471 387.438400
   1857   1869   1871     1   109.8000471 387.438400
   1858   1857   1869     1   109.5600471 388.275200
   1858   1857   1859     1   108.4600466 328.025600
   1859   1857   1869     1   109.5600471 388.275200
   1860   1872   1873     1   109.8000471 387.438400
   1860   1872   1874     1   109.8000471 387.438400
   1861   1860   1872     1   109.5600471 388.275200
   1861   1860   1862     1   108.4600466 328.025600
   1862   1860   1872     1   109.5600471 388.275200
   1863   1866   1867     1   109.8000471 387.438400
   1863   1866   1868     1   109.8000471 387.438400
   1864   1863   1866     1   109.5600471 388.275200
   1864   1863   1865     1   108.4600466 328.025600
   1865   1863   1866     1   109.5600471 388.275200
   1866   1875   1876     1   109.5600471 388.275200
   1866   1875   1877     1   109.5600471 388.275200
   1867   1866   1875     1   109.8000471 387.438400
   1867   1866   1868     1   107.5800459 329.699200
   1868   1866   1875     1   109.8000471 387.438400
   1869   1881   1882     1   109.5600471 388.275200
   1869   1881   1883     1   109.5600471 388.275200
   1870   1869   1881     1   109.8000471 387.438400
   1870   1869   1871     1   107.5800459 329.699200
   1871   1869   1881     1   109.8000471 387.438400
   1872   1878   1879     1   109.5600471 388.275200
   1872   1878   1880     1   109.5600471 388.275200
   1873   1872   1878     1   109.8000471 387.438400
   1873   1872   1874     1   107.5800459 329.699200
   1874   1872   1878     1   109.8000471 387.438400
   1876   1875   1884     1   109.7800468 425.094400
   1876   1875   1877     1   108.4600466 328.025600
   1877   1875   1884     1   109.7800468 425.094400
   1879   1878   3798     1   109.7800468 425.094400
   1879   1878   1880     1   108.4600466 328.025600
   1880   1878   3798     1   109.7800468 425.094400
   1882   1881   3827     1   109.7800468 425.094400
   1882   1881   1883     1   108.4600466 328.025600
   1883   1881   3827     1   109.7800468 425.094400
   1885   1886   1887     1   109.8800469 414.216000
   1885   1886   1888     1   109.8800469 414.216000
   1885   1889   1890     1   109.8800469 414.216000
   1885   1889   1891     1   109.8800469 414.216000
   1885   1892   1893     1   109.8800469 414.216000
   1885   1892   1894     1   109.8800469 414.216000
   1886   1898   1899     1   109.8000471 387.438400
   1886   1898   1900     1   109.8000471 387.438400
   1887   1886   1898     1   109.5600471 388.275200
   1887   1886   1888     1   108.4600466 328.025600
   1888   1886   1898     1   109.5600471 388.275200
   1889   1901   1902     1   109.8000471 387.438400
   1889   1901   1903     1   109.8000471 387.438400
   1890   1889   1901     1   109.5600471 388.275200
   1890   1889   1891     1   108.4600466 328.025600
   1891   1889   1901     1   109.5600471 388.275200
   1892   1895   1896     1   109.8000471 387.438400
   1892   1895   1897     1   109.8000471 387.438400
   1893   1892   1895     1   109.5600471 388.275200
   1893   1892   1894     1   108.4600466 328.025600
   1894   1892   1895     1   109.5600471 388.275200
   1895   1904   1905     1   109.5600471 388.275200
   1895   1904   1906     1   109.5600471 388.275200
   1896   1895   1904     1   109.8000471 387.438400
   1896   1895   1897     1   107.5800459 329.699200
   1897   1895   1904     1   109.8000471 387.438400
   1898   1910   1911     1   109.5600471 388.275200
   1898   1910   1912     1   109.5600471 388.275200
   1899   1898   1910     1   109.8000471 387.438400
   1899   1898   1900     1   107.5800459 329.699200
   1900   1898   1910     1   109.8000471 387.438400
   1901   1907   1908     1   109.5600471 388.275200
   1901   1907   1909     1   109.5600471 388.275200
   1902   1901   1907     1   109.8000471 387.438400
   1902   1901   1903     1   107.5800459 329.699200
   1903   1901   1907     1   109.8000471 387.438400
   1905   1904   1913     1   109.7800468 425.094400
   1905   1904   1906     1   108.4600466 328.025600
   1906   1904   1913     1   109.7800468 425.094400
   1908   1907   3856     1   109.7800468 425.094400
   1908   1907   1909     1   108.4600466 328.025600
   1909   1907   3856     1   109.7800468 425.094400
   1911   1910   3885     1   109.7800468 425.094400
   1911   1910   1912     1   108.4600466 328.025600
   1912   1910   3885     1   109.7800468 425.094400
   1914   1915   1916     1   109.8800469 414.216000
   1914   1915   1917     1   109.8800469 414.216000
   1914   1918   1919     1   109.8800469 414.216000
   1914   1918   1920     1   109.8800469 414.216000
   1914   1921   1922     1   109.8800469 414.216000
   1914   1921   1923     1   109.8800469 414.216000
   1915   1927   1928     1   109.8000471 387.438400
   1915   1927   1929     1   109.8000471 387.438400
   1916   1915   1927     1   109.5600471 388.275200
   1916   1915   1917     1   108.4600466 328.025600
   1917   1915   1927     1   109.5600471 388.275200
   1918   1930   1931     1   109.8000471 387.438400
   1918   1930   1932     1   109.8000471 387.438400
   1919   1918   1930     1   109.5600471 388.275200
   1919   1918   1920     1   108.4600466 328.025600
   1920   1918   1930     1   109.5600471 388.275200
   1921   1924   1925     1   109.8000471 387.438400
   1921   1924   1926     1   109.8000471 387.438400
   1922   1921   1924     1   109.5600471 388.275200
   1922   1921   1923     1   108.4600466 328.025600
   1923   1921   1924     1   109.5600471 388.275200
   1924   1933   1934     1   109.5600471 388.275200
   1924   1933   1935     1   109.5600471 388.275200
   1925   1924   1933     1   109.8000471 387.438400
   1925   1924   1926     1   107.5800459 329.699200
   1926   1924   1933     1   109.8000471 387.438400
   1927   1939   1940     1   109.5600471 388.275200
   1927   1939   1941     1   109.5600471 388.275200
   1928   1927   1939     1   109.8000471 387.438400
   1928   1927   1929     1   107.5800459 329.699200
   1929   1927   1939     1   109.8000471 387.438400
   1930   1936   1937     1   109.5600471 388.275200
   1930   1936   1938     1   109.5600471 388.275200
   1931   1930   1936     1   109.8000471 387.438400
   1931   1930   1932     1   107.5800459 329.699200
   1932   1930   1936     1   109.8000471 387.438400
   1934   1933   1942     1   109.7800468 425.094400
   1934   1933   1935     1   108.4600466 328.025600
   1935   1933   1942     1   109.7800468 425.094400
   1937   1936   3914     1   109.7800468 425.094400
   1937   1936   1938     1   108.4600466 328.025600
   1938   1936   3914     1   109.7800468 425.094400
   1940   1939   3943     1   109.7800468 425.094400
   1940   1939   1941     1   108.4600466 328.025600
   1941   1939   3943     1   109.7800468 425.094400
   1943   1944   1945     1   109.8800469 414.216000
   1943   1944   1946     1   109.8800469 414.216000
   1943   1947   1948     1   109.8800469 414.216000
   1943   1947   1949     1   109.8800469 414.216000
   1943   1950   1951     1   109.8800469 414.216000
   1943   1950   1952     1   109.8800469 414.216000
   1944   1956   1957     1   109.8000471 387.438400
   1944   1956   1958     1   109.8000471 387.438400
   1945   1944   1956     1   109.5600471 388.275200
   1945   1944   1946     1   108.4600466 328.025600
   1946   1944   1956     1   109.5600471 388.275200
   1947   1959   1960     1   109.8000471 387.438400
   1947   1959   1961     1   109.8000471 387.438400
   1948   1947   1959     1   109.5600471 388.275200
   1948   1947   1949     1   108.4600466 328.025600
   1949   1947   1959     1   109.5600471 388.275200
   1950   1953   1954     1   109.8000471 387.438400
   1950   1953   1955     1   109.8000471 387.438400
   1951   1950   1953     1   109.5600471 388.275200
   1951   1950   1952     1   108.4600466 328.025600
   1952   1950   1953     1   109.5600471 388.275200
   1953   1962   1963     1   109.5600471 388.275200
   1953   1962   1964     1   109.5600471 388.275200
   1954   1953   1962     1   109.8000471 387.438400
   1954   1953   1955     1   107.5800459 329.699200
   1955   1953   1962     1   109.8000471 387.438400
   1956   1968   1969     1   109.5600471 388.275200
   1956   1968   1970     1   109.5600471 388.275200
   1957   1956   1968     1   109.8000471 387.438400
   1957   1956   1958     1   107.5800459 329.699200
   1958   1956   1968     1   109.8000471 387.438400
   1959   1965   1966     1   109.5600471 388.275200
   1959   1965   1967     1   109.5600471 388.275200
   1960   1959   1965     1   109.8000471 387.438400
   1960   1959   1961     1   107.5800459 329.699200
   1961   1959   1965     1   109.8000471 387.438400
   1963   1962   1971     1   109.7800468 425.094400
   1963   1962   1964     1   108.4600466 328.025600
   1964   1962   1971     1   109.7800468 425.094400
   1966   1965   3972     1   109.7800468 425.094400
   1966   1965   1967     1   108.4600466 328.025600
   1967   1965   3972     1   109.7800468 425.094400
   1969   1968   4001     1   109.7800468 425.094400
   1969   1968   1970     1   108.4600466 328.025600
   1970   1968   4001     1   109.7800468 425.094400
   1972   1973   1974     1   109.8800469 414.216000
   1972   1973   1975     1   109.8800469 414.216000
   1972   1976   1977     1   109.8800469 414.216000
   1972   1976   1978     1   109.8800469 414.216000
   1972   1979   1980     1   109.8800469 414.216000
   1972   1979   1981     1   109.8800469 414.216000
   1973   1985   1986     1   109.8000471 387.438400
   1973   1985   1987     1   109.8000471 387.438400
   1974   1973   1985     1   109.5600471 388.275200
   1974   1973   1975     1   108.4600466 328.025600
   1975   1973   1985     1   109.5600471 388.275200
   1976   1988   1989     1   109.8000471 387.438400
   1976   1988   1990     1   109.8000471 387.438400
   1977   1976   1988     1   109.5600471 388.275200
   1977   1976   1978     1   108.4600466 328.025600
   1978   1976   1988     1   109.5600471 388.275200
   1979   1982   1983     1   109.8000471 387.438400
   1979   1982   1984     1   109.8000471 387.438400
   1980   1979   1982     1   109.5600471 388.275200
   1980   1979   1981     1   108.4600466 328.025600
   1981   1979   1982     1   109.5600471 388.275200
   1982   1991   1992     1   109.5600471 388.275200
   1982   1991   1993     1   109.5600471 388.275200
   1983   1982   1991     1   109.8000471 387.438400
   1983   1982   1984     1   107.5800459 329.699200
   1984   1982   1991     1   109.8000471 387.438400
   1985   1997   1998     1   109.5600471 388.275200
   1985   1997   1999     1   109.5600471 388.275200
   1986   1985   1997     1   109.8000471 387.438400
   1986   1985   1987     1   107.5800459 329.699200
   1987   1985   1997     1   109.8000471 387.438400
   1988   1994   1995     1   109.5600471 388.275200
   1988   1994   1996     1   109.5600471 388.275200
   1989   1988   1994     1   109.8000471 387.438400
   1989   1988   1990     1   107.5800459 329.699200
   1990   1988   1994     1   109.8000471 387.438400
   1992   1991   2000     1   109.7800468 425.094400
   1992   1991   1993     1   108.4600466 328.025600
   1993   1991   2000     1   109.7800468 425.094400
   1995   1994   4030     1   109.7800468 425.094400
   1995   1994   1996     1   108.4600466 328.025600
   1996   1994   4030     1   109.7800468 425.094400
   1998   1997   4059     1   109.7800468 425.094400
   1998   1997   1999     1   108.4600466 328.025600
   1999   1997   4059     1   109.7800468 425.094400
   2001   2002   2003     1   109.8800469 414.216000
   2001   2002   2004     1   109.8800469 414.216000
   2001   2005   2006     1   109.8800469 414.216000
   2001   2005   2007     1   109.8800469 414.216000
   2001   2008   2009     1   109.8800469 414.216000
   2001   2008   2010     1   109.8800469 414.216000
   2002   2014   2015     1   109.8000471 387.438400
   2002   2014   2016     1   109.8000471 387.438400
   2003   2002   2014     1   109.5600471 388.275200
   2003   2002   2004     1   108.4600466 328.025600
   2004   2002   2014     1   109.5600471 388.275200
   2005   2017   2018     1   109.8000471 387.438400
   2005   2017   2019     1   109.8000471 387.438400
   2006   2005   2017     1   109.5600471 388.275200
   2006   2005   2007     1   108.4600466 328.025600
   2007   2005   2017     1   109.5600471 388.275200
   2008   2011   2012     1   109.8000471 387.438400
   2008   2011   2013     1   109.8000471 387.438400
   2009   2008   2011     1   109.5600471 388.275200
   2009   2008   2010     1   108.4600466 328.025600
   2010   2008   2011     1   109.5600471 388.275200
   2011   2020   2021     1   109.5600471 388.275200
   2011   2020   2022     1   109.5600471 388.275200
   2012   2011   2020     1   109.8000471 387.438400
   2012   2011   2013     1   107.5800459 329.699200
   2013   2011   2020     1   109.8000471 387.438400
   2014   2026   2027     1   109.5600471 388.275200
   2014   2026   2028     1   109.5600471 388.275200
   2015   2014   2026     1   109.8000471 387.438400
   2015   2014   2016     1   107.5800459 329.699200
   2016   2014   2026     1   109.8000471 387.438400
   2017   2023   2024     1   109.5600471 388.275200
   2017   2023   2025     1   109.5600471 388.275200
   2018   2017   2023     1   109.8000471 387.438400
   2018   2017   2019     1   107.5800459 329.699200
   2019   2017   2023     1   109.8000471 387.438400
   2021   2020   2029     1   109.7800468 425.094400
   2021   2020   2022     1   108.4600466 328.025600
   2022   2020   2029     1   109.7800468 425.094400
   2024   2023   4088     1   109.7800468 425.094400
   2024   2023   2025     1   108.4600466 328.025600
   2025   2023   4088     1   109.7800468 425.094400
   2027   2026   4117     1   109.7800468 425.094400
   2027   2026   2028     1   108.4600466 328.025600
   2028   2026   4117     1   109.7800468 425.094400
   2030   2031   2032     1   109.8800469 414.216000
   2030   2031   2033     1   109.8800469 414.216000
   2030   2034   2035     1   109.8800469 414.216000
   2030   2034   2036     1   109.8800469 414.216000
   2030   2037   2038     1   109.8800469 414.216000
   2030   2037   2039     1   109.8800469 414.216000
   2031   2043   2044     1   109.8000471 387.438400
   2031   2043   2045     1   109.8000471 387.438400
   2032   2031   2043     1   109.5600471 388.275200
   2032   2031   2033     1   108.4600466 328.025600
   2033   2031   2043     1   109.5600471 388.275200
   2034   2046   2047     1   109.8000471 387.438400
   2034   2046   2048     1   109.8000471 387.438400
   2035   2034   2046     1   109.5600471 388.275200
   2035   2034   2036     1   108.4600466 328.025600
   2036   2034   2046     1   109.5600471 388.275200
   2037   2040   2041     1   109.8000471 387.438400
   2037   2040   2042     1   109.8000471 387.438400
   2038   2037   2040     1   109.5600471 388.275200
   2038   2037   2039     1   108.4600466 328.025600
   2039   2037   2040     1   109.5600471 388.275200
   2040   2049   2050     1   109.5600471 388.275200
   2040   2049   2051     1   109.5600471 388.275200
   2041   2040   2049     1   109.8000471 387.438400
   2041   2040   2042     1   107.5800459 329.699200
   2042   2040   2049     1   109.8000471 387.438400
   2043   2055   2056     1   109.5600471 388.275200
   2043   2055   2057     1   109.5600471 388.275200
   2044   2043   2055     1   109.8000471 387.438400
   2044   2043   2045     1   107.5800459 329.699200
   2045   2043   2055     1   109.8000471 387.438400
   2046   2052   2053     1   109.5600471 388.275200
   2046   2052   2054     1   109.5600471 388.275200
   2047   2046   2052     1   109.8000471 387.438400
   2047   2046   2048     1   107.5800459 329.699200
   2048   2046   2052     1   109.8000471 387.438400
   2050   2049   2058     1   109.7800468 425.094400
   2050   2049   2051     1   108.4600466 328.025600
   2051   2049   2058     1   109.7800468 425.094400
   2053   2052   4146     1   109.7800468 425.094400
   2053   2052   2054     1   108.4600466 328.025600
   2054   2052   4146     1   109.7800468 425.094400
   2056   2055   4175     1   109.7800468 425.094400
   2056   2055   2057     1   108.4600466 328.025600
   2057   2055   4175     1   109.7800468 425.094400
   2059   2060   2061     1   109.8800469 414.216000
   2059   2060   2062     1   109.8800469 414.216000
   2059   2063   2064     1   109.8800469 414.216000
   2059   2063   2065     1   109.8800469 414.216000
   2059   2066   2067     1   109.8800469 414.216000
   2059   2066   2068     1   109.8800469 414.216000
   2060   2072   2073     1   109.8000471 387.438400
   2060   2072   2074     1   109.8000471 387.438400
   2061   2060   2072     1   109.5600471 388.275200
   2061   2060   2062     1   108.4600466 328.025600
   2062   2060   2072     1   109.5600471 388.275200
   2063   2075   2076     1   109.8000471 387.438400
   2063   2075   2077     1   109.8000471 387.438400
   2064   2063   2075     1   109.5600471 388.275200
   2064   2063   2065     1   108.4600466 328.025600
   2065   2063   2075     1   109.5600471 388.275200
   2066   2069   2070     1   109.8000471 387.438400
   2066   2069   2071     1   109.8000471 387.438400
   2067   2066   2069     1   109.5600471 388.275200
   2067   2066   2068     1   108.4600466 328.025600
   2068   2066   2069     1   109.5600471 388.275200
   2069   2078   2079     1   109.5600471 388.275200
   2069   2078   2080     1   109.5600471 388.275200
   2070   2069   2078     1   109.8000471 387.438400
   2070   2069   2071     1   107.5800459 329.699200
   2071   2069   2078     1   109.8000471 387.438400
   2072   2084   2085     1   109.5600471 388.275200
   2072   2084   2086     1   109.5600471 388.275200
   2073   2072   2084     1   109.8000471 387.438400
   2073   2072   2074     1   107.5800459 329.699200
   2074   2072   2084     1   109.8000471 387.438400
   2075   2081   2082     1   109.5600471 388.275200
   2075   2081   2083     1   109.5600471 388.275200
   2076   2075   2081     1   109.8000471 387.438400
   2076   2075   2077     1   107.5800459 329.699200
   2077   2075   2081     1   109.8000471 387.438400
   2079   2078   2087     1   109.7800468 425.094400
   2079   2078   2080     1   108.4600466 328.025600
   2080   2078   2087     1   109.7800468 425.094400
   2082   2081   4204     1   109.7800468 425.094400
   2082   2081   2083     1   108.4600466 328.025600
   2083   2081   4204     1   109.7800468 425.094400
   2085   2084   4233     1   109.7800468 425.094400
   2085   2084   2086     1   108.4600466 328.025600
   2086   2084   4233     1   109.7800468 425.094400
   2088   2089   2090     1   109.8800469 414.216000
   2088   2089   2091     1   109.8800469 414.216000
   2088   2092   2093     1   109.8800469 414.216000
   2088   2092   2094     1   109.8800469 414.216000
   2088   2095   2096     1   109.8800469 414.216000
   2088   2095   2097     1   109.8800469 414.216000
   2089   2101   2102     1   109.8000471 387.438400
   2089   2101   2103     1   109.8000471 387.438400
   2090   2089   2101     1   109.5600471 388.275200
   2090   2089   2091     1   108.4600466 328.025600
   2091   2089   2101     1   109.5600471 388.275200
   2092   2104   2105     1   109.8000471 387.438400
   2092   2104   2106     1   109.8000471 387.438400
   2093   2092   2104     1   109.5600471 388.275200
   2093   2092   2094     1   108.4600466 328.025600
   2094   2092   2104     1   109.5600471 388.275200
   2095   2098   2099     1   109.8000471 387.438400
   2095   2098   2100     1   109.8000471 387.438400
   2096   2095   2098     1   109.5600471 388.275200
   2096   2095   2097     1   108.4600466 328.025600
   2097   2095   2098     1   109.5600471 388.275200
   2098   2107   2108     1   109.5600471 388.275200
   2098   2107   2109     1   109.5600471 388.275200
   2099   2098   2107     1   109.8000471 387.438400
   2099   2098   2100     1   107.5800459 329.699200
   2100   2098   2107     1   109.8000471 387.438400
   2101   2113   2114     1   109.5600471 388.275200
   2101   2113   2115     1   109.5600471 388.275200
   2102   2101   2113     1   109.8000471 387.438400
   2102   2101   2103     1   107.5800459 329.699200
   2103   2101   2113     1   109.8000471 387.438400
   2104   2110   2111     1   109.5600471 388.275200
   2104   2110   2112     1   109.5600471 388.275200
   2105   2104   2110     1   109.8000471 387.438400
   2105   2104   2106     1   107.5800459 329.699200
   2106   2104   2110     1   109.8000471 387.438400
   2108   2107   2116     1   109.7800468 425.094400
   2108   2107   2109     1   108.4600466 328.025600
   2109   2107   2116     1   109.7800468 425.094400
   2111   2110   4262     1   109.7800468 425.094400
   2111   2110   2112     1   108.4600466 328.025600
   2112   2110   4262     1   109.7800468 425.094400
   2114   2113   4291     1   109.7800468 425.094400
   2114   2113   2115     1   108.4600466 328.025600
   2115   2113   4291     1   109.7800468 425.094400
   2117   2118   2119     1   109.8800469 414.216000
   2117   2118   2120     1   109.8800469 414.216000
   2117   2121   2122     1   109.8800469 414.216000
   2117   2121   2123     1   109.8800469 414.216000
   2117   2124   2125     1   109.8800469 414.216000
   2117   2124   2126     1   109.8800469 414.216000
   2118   2130   2131     1   109.8000471 387.438400
   2118   2130   2132     1   109.8000471 387.438400
   2119   2118   2130     1   109.5600471 388.275200
   2119   2118   2120     1   108.4600466 328.025600
   2120   2118   2130     1   109.5600471 388.275200
   2121   2133   2134     1   109.8000471 387.438400
   2121   2133   2135     1   109.8000471 387.438400
   2122   2121   2133     1   109.5600471 388.275200
   2122   2121   2123     1   108.4600466 328.025600
   2123   2121   2133     1   109.5600471 388.275200
   2124   2127   2128     1   109.8000471 387.438400
   2124   2127   2129     1   109.8000471 387.438400
   2125   2124   2127     1   109.5600471 388.275200
   2125   2124   2126     1   108.4600466 328.025600
   2126   2124   2127     1   109.5600471 388.275200
   2127   2136   2137     1   109.5600471 388.275200
   2127   2136   2138     1   109.5600471 388.275200
   2128   2127   2136     1   109.8000471 387.438400
   2128   2127   2129     1   107.5800459 329.699200
   2129   2127   2136     1   109.8000471 387.438400
   2130   2142   2143     1   109.5600471 388.275200
   2130   2142   2144     1   109.5600471 388.275200
   2131   2130   2142     1   109.8000471 387.438400
   2131   2130   2132     1   107.5800459 329.699200
   2132   2130   2142     1   109.8000471 387.438400
   2133   2139   2140     1   109.5600471 388.275200
   2133   2139   2141     1   109.5600471 388.275200
   2134   2133   2139     1   109.8000471 387.438400
   2134   2133   2135     1   107.5800459 329.699200
   2135   2133   2139     1   109.8000471 387.438400
   2137   2136   2145     1   109.7800468 425.094400
   2137   2136   2138     1   108.4600466 328.025600
   2138   2136   2145     1   109.7800468 425.094400
   2140   2139   4320     1   109.7800468 425.094400
   2140   2139   2141     1   108.4600466 328.025600
   2141   2139   4320     1   109.7800468 425.094400
   2143   2142   4349     1   109.7800468 425.094400
   2143   2142   2144     1   108.4600466 328.025600
   2144   2142   4349     1   109.7800468 425.094400
   2146   2147   2148     1   109.8800469 414.216000
   2146   2147   2149     1   109.8800469 414.216000
   2146   2150   2151     1   109.8800469 414.216000
   2146   2150   2152     1   109.8800469 414.216000
   2146   2153   2154     1   109.8800469 414.216000
   2146   2153   2155     1   109.8800469 414.216000
   2147   2159   2160     1   109.8000471 387.438400
   2147   2159   2161     1   109.8000471 387.438400
   2148   2147   2159     1   109.5600471 388.275200
   2148   2147   2149     1   108.4600466 328.025600
   2149   2147   2159     1   109.5600471 388.275200
   2150   2162   2163     1   109.8000471 387.438400
   2150   2162   2164     1   109.8000471 387.438400
   2151   2150   2162     1   109.5600471 388.275200
   2151   2150   2152     1   108.4600466 328.025600
   2152   2150   2162     1   109.5600471 388.275200
   2153   2156   2157     1   109.8000471 387.438400
   2153   2156   2158     1   109.8000471 387.438400
   2154   2153   2156     1   109.5600471 388.275200
   2154   2153   2155     1   108.4600466 328.025600
   2155   2153   2156     1   109.5600471 388.275200
   2156   2165   2166     1   109.5600471 388.275200
   2156   2165   2167     1   109.5600471 388.275200
   2157   2156   2165     1   109.8000471 387.438400
   2157   2156   2158     1   107.5800459 329.699200
   2158   2156   2165     1   109.8000471 387.438400
   2159   2171   2172     1   109.5600471 388.275200
   2159   2171   2173     1   109.5600471 388.275200
   2160   2159   2171     1   109.8000471 387.438400
   2160   2159   2161     1   107.5800459 329.699200
   2161   2159   2171     1   109.8000471 387.438400
   2162   2168   2169     1   109.5600471 388.275200
   2162   2168   2170     1   109.5600471 388.275200
   2163   2162   2168     1   109.8000471 387.438400
   2163   2162   2164     1   107.5800459 329.699200
   2164   2162   2168     1   109.8000471 387.438400
   2166   2165   2174     1   109.7800468 425.094400
   2166   2165   2167     1   108.4600466 328.025600
   2167   2165   2174     1   109.7800468 425.094400
   2169   2168   4378     1   109.7800468 425.094400
   2169   2168   2170     1   108.4600466 328.025600
   2170   2168   4378     1   109.7800468 425.094400
   2172   2171   4407     1   109.7800468 425.094400
   2172   2171   2173     1   108.4600466 328.025600
   2173   2171   4407     1   109.7800468 425.094400
   2175   2176   2177     1   109.8800469 414.216000
   2175   2176   2178     1   109.8800469 414.216000
   2175   2179   2180     1   109.8800469 414.216000
   2175   2179   2181     1   109.8800469 414.216000
   2175   2182   2183     1   109.8800469 414.216000
   2175   2182   2184     1   109.8800469 414.216000
   2176   2188   2189     1   109.8000471 387.438400
   2176   2188   2190     1   109.8000471 387.438400
   2177   2176   2188     1   109.5600471 388.275200
   2177   2176   2178     1   108.4600466 328.025600
   2178   2176   2188     1   109.5600471 388.275200
   2179   2191   2192     1   109.8000471 387.438400
   2179   2191   2193     1   109.8000471 387.438400
   2180   2179   2191     1   109.5600471 388.275200
   2180   2179   2181     1   108.4600466 328.025600
   2181   2179   2191     1   109.5600471 388.275200
   2182   2185   2186     1   109.8000471 387.438400
   2182   2185   2187     1   109.8000471 387.438400
   2183   2182   2185     1   109.5600471 388.275200
   2183   2182   2184     1   108.4600466 328.025600
   2184   2182   2185     1   109.5600471 388.275200
   2185   2194   2195     1   109.5600471 388.275200
   2185   2194   2196     1   109.5600471 388.275200
   2186   2185   2194     1   109.8000471 387.438400
   2186   2185   2187     1   107.5800459 329.699200
   2187   2185   2194     1   109.8000471 387.438400
   2188   2200   2201     1   109.5600471 388.275200
   2188   2200   2202     1   109.5600471 388.275200
   2189   2188   2200     1   109.8000471 387.438400
   2189   2188   2190     1   107.5800459 329.699200
   2190   2188   2200     1   109.8000471 387.438400
   2191   2197   2198     1   109.5600471 388.275200
   2191   2197   2199     1   109.5600471 388.275200
   2192   2191   2197     1   109.8000471 387.438400
   2192   2191   2193     1   107.5800459 329.699200
   2193   2191   2197     1   109.8000471 387.438400
   2195   2194   2203     1   109.7800468 425.094400
   2195   2194   2196     1   108.4600466 328.025600
   2196   2194   2203     1   109.7800468 425.094400
   2198   2197   4436     1   109.7800468 425.094400
   2198   2197   2199     1   108.4600466 328.025600
   2199   2197   4436     1   109.7800468 425.094400
   2201   2200   4465     1   109.7800468 425.094400
   2201   2200   2202     1   108.4600466 328.025600
   2202   2200   4465     1   109.7800468 425.094400
   2204   2205   2206     1   109.8800469 414.216000
   2204   2205   2207     1   109.8800469 414.216000
   2204   2208   2209     1   109.8800469 414.216000
   2204   2208   2210     1   109.8800469 414.216000
   2204   2211   2212     1   109.8800469 414.216000
   2204   2211   2213     1   109.8800469 414.216000
   2205   2217   2218     1   109.8000471 387.438400
   2205   2217   2219     1   109.8000471 387.438400
   2206   2205   2217     1   109.5600471 388.275200
   2206   2205   2207     1   108.4600466 328.025600
   2207   2205   2217     1   109.5600471 388.275200
   2208   2220   2221     1   109.8000471 387.438400
   2208   2220   2222     1   109.8000471 387.438400
   2209   2208   2220     1   109.5600471 388.275200
   2209   2208   2210     1   108.4600466 328.025600
   2210   2208   2220     1   109.5600471 388.275200
   2211   2214   2215     1   109.8000471 387.438400
   2211   2214   2216     1   109.8000471 387.438400
   2212   2211   2214     1   109.5600471 388.275200
   2212   2211   2213     1   108.4600466 328.025600
   2213   2211   2214     1   109.5600471 388.275200
   2214   2223   2224     1   109.5600471 388.275200
   2214   2223   2225     1   109.5600471 388.275200
   2215   2214   2223     1   109.8000471 387.438400
   2215   2214   2216     1   107.5800459 329.699200
   2216   2214   2223     1   109.8000471 387.438400
   2217   2229   2230     1   109.5600471 388.275200
   2217   2229   2231     1   109.5600471 388.275200
   2218   2217   2229     1   109.8000471 387.438400
   2218   2217   2219     1   107.5800459 329.699200
   2219   2217   2229     1   109.8000471 387.438400
   2220   2226   2227     1   109.5600471 388.275200
   2220   2226   2228     1   109.5600471 388.275200
   2221   2220   2226     1   109.8000471 387.438400
   2221   2220   2222     1   107.5800459 329.699200
   2222   2220   2226     1   109.8000471 387.438400
   2224   2223   2232     1   109.7800468 425.094400
   2224   2223   2225     1   108.4600466 328.025600
   2225   2223   2232     1   109.7800468 425.094400
   2227   2226   4494     1   109.7800468 425.094400
   2227   2226   2228     1   108.4600466 328.025600
   2228   2226   4494     1   109.7800468 425.094400
   2230   2229   4523     1   109.7800468 425.094400
   2230   2229   2231     1   108.4600466 328.025600
   2231   2229   4523     1   109.7800468 425.094400
   2233   2234   2235     1   109.8800469 414.216000
   2233   2234   2236     1   109.8800469 414.216000
   2233   2237   2238     1   109.8800469 414.216000
   2233   2237   2239     1   109.8800469 414.216000
   2233   2240   2241     1   109.8800469 414.216000
   2233   2240   2242     1   109.8800469 414.216000
   2234   2246   2247     1   109.8000471 387.438400
   2234   2246   2248     1   109.8000471 387.438400
   2235   2234   2246     1   109.5600471 388.275200
   2235   2234   2236     1   108.4600466 328.025600
   2236   2234   2246     1   109.5600471 388.275200
   2237   2249   2250     1   109.8000471 387.438400
   2237   2249   2251     1   109.8000471 387.438400
   2238   2237   2249     1   109.5600471 388.275200
   2238   2237   2239     1   108.4600466 328.025600
   2239   2237   2249     1   109.5600471 388.275200
   2240   2243   2244     1   109.8000471 387.438400
   2240   2243   2245     1   109.8000471 387.438400
   2241   2240   2243     1   109.5600471 388.275200
   2241   2240   2242     1   108.4600466 328.025600
   2242   2240   2243     1   109.5600471 388.275200
   2243   2252   2253     1   109.5600471 388.275200
   2243   2252   2254     1   109.5600471 388.275200
   2244   2243   2252     1   109.8000471 387.438400
   2244   2243   2245     1   107.5800459 329.699200
   2245   2243   2252     1   109.8000471 387.438400
   2246   2258   2259     1   109.5600471 388.275200
   2246   2258   2260     1   109.5600471 388.275200
   2247   2246   2258     1   109.8000471 387.438400
   2247   2246   2248     1   107.5800459 329.699200
   2248   2246   2258     1   109.8000471 387.438400
   2249   2255   2256     1   109.5600471 388.275200
   2249   2255   2257     1   109.5600471 388.275200
   2250   2249   2255     1   109.8000471 387.438400
   2250   2249   2251     1   107.5800459 329.699200
   2251   2249   2255     1   109.8000471 387.438400
   2253   2252   2261     1   109.7800468 425.094400
   2253   2252   2254     1   108.4600466 328.025600
   2254   2252   2261     1   109.7800468 425.094400
   2256   2255   4552     1   109.7800468 425.094400
   2256   2255   2257     1   108.4600466 328.025600
   2257   2255   4552     1   109.7800468 425.094400
   2259   2258   4581     1   109.7800468 425.094400
   2259   2258   2260     1   108.4600466 328.025600
   2260   2258   4581     1   109.7800468 425.094400
   2262   2263   2264     1   109.8800469 414.216000
   2262   2263   2265     1   109.8800469 414.216000
   2262   2266   2267     1   109.8800469 414.216000
   2262   2266   2268     1   109.8800469 414.216000
   2262   2269   2270     1   109.8800469 414.216000
   2262   2269   2271     1   109.8800469 414.216000
   2263   2275   2276     1   109.8000471 387.438400
   2263   2275   2277     1   109.8000471 387.438400
   2264   2263   2275     1   109.5600471 388.275200
   2264   2263   2265     1   108.4600466 328.025600
   2265   2263   2275     1   109.5600471 388.275200
   2266   2278   2279     1   109.8000471 387.438400
   2266   2278   2280     1   109.8000471 387.438400
   2267   2266   2278     1   109.5600471 388.275200
   2267   2266   2268     1   108.4600466 328.025600
   2268   2266   2278     1   109.5600471 388.275200
   2269   2272   2273     1   109.8000471 387.438400
   2269   2272   2274     1   109.8000471 387.438400
   2270   2269   2272     1   109.5600471 388.275200
   2270   2269   2271     1   108.4600466 328.025600
   2271   2269   2272     1   109.5600471 388.275200
   2272   2281   2282     1   109.5600471 388.275200
   2272   2281   2283     1   109.5600471 388.275200
   2273   2272   2281     1   109.8000471 387.438400
   2273   2272   2274     1   107.5800459 329.699200
   2274   2272   2281     1   109.8000471 387.438400
   2275   2287   2288     1   109.5600471 388.275200
   2275   2287   2289     1   109.5600471 388.275200
   2276   2275   2287     1   109.8000471 387.438400
   2276   2275   2277     1   107.5800459 329.699200
   2277   2275   2287     1   109.8000471 387.438400
   2278   2284   2285     1   109.5600471 388.275200
   2278   2284   2286     1   109.5600471 388.275200
   2279   2278   2284     1   109.8000471 387.438400
   2279   2278   2280     1   107.5800459 329.699200
   2280   2278   2284     1   109.8000471 387.438400
   2282   2281   2290     1   109.7800468 425.094400
   2282   2281   2283     1   108.4600466 328.025600
   2283   2281   2290     1   109.7800468 425.094400
   2285   2284   4610     1   109.7800468 425.094400
   2285   2284   2286     1   108.4600466 328.025600
   2286   2284   4610     1   109.7800468 425.094400
   2288   2287   4639     1   109.7800468 425.094400
   2288   2287   2289     1   108.4600466 328.025600
   2289   2287   4639     1   109.7800468 425.094400
   2291   2292   2293     1   109.8800469 414.216000
   2291   2292   2294     1   109.8800469 414.216000
   2291   2295   2296     1   109.8800469 414.216000
   2291   2295   2297     1   109.8800469 414.216000
   2291   2298   2299     1   109.8800469 414.216000
   2291   2298   2300     1   109.8800469 414.216000
   2292   2304   2305     1   109.8000471 387.438400
   2292   2304   2306     1   109.8000471 387.438400
   2293   2292   2304     1   109.5600471 388.275200
   2293   2292   2294     1   108.4600466 328.025600
   2294   2292   2304     1   109.5600471 388.275200
   2295   2307   2308     1   109.8000471 387.438400
   2295   2307   2309     1   109.8000471 387.438400
   2296   2295   2307     1   109.5600471 388.275200
   2296   2295   2297     1   108.4600466 328.025600
   2297   2295   2307     1   109.5600471 388.275200
   2298   2301   2302     1   109.8000471 387.438400
   2298   2301   2303     1   109.8000471 387.438400
   2299   2298   2301     1   109.5600471 388.275200
   2299   2298   2300     1   108.4600466 328.025600
   2300   2298   2301     1   109.5600471 388.275200
   2301   2310   2311     1   109.5600471 388.275200
   2301   2310   2312     1   109.5600471 388.275200
   2302   2301   2310     1   109.8000471 387.438400
   2302   2301   2303     1   107.5800459 329.699200
   2303   2301   2310     1   109.8000471 387.438400
   2304   2316   2317     1   109.5600471 388.275200
   2304   2316   2318     1   109.5600471 388.275200
   2305   2304   2316     1   109.8000471 387.438400
   2305   2304   2306     1   107.5800459 329.699200
   2306   2304   2316     1   109.8000471 387.438400
   2307   2313   2314     1   109.5600471 388.275200
   2307   2313   2315     1   109.5600471 388.275200
   2308   2307   2313     1   109.8000471 387.438400
   2308   2307   2309     1   107.5800459 329.699200
   2309   2307   2313     1   109.8000471 387.438400
   2311   2310   2319     1   109.7800468 425.094400
   2311   2310   2312     1   108.4600466 328.025600
   2312   2310   2319     1   109.7800468 425.094400
   2314   2313   4668     1   109.7800468 425.094400
   2314   2313   2315     1   108.4600466 328.025600
   2315   2313   4668     1   109.7800468 425.094400
   2317   2316   4697     1   109.7800468 425.094400
   2317   2316   2318     1   108.4600466 328.025600
   2318   2316   4697     1   109.7800468 425.094400
   2320   2321   2322     1   109.8800469 414.216000
   2320   2321   2323     1   109.8800469 414.216000
   2320   2324   2325     1   109.8800469 414.216000
   2320   2324   2326     1   109.8800469 414.216000
   2320   2327   2328     1   109.8800469 414.216000
   2320   2327   2329     1   109.8800469 414.216000
   2321   2333   2334     1   109.8000471 387.438400
   2321   2333   2335     1   109.8000471 387.438400
   2322   2321   2333     1   109.5600471 388.275200
   2322   2321   2323     1   108.4600466 328.025600
   2323   2321   2333     1   109.5600471 388.275200
   2324   2336   2337     1   109.8000471 387.438400
   2324   2336   2338     1   109.8000471 387.438400
   2325   2324   2336     1   109.5600471 388.275200
   2325   2324   2326     1   108.4600466 328.025600
   2326   2324   2336     1   109.5600471 388.275200
   2327   2330   2331     1   109.8000471 387.438400
   2327   2330   2332     1   109.8000471 387.438400
   2328   2327   2330     1   109.5600471 388.275200
   2328   2327   2329     1   108.4600466 328.025600
   2329   2327   2330     1   109.5600471 388.275200
   2330   2339   2340     1   109.5600471 388.275200
   2330   2339   2341     1   109.5600471 388.275200
   2331   2330   2339     1   109.8000471 387.438400
   2331   2330   2332     1   107.5800459 329.699200
   2332   2330   2339     1   109.8000471 387.438400
   2333   2345   2346     1   109.5600471 388.275200
   2333   2345   2347     1   109.5600471 388.275200
   2334   2333   2345     1   109.8000471 387.438400
   2334   2333   2335     1   107.5800459 329.699200
   2335   2333   2345     1   109.8000471 387.438400
   2336   2342   2343     1   109.5600471 388.275200
   2336   2342   2344     1   109.5600471 388.275200
   2337   2336   2342     1   109.8000471 387.438400
   2337   2336   2338     1   107.5800459 329.699200
   2338   2336   2342     1   109.8000471 387.438400
   2340   2339   2348     1   109.7800468 425.094400
   2340   2339   2341     1   108.4600466 328.025600
   2341   2339   2348     1   109.7800468 425.094400
   2343   2342   4726     1   109.7800468 425.094400
   2343   2342   2344     1   108.4600466 328.025600
   2344   2342   4726     1   109.7800468 425.094400
   2346   2345   4755     1   109.7800468 425.094400
   2346   2345   2347     1   108.4600466 328.025600
   2347   2345   4755     1   109.7800468 425.094400
   2349   2350   2351     1   109.8800469 414.216000
   2349   2350   2352     1   109.8800469 414.216000
   2349   2353   2354     1   109.8800469 414.216000
   2349   2353   2355     1   109.8800469 414.216000
   2349   2356   2357     1   109.8800469 414.216000
   2349   2356   2358     1   109.8800469 414.216000
   2350   2362   2363     1   109.8000471 387.438400
   2350   2362   2364     1   109.8000471 387.438400
   2351   2350   2362     1   109.5600471 388.275200
   2351   2350   2352     1   108.4600466 328.025600
   2352   2350   2362     1   109.5600471 388.275200
   2353   2365   2366     1   109.8000471 387.438400
   2353   2365   2367     1   109.8000471 387.438400
   2354   2353   2365     1   109.5600471 388.275200
   2354   2353   2355     1   108.4600466 328.025600
   2355   2353   2365     1   109.5600471 388.275200
   2356   2359   2360     1   109.8000471 387.438400
   2356   2359   2361     1   109.8000471 387.438400
   2357   2356   2359     1   109.5600471 388.275200
   2357   2356   2358     1   108.4600466 328.025600
   2358   2356   2359     1   109.5600471 388.275200
   2359   2368   2369     1   109.5600471 388.275200
   2359   2368   2370     1   109.5600471 388.275200
   2360   2359   2368     1   109.8000471 387.438400
   2360   2359   2361     1   107.5800459 329.699200
   2361   2359   2368     1   109.8000471 387.438400
   2362   2374   2375     1   109.5600471 388.275200
   2362   2374   2376     1   109.5600471 388.275200
   2363   2362   2374     1   109.8000471 387.438400
   2363   2362   2364     1   107.5800459 329.699200
   2364   2362   2374     1   109.8000471 387.438400
   2365   2371   2372     1   109.5600471 388.275200
   2365   2371   2373     1   109.5600471 388.275200
   2366   2365   2371     1   109.8000471 387.438400
   2366   2365   2367     1   107.5800459 329.699200
   2367   2365   2371     1   109.8000471 387.438400
   2369   2368   2377     1   109.7800468 425.094400
   2369   2368   2370     1   108.4600466 328.025600
   2370   2368   2377     1   109.7800468 425.094400
   2372   2371   4784     1   109.7800468 425.094400
   2372   2371   2373     1   108.4600466 328.025600
   2373   2371   4784     1   109.7800468 425.094400
   2375   2374   4813     1   109.7800468 425.094400
   2375   2374   2376     1   108.4600466 328.025600
   2376   2374   4813     1   109.7800468 425.094400
   2378   2379   2380     1   109.8800469 414.216000
   2378   2379   2381     1   109.8800469 414.216000
   2378   2382   2383     1   109.8800469 414.216000
   2378   2382   2384     1   109.8800469 414.216000
   2378   2385   2386     1   109.8800469 414.216000
   2378   2385   2387     1   109.8800469 414.216000
   2379   2391   2392     1   109.8000471 387.438400
   2379   2391   2393     1   109.8000471 387.438400
   2380   2379   2391     1   109.5600471 388.275200
   2380   2379   2381     1   108.4600466 328.025600
   2381   2379   2391     1   109.5600471 388.275200
   2382   2394   2395     1   109.8000471 387.438400
   2382   2394   2396     1   109.8000471 387.438400
   2383   2382   2394     1   109.5600471 388.275200
   2383   2382   2384     1   108.4600466 328.025600
   2384   2382   2394     1   109.5600471 388.275200
   2385   2388   2389     1   109.8000471 387.438400
   2385   2388   2390     1   109.8000471 387.438400
   2386   2385   2388     1   109.5600471 388.275200
   2386   2385   2387     1   108.4600466 328.025600
   2387   2385   2388     1   109.5600471 388.275200
   2388   2397   2398     1   109.5600471 388.275200
   2388   2397   2399     1   109.5600471 388.275200
   2389   2388   2397     1   109.8000471 387.438400
   2389   2388   2390     1   107.5800459 329.699200
   2390   2388   2397     1   109.8000471 387.438400
   2391   2403   2404     1   109.5600471 388.275200
   2391   2403   2405     1   109.5600471 388.275200
   2392   2391   2403     1   109.8000471 387.438400
   2392   2391   2393     1   107.5800459 329.699200
   2393   2391   2403     1   109.8000471 387.438400
   2394   2400   2401     1   109.5600471 388.275200
   2394   2400   2402     1   109.5600471 388.275200
   2395   2394   2400     1   109.8000471 387.438400
   2395   2394   2396     1   107.5800459 329.699200
   2396   2394   2400     1   109.8000471 387.438400
   2398   2397   2406     1   109.7800468 425.094400
   2398   2397   2399     1   108.4600466 328.025600
   2399   2397   2406     1   109.7800468 425.094400
   2401   2400   4842     1   109.7800468 425.094400
   2401   2400   2402     1   108.4600466 328.025600
   2402   2400   4842     1   109.7800468 425.094400
   2404   2403   4871     1   109.7800468 425.094400
   2404   2403   2405     1   108.4600466 328.025600
   2405   2403   4871     1   109.7800468 425.094400
   2407   2408   2409     1   109.8800469 414.216000
   2407   2408   2410     1   109.8800469 414.216000
   2407   2411   2412     1   109.8800469 414.216000
   2407   2411   2413     1   109.8800469 414.216000
   2407   2414   2415     1   109.8800469 414.216000
   2407   2414   2416     1   109.8800469 414.216000
   2408   2420   2421     1   109.8000471 387.438400
   2408   2420   2422     1   109.8000471 387.438400
   2409   2408   2420     1   109.5600471 388.275200
   2409   2408   2410     1   108.4600466 328.025600
   2410   2408   2420     1   109.5600471 388.275200
   2411   2423   2424     1   109.8000471 387.438400
   2411   2423   2425     1   109.8000471 387.438400
   2412   2411   2423     1   109.5600471 388.275200
   2412   2411   2413     1   108.4600466 328.025600
   2413   2411   2423     1   109.5600471 388.275200
   2414   2417   2418     1   109.8000471 387.438400
   2414   2417   2419     1   109.8000471 387.438400
   2415   2414   2417     1   109.5600471 388.275200
   2415   2414   2416     1   108.4600466 328.025600
   2416   2414   2417     1   109.5600471 388.275200
   2417   2426   2427     1   109.5600471 388.275200
   2417   2426   2428     1   109.5600471 388.275200
   2418   2417   2426     1   109.8000471 387.438400
   2418   2417   2419     1   107.5800459 329.699200
   2419   2417   2426     1   109.8000471 387.438400
   2420   2432   2433     1   109.5600471 388.275200
   2420   2432   2434     1   109.5600471 388.275200
   2421   2420   2432     1   109.8000471 387.438400
   2421   2420   2422     1   107.5800459 329.699200
   2422   2420   2432     1   109.8000471 387.438400
   2423   2429   2430     1   109.5600471 388.275200
   2423   2429   2431     1   109.5600471 388.275200
   2424   2423   2429     1   109.8000471 387.438400
   2424   2423   2425     1   107.5800459 329.699200
   2425   2423   2429     1   109.8000471 387.438400
   2427   2426   2435     1   109.7800468 425.094400
   2427   2426   2428     1   108.4600466 328.025600
   2428   2426   2435     1   109.7800468 425.094400
   2430   2429   4900     1   109.7800468 425.094400
   2430   2429   2431     1   108.4600466 328.025600
   2431   2429   4900     1   109.7800468 425.094400
   2433   2432   4929     1   109.7800468 425.094400
   2433   2432   2434     1   108.4600466 328.025600
   2434   2432   4929     1   109.7800468 425.094400
   2436   2437   2438     1   109.8800469 414.216000
   2436   2437   2439     1   109.8800469 414.216000
   2436   2440   2441     1   109.8800469 414.216000
   2436   2440   2442     1   109.8800469 414.216000
   2436   2443   2444     1   109.8800469 414.216000
   2436   2443   2445     1   109.8800469 414.216000
   2437   2449   2450     1   109.8000471 387.438400
   2437   2449   2451     1   109.8000471 387.438400
   2438   2437   2449     1   109.5600471 388.275200
   2438   2437   2439     1   108.4600466 328.025600
   2439   2437   2449     1   109.5600471 388.275200
   2440   2452   2453     1   109.8000471 387.438400
   2440   2452   2454     1   109.8000471 387.438400
   2441   2440   2452     1   109.5600471 388.275200
   2441   2440   2442     1   108.4600466 328.025600
   2442   2440   2452     1   109.5600471 388.275200
   2443   2446   2447     1   109.8000471 387.438400
   2443   2446   2448     1   109.8000471 387.438400
   2444   2443   2446     1   109.5600471 388.275200
   2444   2443   2445     1   108.4600466 328.025600
   2445   2443   2446     1   109.5600471 388.275200
   2446   2455   2456     1   109.5600471 388.275200
   2446   2455   2457     1   109.5600471 388.275200
   2447   2446   2455     1   109.8000471 387.438400
   2447   2446   2448     1   107.5800459 329.699200
   2448   2446   2455     1   109.8000471 387.438400
   2449   2461   2462     1   109.5600471 388.275200
   2449   2461   2463     1   109.5600471 388.275200
   2450   2449   2461     1   109.8000471 387.438400
   2450   2449   2451     1   107.5800459 329.699200
   2451   2449   2461     1   109.8000471 387.438400
   2452   2458   2459     1   109.5600471 388.275200
   2452   2458   2460     1   109.5600471 388.275200
   2453   2452   2458     1   109.8000471 387.438400
   2453   2452   2454     1   107.5800459 329.699200
   2454   2452   2458     1   109.8000471 387.438400
   2456   2455   2464     1   109.7800468 425.094400
   2456   2455   2457     1   108.4600466 328.025600
   2457   2455   2464     1   109.7800468 425.094400
   2459   2458   4958     1   109.7800468 425.094400
   2459   2458   2460     1   108.4600466 328.025600
   2460   2458   4958     1   109.7800468 425.094400
   2462   2461   4987     1   109.7800468 425.094400
   2462   2461   2463     1   108.4600466 328.025600
   2463   2461   4987     1   109.7800468 425.094400
   2465   2466   2467     1   109.8800469 414.216000
   2465   2466   2468     1   109.8800469 414.216000
   2465   2469   2470     1   109.8800469 414.216000
   2465   2469   2471     1   109.8800469 414.216000
   2465   2472   2473     1   109.8800469 414.216000
   2465   2472   2474     1   109.8800469 414.216000
   2466   2478   2479     1   109.8000471 387.438400
   2466   2478   2480     1   109.8000471 387.438400
   2467   2466   2478     1   109.5600471 388.275200
   2467   2466   2468     1   108.4600466 328.025600
   2468   2466   2478     1   109.5600471 388.275200
   2469   2481   2482     1   109.8000471 387.438400
   2469   2481   2483     1   109.8000471 387.438400
   2470   2469   2481     1   109.5600471 388.275200
   2470   2469   2471     1   108.4600466 328.025600
   2471   2469   2481     1   109.5600471 388.275200
   2472   2475   2476     1   109.8000471 387.438400
   2472   2475   2477     1   109.8000471 387.438400
   2473   2472   2475     1   109.5600471 388.275200
   2473   2472   2474     1   108.4600466 328.025600
   2474   2472   2475     1   109.5600471 388.275200
   2475   2484   2485     1   109.5600471 388.275200
   2475   2484   2486     1   109.5600471 388.275200
   2476   2475   2484     1   109.8000471 387.438400
   2476   2475   2477     1   107.5800459 329.699200
   2477   2475   2484     1   109.8000471 387.438400
   2478   2490   2491     1   109.5600471 388.275200
   2478   2490   2492     1   109.5600471 388.275200
   2479   2478   2490     1   109.8000471 387.438400
   2479   2478   2480     1   107.5800459 329.699200
   2480   2478   2490     1   109.8000471 387.438400
   2481   2487   2488     1   109.5600471 388.275200
   2481   2487   2489     1   109.5600471 388.275200
   2482   2481   2487     1   109.8000471 387.438400
   2482   2481   2483     1   107.5800459 329.699200
   2483   2481   2487     1   109.8000471 387.438400
   2485   2484   2493     1   109.7800468 425.094400
   2485   2484   2486     1   108.4600466 328.025600
   2486   2484   2493     1   109.7800468 425.094400
   2488   2487   5016     1   109.7800468 425.094400
   2488   2487   2489     1   108.4600466 328.025600
   2489   2487   5016     1   109.7800468 425.094400
   2491   2490   5045     1   109.7800468 425.094400
   2491   2490   2492     1   108.4600466 328.025600
   2492   2490   5045     1   109.7800468 425.094400
   2494   2495   2496     1   109.8800469 414.216000
   2494   2495   2497     1   109.8800469 414.216000
   2494   2498   2499     1   109.8800469 414.216000
   2494   2498   2500     1   109.8800469 414.216000
   2494   2501   2502     1   109.8800469 414.216000
   2494   2501   2503     1   109.8800469 414.216000
   2495   2507   2508     1   109.8000471 387.438400
   2495   2507   2509     1   109.8000471 387.438400
   2496   2495   2507     1   109.5600471 388.275200
   2496   2495   2497     1   108.4600466 328.025600
   2497   2495   2507     1   109.5600471 388.275200
   2498   2510   2511     1   109.8000471 387.438400
   2498   2510   2512     1   109.8000471 387.438400
   2499   2498   2510     1   109.5600471 388.275200
   2499   2498   2500     1   108.4600466 328.025600
   2500   2498   2510     1   109.5600471 388.275200
   2501   2504   2505     1   109.8000471 387.438400
   2501   2504   2506     1   109.8000471 387.438400
   2502   2501   2504     1   109.5600471 388.275200
   2502   2501   2503     1   108.4600466 328.025600
   2503   2501   2504     1   109.5600471 388.275200
   2504   2513   2514     1   109.5600471 388.275200
   2504   2513   2515     1   109.5600471 388.275200
   2505   2504   2513     1   109.8000471 387.438400
   2505   2504   2506     1   107.5800459 329.699200
   2506   2504   2513     1   109.8000471 387.438400
   2507   2519   2520     1   109.5600471 388.275200
   2507   2519   2521     1   109.5600471 388.275200
   2508   2507   2519     1   109.8000471 387.438400
   2508   2507   2509     1   107.5800459 329.699200
   2509   2507   2519     1   109.8000471 387.438400
   2510   2516   2517     1   109.5600471 388.275200
   2510   2516   2518     1   109.5600471 388.275200
   2511   2510   2516     1   109.8000471 387.438400
   2511   2510   2512     1   107.5800459 329.699200
   2512   2510   2516     1   109.8000471 387.438400
   2514   2513   2522     1   109.7800468 425.094400
   2514   2513   2515     1   108.4600466 328.025600
   2515   2513   2522     1   109.7800468 425.094400
   2517   2516   5074     1   109.7800468 425.094400
   2517   2516   2518     1   108.4600466 328.025600
   2518   2516   5074     1   109.7800468 425.094400
   2520   2519   5103     1   109.7800468 425.094400
   2520   2519   2521     1   108.4600466 328.025600
   2521   2519   5103     1   109.7800468 425.094400
   2523   2524   2525     1   109.8800469 414.216000
   2523   2524   2526     1   109.8800469 414.216000
   2523   2527   2528     1   109.8800469 414.216000
   2523   2527   2529     1   109.8800469 414.216000
   2523   2530   2531     1   109.8800469 414.216000
   2523   2530   2532     1   109.8800469 414.216000
   2524   2536   2537     1   109.8000471 387.438400
   2524   2536   2538     1   109.8000471 387.438400
   2525   2524   2536     1   109.5600471 388.275200
   2525   2524   2526     1   108.4600466 328.025600
   2526   2524   2536     1   109.5600471 388.275200
   2527   2539   2540     1   109.8000471 387.438400
   2527   2539   2541     1   109.8000471 387.438400
   2528   2527   2539     1   109.5600471 388.275200
   2528   2527   2529     1   108.4600466 328.025600
   2529   2527   2539     1   109.5600471 388.275200
   2530   2533   2534     1   109.8000471 387.438400
   2530   2533   2535     1   109.8000471 387.438400
   2531   2530   2533     1   109.5600471 388.275200
   2531   2530   2532     1   108.4600466 328.025600
   2532   2530   2533     1   109.5600471 388.275200
   2533   2542   2543     1   109.5600471 388.275200
   2533   2542   2544     1   109.5600471 388.275200
   2534   2533   2542     1   109.8000471 387.438400
   2534   2533   2535     1   107.5800459 329.699200
   2535   2533   2542     1   109.8000471 387.438400
   2536   2548   2549     1   109.5600471 388.275200
   2536   2548   2550     1   109.5600471 388.275200
   2537   2536   2548     1   109.8000471 387.438400
   2537   2536   2538     1   107.5800459 329.699200
   2538   2536   2548     1   109.8000471 387.438400
   2539   2545   2546     1   109.5600471 388.275200
   2539   2545   2547     1   109.5600471 388.275200
   2540   2539   2545     1   109.8000471 387.438400
   2540   2539   2541     1   107.5800459 329.699200
   2541   2539   2545     1   109.8000471 387.438400
   2543   2542   2551     1   109.7800468 425.094400
   2543   2542   2544     1   108.4600466 328.025600
   2544   2542   2551     1   109.7800468 425.094400
   2546   2545   5132     1   109.7800468 425.094400
   2546   2545   2547     1   108.4600466 328.025600
   2547   2545   5132     1   109.7800468 425.094400
   2549   2548   5161     1   109.7800468 425.094400
   2549   2548   2550     1   108.4600466 328.025600
   2550   2548   5161     1   109.7800468 425.094400
   2552   2553   2554     1   109.8800469 414.216000
   2552   2553   2555     1   109.8800469 414.216000
   2552   2556   2557     1   109.8800469 414.216000
   2552   2556   2558     1   109.8800469 414.216000
   2552   2559   2560     1   109.8800469 414.216000
   2552   2559   2561     1   109.8800469 414.216000
   2553   2565   2566     1   109.8000471 387.438400
   2553   2565   2567     1   109.8000471 387.438400
   2554   2553   2565     1   109.5600471 388.275200
   2554   2553   2555     1   108.4600466 328.025600
   2555   2553   2565     1   109.5600471 388.275200
   2556   2568   2569     1   109.8000471 387.438400
   2556   2568   2570     1   109.8000471 387.438400
   2557   2556   2568     1   109.5600471 388.275200
   2557   2556   2558     1   108.4600466 328.025600
   2558   2556   2568     1   109.5600471 388.275200
   2559   2562   2563     1   109.8000471 387.438400
   2559   2562   2564     1   109.8000471 387.438400
   2560   2559   2562     1   109.5600471 388.275200
   2560   2559   2561     1   108.4600466 328.025600
   2561   2559   2562     1   109.5600471 388.275200
   2562   2571   2572     1   109.5600471 388.275200
   2562   2571   2573     1   109.5600471 388.275200
   2563   2562   2571     1   109.8000471 387.438400
   2563   2562   2564     1   107.5800459 329.699200
   2564   2562   2571     1   109.8000471 387.438400
   2565   2577   2578     1   109.5600471 388.275200
   2565   2577   2579     1   109.5600471 388.275200
   2566   2565   2577     1   109.8000471 387.438400
   2566   2565   2567     1   107.5800459 329.699200
   2567   2565   2577     1   109.8000471 387.438400
   2568   2574   2575     1   109.5600471 388.275200
   2568   2574   2576     1   109.5600471 388.275200
   2569   2568   2574     1   109.8000471 387.438400
   2569   2568   2570     1   107.5800459 329.699200
   2570   2568   2574     1   109.8000471 387.438400
   2572   2571   2580     1   109.7800468 425.094400
   2572   2571   2573     1   108.4600466 328.025600
   2573   2571   2580     1   109.7800468 425.094400
   2575   2574   5190     1   109.7800468 425.094400
   2575   2574   2576     1   108.4600466 328.025600
   2576   2574   5190     1   109.7800468 425.094400
   2578   2577   5219     1   109.7800468 425.094400
   2578   2577   2579     1   108.4600466 328.025600
   2579   2577   5219     1   109.7800468 425.094400
   2581   2582   2583     1   109.8800469 414.216000
   2581   2582   2584     1   109.8800469 414.216000
   2581   2585   2586     1   109.8800469 414.216000
   2581   2585   2587     1   109.8800469 414.216000
   2581   2588   2589     1   109.8800469 414.216000
   2581   2588   2590     1   109.8800469 414.216000
   2582   2594   2595     1   109.8000471 387.438400
   2582   2594   2596     1   109.8000471 387.438400
   2583   2582   2594     1   109.5600471 388.275200
   2583   2582   2584     1   108.4600466 328.025600
   2584   2582   2594     1   109.5600471 388.275200
   2585   2597   2598     1   109.8000471 387.438400
   2585   2597   2599     1   109.8000471 387.438400
   2586   2585   2597     1   109.5600471 388.275200
   2586   2585   2587     1   108.4600466 328.025600
   2587   2585   2597     1   109.5600471 388.275200
   2588   2591   2592     1   109.8000471 387.438400
   2588   2591   2593     1   109.8000471 387.438400
   2589   2588   2591     1   109.5600471 388.275200
   2589   2588   2590     1   108.4600466 328.025600
   2590   2588   2591     1   109.5600471 388.275200
   2591   2600   2601     1   109.5600471 388.275200
   2591   2600   2602     1   109.5600471 388.275200
   2592   2591   2600     1   109.8000471 387.438400
   2592   2591   2593     1   107.5800459 329.699200
   2593   2591   2600     1   109.8000471 387.438400
   2594   2606   2607     1   109.5600471 388.275200
   2594   2606   2608     1   109.5600471 388.275200
   2595   2594   2606     1   109.8000471 387.438400
   2595   2594   2596     1   107.5800459 329.699200
   2596   2594   2606     1   109.8000471 387.438400
   2597   2603   2604     1   109.5600471 388.275200
   2597   2603   2605     1   109.5600471 388.275200
   2598   2597   2603     1   109.8000471 387.438400
   2598   2597   2599     1   107.5800459 329.699200
   2599   2597   2603     1   109.8000471 387.438400
   2601   2600   2609     1   109.7800468 425.094400
   2601   2600   2602     1   108.4600466 328.025600
   2602   2600   2609     1   109.7800468 425.094400
   2604   2603   5248     1   109.7800468 425.094400
   2604   2603   2605     1   108.4600466 328.025600
   2605   2603   5248     1   109.7800468 425.094400
   2607   2606   5277     1   109.7800468 425.094400
   2607   2606   2608     1   108.4600466 328.025600
   2608   2606   5277     1   109.7800468 425.094400
   2610   2611   2612     1   109.8800469 414.216000
   2610   2611   2613     1   109.8800469 414.216000
   2610   2614   2615     1   109.8800469 414.216000
   2610   2614   2616     1   109.8800469 414.216000
   2610   2617   2618     1   109.8800469 414.216000
   2610   2617   2619     1   109.8800469 414.216000
   2611   2623   2624     1   109.8000471 387.438400
   2611   2623   2625     1   109.8000471 387.438400
   2612   2611   2623     1   109.5600471 388.275200
   2612   2611   2613     1   108.4600466 328.025600
   2613   2611   2623     1   109.5600471 388.275200
   2614   2626   2627     1   109.8000471 387.438400
   2614   2626   2628     1   109.8000471 387.438400
   2615   2614   2626     1   109.5600471 388.275200
   2615   2614   2616     1   108.4600466 328.025600
   2616   2614   2626     1   109.5600471 388.275200
   2617   2620   2621     1   109.8000471 387.438400
   2617   2620   2622     1   109.8000471 387.438400
   2618   2617   2620     1   109.5600471 388.275200
   2618   2617   2619     1   108.4600466 328.025600
   2619   2617   2620     1   109.5600471 388.275200
   2620   2629   2630     1   109.5600471 388.275200
   2620   2629   2631     1   109.5600471 388.275200
   2621   2620   2629     1   109.8000471 387.438400
   2621   2620   2622     1   107.5800459 329.699200
   2622   2620   2629     1   109.8000471 387.438400
   2623   2635   2636     1   109.5600471 388.275200
   2623   2635   2637     1   109.5600471 388.275200
   2624   2623   2635     1   109.8000471 387.438400
   2624   2623   2625     1   107.5800459 329.699200
   2625   2623   2635     1   109.8000471 387.438400
   2626   2632   2633     1   109.5600471 388.275200
   2626   2632   2634     1   109.5600471 388.275200
   2627   2626   2632     1   109.8000471 387.438400
   2627   2626   2628     1   107.5800459 329.699200
   2628   2626   2632     1   109.8000471 387.438400
   2630   2629   2638     1   109.7800468 425.094400
   2630   2629   2631     1   108.4600466 328.025600
   2631   2629   2638     1   109.7800468 425.094400
   2633   2632   5306     1   109.7800468 425.094400
   2633   2632   2634     1   108.4600466 328.025600
   2634   2632   5306     1   109.7800468 425.094400
   2636   2635   5335     1   109.7800468 425.094400
   2636   2635   2637     1   108.4600466 328.025600
   2637   2635   5335     1   109.7800468 425.094400
   2639   2640   2641     1   109.8800469 414.216000
   2639   2640   2642     1   109.8800469 414.216000
   2639   2643   2644     1   109.8800469 414.216000
   2639   2643   2645     1   109.8800469 414.216000
   2639   2646   2647     1   109.8800469 414.216000
   2639   2646   2648     1   109.8800469 414.216000
   2640   2652   2653     1   109.8000471 387.438400
   2640   2652   2654     1   109.8000471 387.438400
   2641   2640   2652     1   109.5600471 388.275200
   2641   2640   2642     1   108.4600466 328.025600
   2642   2640   2652     1   109.5600471 388.275200
   2643   2655   2656     1   109.8000471 387.438400
   2643   2655   2657     1   109.8000471 387.438400
   2644   2643   2655     1   109.5600471 388.275200
   2644   2643   2645     1   108.4600466 328.025600
   2645   2643   2655     1   109.5600471 388.275200
   2646   2649   2650     1   109.8000471 387.438400
   2646   2649   2651     1   109.8000471 387.438400
   2647   2646   2649     1   109.5600471 388.275200
   2647   2646   2648     1   108.4600466 328.025600
   2648   2646   2649     1   109.5600471 388.275200
   2649   2658   2659     1   109.5600471 388.275200
   2649   2658   2660     1   109.5600471 388.275200
   2650   2649   2658     1   109.8000471 387.438400
   2650   2649   2651     1   107.5800459 329.699200
   2651   2649   2658     1   109.8000471 387.438400
   2652   2664   2665     1   109.5600471 388.275200
   2652   2664   2666     1   109.5600471 388.275200
   2653   2652   2664     1   109.8000471 387.438400
   2653   2652   2654     1   107.5800459 329.699200
   2654   2652   2664     1   109.8000471 387.438400
   2655   2661   2662     1   109.5600471 388.275200
   2655   2661   2663     1   109.5600471 388.275200
   2656   2655   2661     1   109.8000471 387.438400
   2656   2655   2657     1   107.5800459 329.699200
   2657   2655   2661     1   109.8000471 387.438400
   2659   2658   2667     1   109.7800468 425.094400
   2659   2658   2660     1   108.4600466 328.025600
   2660   2658   2667     1   109.7800468 425.094400
   2662   2661   5364     1   109.7800468 425.094400
   2662   2661   2663     1   108.4600466 328.025600
   2663   2661   5364     1   109.7800468 425.094400
   2665   2664   5393     1   109.7800468 425.094400
   2665   2664   2666     1   108.4600466 328.025600
   2666   2664   5393     1   109.7800468 425.094400
   2668   2669   2670     1   109.8800469 414.216000
   2668   2669   2671     1   109.8800469 414.216000
   2668   2672   2673     1   109.8800469 414.216000
   2668   2672   2674     1   109.8800469 414.216000
   2668   2675   2676     1   109.8800469 414.216000
   2668   2675   2677     1   109.8800469 414.216000
   2669   2681   2682     1   109.8000471 387.438400
   2669   2681   2683     1   109.8000471 387.438400
   2670   2669   2681     1   109.5600471 388.275200
   2670   2669   2671     1   108.4600466 328.025600
   2671   2669   2681     1   109.5600471 388.275200
   2672   2684   2685     1   109.8000471 387.438400
   2672   2684   2686     1   109.8000471 387.438400
   2673   2672   2684     1   109.5600471 388.275200
   2673   2672   2674     1   108.4600466 328.025600
   2674   2672   2684     1   109.5600471 388.275200
   2675   2678   2679     1   109.8000471 387.438400
   2675   2678   2680     1   109.8000471 387.438400
   2676   2675   2678     1   109.5600471 388.275200
   2676   2675   2677     1   108.4600466 328.025600
   2677   2675   2678     1   109.5600471 388.275200
   2678   2687   2688     1   109.5600471 388.275200
   2678   2687   2689     1   109.5600471 388.275200
   2679   2678   2687     1   109.8000471 387.438400
   2679   2678   2680     1   107.5800459 329.699200
   2680   2678   2687     1   109.8000471 387.438400
   2681   2693   2694     1   109.5600471 388.275200
   2681   2693   2695     1   109.5600471 388.275200
   2682   2681   2693     1   109.8000471 387.438400
   2682   2681   2683     1   107.5800459 329.699200
   2683   2681   2693     1   109.8000471 387.438400
   2684   2690   2691     1   109.5600471 388.275200
   2684   2690   2692     1   109.5600471 388.275200
   2685   2684   2690     1   109.8000471 387.438400
   2685   2684   2686     1   107.5800459 329.699200
   2686   2684   2690     1   109.8000471 387.438400
   2688   2687   2696     1   109.7800468 425.094400
   2688   2687   2689     1   108.4600466 328.025600
   2689   2687   2696     1   109.7800468 425.094400
   2691   2690   5422     1   109.7800468 425.094400
   2691   2690   2692     1   108.4600466 328.025600
   2692   2690   5422     1   109.7800468 425.094400
   2694   2693   5451     1   109.7800468 425.094400
   2694   2693   2695     1   108.4600466 328.025600
   2695   2693   5451     1   109.7800468 425.094400
   2697   2698   2699     1   109.8800469 414.216000
   2697   2698   2700     1   109.8800469 414.216000
   2697   2701   2702     1   109.8800469 414.216000
   2697   2701   2703     1   109.8800469 414.216000
   2697   2704   2705     1   109.8800469 414.216000
   2697   2704   2706     1   109.8800469 414.216000
   2698   2710   2711     1   109.8000471 387.438400
   2698   2710   2712     1   109.8000471 387.438400
   2699   2698   2710     1   109.5600471 388.275200
   2699   2698   2700     1   108.4600466 328.025600
   2700   2698   2710     1   109.5600471 388.275200
   2701   2713   2714     1   109.8000471 387.438400
   2701   2713   2715     1   109.8000471 387.438400
   2702   2701   2713     1   109.5600471 388.275200
   2702   2701   2703     1   108.4600466 328.025600
   2703   2701   2713     1   109.5600471 388.275200
   2704   2707   2708     1   109.8000471 387.438400
   2704   2707   2709     1   109.8000471 387.438400
   2705   2704   2707     1   109.5600471 388.275200
   2705   2704   2706     1   108.4600466 328.025600
   2706   2704   2707     1   109.5600471 388.275200
   2707   2716   2717     1   109.5600471 388.275200
   2707   2716   2718     1   109.5600471 388.275200
   2708   2707   2716     1   109.8000471 387.438400
   2708   2707   2709     1   107.5800459 329.699200
   2709   2707   2716     1   109.8000471 387.438400
   2710   2722   2723     1   109.5600471 388.275200
   2710   2722   2724     1   109.5600471 388.275200
   2711   2710   2722     1   109.8000471 387.438400
   2711   2710   2712     1   107.5800459 329.699200
   2712   2710   2722     1   109.8000471 387.438400
   2713   2719   2720     1   109.5600471 388.275200
   2713   2719   2721     1   109.5600471 388.275200
   2714   2713   2719     1   109.8000471 387.438400
   2714   2713   2715     1   107.5800459 329.699200
   2715   2713   2719     1   109.8000471 387.438400
   2717   2716   2725     1   109.7800468 425.094400
   2717   2716   2718     1   108.4600466 328.025600
   2718   2716   2725     1   109.7800468 425.094400
   2720   2719   5480     1   109.7800468 425.094400
   2720   2719   2721     1   108.4600466 328.025600
   2721   2719   5480     1   109.7800468 425.094400
   2723   2722   5509     1   109.7800468 425.094400
   2723   2722   2724     1   108.4600466 328.025600
   2724   2722   5509     1   109.7800468 425.094400
   2726   2727   2728     1   109.8800469 414.216000
   2726   2727   2729     1   109.8800469 414.216000
   2726   2730   2731     1   109.8800469 414.216000
   2726   2730   2732     1   109.8800469 414.216000
   2726   2733   2734     1   109.8800469 414.216000
   2726   2733   2735     1   109.8800469 414.216000
   2727   2739   2740     1   109.8000471 387.438400
   2727   2739   2741     1   109.8000471 387.438400
   2728   2727   2739     1   109.5600471 388.275200
   2728   2727   2729     1   108.4600466 328.025600
   2729   2727   2739     1   109.5600471 388.275200
   2730   2742   2743     1   109.8000471 387.438400
   2730   2742   2744     1   109.8000471 387.438400
   2731   2730   2742     1   109.5600471 388.275200
   2731   2730   2732     1   108.4600466 328.025600
   2732   2730   2742     1   109.5600471 388.275200
   2733   2736   2737     1   109.8000471 387.438400
   2733   2736   2738     1   109.8000471 387.438400
   2734   2733   2736     1   109.5600471 388.275200
   2734   2733   2735     1   108.4600466 328.025600
   2735   2733   2736     1   109.5600471 388.275200
   2736   2745   2746     1   109.5600471 388.275200
   2736   2745   2747     1   109.5600471 388.275200
   2737   2736   2745     1   109.8000471 387.438400
   2737   2736   2738     1   107.5800459 329.699200
   2738   2736   2745     1   109.8000471 387.438400
   2739   2751   2752     1   109.5600471 388.275200
   2739   2751   2753     1   109.5600471 388.275200
   2740   2739   2751     1   109.8000471 387.438400
   2740   2739   2741     1   107.5800459 329.699200
   2741   2739   2751     1   109.8000471 387.438400
   2742   2748   2749     1   109.5600471 388.275200
   2742   2748   2750     1   109.5600471 388.275200
   2743   2742   2748     1   109.8000471 387.438400
   2743   2742   2744     1   107.5800459 329.699200
   2744   2742   2748     1   109.8000471 387.438400
   2746   2745   2754     1   109.7800468 425.094400
   2746   2745   2747     1   108.4600466 328.025600
   2747   2745   2754     1   109.7800468 425.094400
   2749   2748   5520     1   109.7800468 425.094400
   2749   2748   2750     1   108.4600466 328.025600
   2750   2748   5520     1   109.7800468 425.094400
   2752   2751   5543     1   109.7800468 425.094400
   2752   2751   2753     1   108.4600466 328.025600
   2753   2751   5543     1   109.7800468 425.094400
   2755   2756   2757     1   109.8800469 414.216000
   2755   2756   2758     1   109.8800469 414.216000
   2755   2759   2760     1   109.8800469 414.216000
   2755   2759   2761     1   109.8800469 414.216000
   2755   2762   2763     1   109.8800469 414.216000
   2755   2762   2764     1   109.8800469 414.216000
   2756   2768   2769     1   109.8000471 387.438400
   2756   2768   2770     1   109.8000471 387.438400
   2757   2756   2768     1   109.5600471 388.275200
   2757   2756   2758     1   108.4600466 328.025600
   2758   2756   2768     1   109.5600471 388.275200
   2759   2771   2772     1   109.8000471 387.438400
   2759   2771   2773     1   109.8000471 387.438400
   2760   2759   2771     1   109.5600471 388.275200
   2760   2759   2761     1   108.4600466 328.025600
   2761   2759   2771     1   109.5600471 388.275200
   2762   2765   2766     1   109.8000471 387.438400
   2762   2765   2767     1   109.8000471 387.438400
   2763   2762   2765     1   109.5600471 388.275200
   2763   2762   2764     1   108.4600466 328.025600
   2764   2762   2765     1   109.5600471 388.275200
   2765   2774   2775     1   109.5600471 388.275200
   2765   2774   2776     1   109.5600471 388.275200
   2766   2765   2774     1   109.8000471 387.438400
   2766   2765   2767     1   107.5800459 329.699200
   2767   2765   2774     1   109.8000471 387.438400
   2768   2780   2781     1   109.5600471 388.275200
   2768   2780   2782     1   109.5600471 388.275200
   2769   2768   2780     1   109.8000471 387.438400
   2769   2768   2770     1   107.5800459 329.699200
   2770   2768   2780     1   109.8000471 387.438400
   2771   2777   2778     1   109.5600471 388.275200
   2771   2777   2779     1   109.5600471 388.275200
   2772   2771   2777     1   109.8000471 387.438400
   2772   2771   2773     1   107.5800459 329.699200
   2773   2771   2777     1   109.8000471 387.438400
   2775   2774   2783     1   109.7800468 425.094400
   2775   2774   2776     1   108.4600466 328.025600
   2776   2774   2783     1   109.7800468 425.094400
   2778   2777   5566     1   109.7800468 425.094400
   2778   2777   2779     1   108.4600466 328.025600
   2779   2777   5566     1   109.7800468 425.094400
   2781   2780   5589     1   109.7800468 425.094400
   2781   2780   2782     1   108.4600466 328.025600
   2782   2780   5589     1   109.7800468 425.094400
   2784   2785   2786     1   109.8800469 414.216000
   2784   2785   2787     1   109.8800469 414.216000
   2784   2788   2789     1   109.8800469 414.216000
   2784   2788   2790     1   109.8800469 414.216000
   2784   2791   2792     1   109.8800469 414.216000
   2784   2791   2793     1   109.8800469 414.216000
   2785   2797   2798     1   109.8000471 387.438400
   2785   2797   2799     1   109.8000471 387.438400
   2786   2785   2797     1   109.5600471 388.275200
   2786   2785   2787     1   108.4600466 328.025600
   2787   2785   2797     1   109.5600471 388.275200
   2788   2800   2801     1   109.8000471 387.438400
   2788   2800   2802     1   109.8000471 387.438400
   2789   2788   2800     1   109.5600471 388.275200
   2789   2788   2790     1   108.4600466 328.025600
   2790   2788   2800     1   109.5600471 388.275200
   2791   2794   2795     1   109.8000471 387.438400
   2791   2794   2796     1   109.8000471 387.438400
   2792   2791   2794     1   109.5600471 388.275200
   2792   2791   2793     1   108.4600466 328.025600
   2793   2791   2794     1   109.5600471 388.275200
   2794   2803   2804     1   109.5600471 388.275200
   2794   2803   2805     1   109.5600471 388.275200
   2795   2794   2803     1   109.8000471 387.438400
   2795   2794   2796     1   107.5800459 329.699200
   2796   2794   2803     1   109.8000471 387.438400
   2797   2809   2810     1   109.5600471 388.275200
   2797   2809   2811     1   109.5600471 388.275200
   2798   2797   2809     1   109.8000471 387.438400
   2798   2797   2799     1   107.5800459 329.699200
   2799   2797   2809     1   109.8000471 387.438400
   2800   2806   2807     1   109.5600471 388.275200
   2800   2806   2808     1   109.5600471 388.275200
   2801   2800   2806     1   109.8000471 387.438400
   2801   2800   2802     1   107.5800459 329.699200
   2802   2800   2806     1   109.8000471 387.438400
   2804   2803   2812     1   109.7800468 425.094400
   2804   2803   2805     1   108.4600466 328.025600
   2805   2803   2812     1   109.7800468 425.094400
   2807   2806   5612     1   109.7800468 425.094400
   2807   2806   2808     1   108.4600466 328.025600
   2808   2806   5612     1   109.7800468 425.094400
   2810   2809   5635     1   109.7800468 425.094400
   2810   2809   2811     1   108.4600466 328.025600
   2811   2809   5635     1   109.7800468 425.094400
   2813   2814   2815     1   109.8800469 414.216000
   2813   2814   2816     1   109.8800469 414.216000
   2813   2817   2818     1   109.8800469 414.216000
   2813   2817   2819     1   109.8800469 414.216000
   2813   2820   2821     1   109.8800469 414.216000
   2813   2820   2822     1   109.8800469 414.216000
   2814   2826   2827     1   109.8000471 387.438400
   2814   2826   2828     1   109.8000471 387.438400
   2815   2814   2826     1   109.5600471 388.275200
   2815   2814   2816     1   108.4600466 328.025600
   2816   2814   2826     1   109.5600471 388.275200
   2817   2829   2830     1   109.8000471 387.438400
   2817   2829   2831     1   109.8000471 387.438400
   2818   2817   2829     1   109.5600471 388.275200
   2818   2817   2819     1   108.4600466 328.025600
   2819   2817   2829     1   109.5600471 388.275200
   2820   2823   2824     1   109.8000471 387.438400
   2820   2823   2825     1   109.8000471 387.438400
   2821   2820   2823     1   109.5600471 388.275200
   2821   2820   2822     1   108.4600466 328.025600
   2822   2820   2823     1   109.5600471 388.275200
   2823   2832   2833     1   109.5600471 388.275200
   2823   2832   2834     1   109.5600471 388.275200
   2824   2823   2832     1   109.8000471 387.438400
   2824   2823   2825     1   107.5800459 329.699200
   2825   2823   2832     1   109.8000471 387.438400
   2826   2838   2839     1   109.5600471 388.275200
   2826   2838   2840     1   109.5600471 388.275200
   2827   2826   2838     1   109.8000471 387.438400
   2827   2826   2828     1   107.5800459 329.699200
   2828   2826   2838     1   109.8000471 387.438400
   2829   2835   2836     1   109.5600471 388.275200
   2829   2835   2837     1   109.5600471 388.275200
   2830   2829   2835     1   109.8000471 387.438400
   2830   2829   2831     1   107.5800459 329.699200
   2831   2829   2835     1   109.8000471 387.438400
   2833   2832   2841     1   109.7800468 425.094400
   2833   2832   2834     1   108.4600466 328.025600
   2834   2832   2841     1   109.7800468 425.094400
   2836   2835   5658     1   109.7800468 425.094400
   2836   2835   2837     1   108.4600466 328.025600
   2837   2835   5658     1   109.7800468 425.094400
   2839   2838   5681     1   109.7800468 425.094400
   2839   2838   2840     1   108.4600466 328.025600
   2840   2838   5681     1   109.7800468 425.094400
   2842   2843   2844     1   109.8800469 414.216000
   2842   2843   2845     1   109.8800469 414.216000
   2842   2846   2847     1   109.8800469 414.216000
   2842   2846   2848     1   109.8800469 414.216000
   2842   2849   2850     1   109.8800469 414.216000
   2842   2849   2851     1   109.8800469 414.216000
   2843   2855   2856     1   109.8000471 387.438400
   2843   2855   2857     1   109.8000471 387.438400
   2844   2843   2855     1   109.5600471 388.275200
   2844   2843   2845     1   108.4600466 328.025600
   2845   2843   2855     1   109.5600471 388.275200
   2846   2858   2859     1   109.8000471 387.438400
   2846   2858   2860     1   109.8000471 387.438400
   2847   2846   2858     1   109.5600471 388.275200
   2847   2846   2848     1   108.4600466 328.025600
   2848   2846   2858     1   109.5600471 388.275200
   2849   2852   2853     1   109.8000471 387.438400
   2849   2852   2854     1   109.8000471 387.438400
   2850   2849   2852     1   109.5600471 388.275200
   2850   2849   2851     1   108.4600466 328.025600
   2851   2849   2852     1   109.5600471 388.275200
   2852   2861   2862     1   109.5600471 388.275200
   2852   2861   2863     1   109.5600471 388.275200
   2853   2852   2861     1   109.8000471 387.438400
   2853   2852   2854     1   107.5800459 329.699200
   2854   2852   2861     1   109.8000471 387.438400
   2855   2867   2868     1   109.5600471 388.275200
   2855   2867   2869     1   109.5600471 388.275200
   2856   2855   2867     1   109.8000471 387.438400
   2856   2855   2857     1   107.5800459 329.699200
   2857   2855   2867     1   109.8000471 387.438400
   2858   2864   2865     1   109.5600471 388.275200
   2858   2864   2866     1   109.5600471 388.275200
   2859   2858   2864     1   109.8000471 387.438400
   2859   2858   2860     1   107.5800459 329.699200
   2860   2858   2864     1   109.8000471 387.438400
   2862   2861   2870     1   109.7800468 425.094400
   2862   2861   2863     1   108.4600466 328.025600
   2863   2861   2870     1   109.7800468 425.094400
   2865   2864   5704     1   109.7800468 425.094400
   2865   2864   2866     1   108.4600466 328.025600
   2866   2864   5704     1   109.7800468 425.094400
   2868   2867   5727     1   109.7800468 425.094400
   2868   2867   2869     1   108.4600466 328.025600
   2869   2867   5727     1   109.7800468 425.094400
   2871   2872   2873     1   109.8800469 414.216000
   2871   2872   2874     1   109.8800469 414.216000
   2871   2875   2876     1   109.8800469 414.216000
   2871   2875   2877     1   109.8800469 414.216000
   2871   2878   2879     1   109.8800469 414.216000
   2871   2878   2880     1   109.8800469 414.216000
   2872   2884   2885     1   109.8000471 387.438400
   2872   2884   2886     1   109.8000471 387.438400
   2873   2872   2884     1   109.5600471 388.275200
   2873   2872   2874     1   108.4600466 328.025600
   2874   2872   2884     1   109.5600471 388.275200
   2875   2887   2888     1   109.8000471 387.438400
   2875   2887   2889     1   109.8000471 387.438400
   2876   2875   2887     1   109.5600471 388.275200
   2876   2875   2877     1   108.4600466 328.025600
   2877   2875   2887     1   109.5600471 388.275200
   2878   2881   2882     1   109.8000471 387.438400
   2878   2881   2883     1   109.8000471 387.438400
   2879   2878   2881     1   109.5600471 388.275200
   2879   2878   2880     1   108.4600466 328.025600
   2880   2878   2881     1   109.5600471 388.275200
   2881   2890   2891     1   109.5600471 388.275200
   2881   2890   2892     1   109.5600471 388.275200
   2882   2881   2890     1   109.8000471 387.438400
   2882   2881   2883     1   107.5800459 329.699200
   2883   2881   2890     1   109.8000471 387.438400
   2884   2896   2897     1   109.5600471 388.275200
   2884   2896   2898     1   109.5600471 388.275200
   2885   2884   2896     1   109.8000471 387.438400
   2885   2884   2886     1   107.5800459 329.699200
   2886   2884   2896     1   109.8000471 387.438400
   2887   2893   2894     1   109.5600471 388.275200
   2887   2893   2895     1   109.5600471 388.275200
   2888   2887   2893     1   109.8000471 387.438400
   2888   2887   2889     1   107.5800459 329.699200
   2889   2887   2893     1   109.8000471 387.438400
   2891   2890   2899     1   109.7800468 425.094400
   2891   2890   2892     1   108.4600466 328.025600
   2892   2890   2899     1   109.7800468 425.094400
   2894   2893   5750     1   109.7800468 425.094400
   2894   2893   2895     1   108.4600466 328.025600
   2895   2893   5750     1   109.7800468 425.094400
   2897   2896   5773     1   109.7800468 425.094400
   2897   2896   2898     1   108.4600466 328.025600
   2898   2896   5773     1   109.7800468 425.094400
   2900   2901   2902     1   109.8800469 414.216000
   2900   2901   2903     1   109.8800469 414.216000
   2900   2904   2905     1   109.8800469 414.216000
   2900   2904   2906     1   109.8800469 414.216000
   2900   2907   2908     1   109.8800469 414.216000
   2900   2907   2909     1   109.8800469 414.216000
   2901   2913   2914     1   109.8000471 387.438400
   2901   2913   2915     1   109.8000471 387.438400
   2902   2901   2913     1   109.5600471 388.275200
   2902   2901   2903     1   108.4600466 328.025600
   2903   2901   2913     1   109.5600471 388.275200
   2904   2916   2917     1   109.8000471 387.438400
   2904   2916   2918     1   109.8000471 387.438400
   2905   2904   2916     1   109.5600471 388.275200
   2905   2904   2906     1   108.4600466 328.025600
   2906   2904   2916     1   109.5600471 388.275200
   2907   2910   2911     1   109.8000471 387.438400
   2907   2910   2912     1   109.8000471 387.438400
   2908   2907   2910     1   109.5600471 388.275200
   2908   2907   2909     1   108.4600466 328.025600
   2909   2907   2910     1   109.5600471 388.275200
   2910   2919   2920     1   109.5600471 388.275200
   2910   2919   2921     1   109.5600471 388.275200
   2911   2910   2919     1   109.8000471 387.438400
   2911   2910   2912     1   107.5800459 329.699200
   2912   2910   2919     1   109.8000471 387.438400
   2913   2925   2926     1   109.5600471 388.275200
   2913   2925   2927     1   109.5600471 388.275200
   2914   2913   2925     1   109.8000471 387.438400
   2914   2913   2915     1   107.5800459 329.699200
   2915   2913   2925     1   109.8000471 387.438400
   2916   2922   2923     1   109.5600471 388.275200
   2916   2922   2924     1   109.5600471 388.275200
   2917   2916   2922     1   109.8000471 387.438400
   2917   2916   2918     1   107.5800459 329.699200
   2918   2916   2922     1   109.8000471 387.438400
   2920   2919   2928     1   109.7800468 425.094400
   2920   2919   2921     1   108.4600466 328.025600
   2921   2919   2928     1   109.7800468 425.094400
   2923   2922   5796     1   109.7800468 425.094400
   2923   2922   2924     1   108.4600466 328.025600
   2924   2922   5796     1   109.7800468 425.094400
   2926   2925   5819     1   109.7800468 425.094400
   2926   2925   2927     1   108.4600466 328.025600
   2927   2925   5819     1   109.7800468 425.094400
   2929   2930   2931     1   109.8800469 414.216000
   2929   2930   2932     1   109.8800469 414.216000
   2929   2933   2934     1   109.8800469 414.216000
   2929   2933   2935     1   109.8800469 414.216000
   2929   2936   2937     1   109.8800469 414.216000
   2929   2936   2938     1   109.8800469 414.216000
   2930   2942   2943     1   109.8000471 387.438400
   2930   2942   2944     1   109.8000471 387.438400
   2931   2930   2942     1   109.5600471 388.275200
   2931   2930   2932     1   108.4600466 328.025600
   2932   2930   2942     1   109.5600471 388.275200
   2933   2945   2946     1   109.8000471 387.438400
   2933   2945   2947     1   109.8000471 387.438400
   2934   2933   2945     1   109.5600471 388.275200
   2934   2933   2935     1   108.4600466 328.025600
   2935   2933   2945     1   109.5600471 388.275200
   2936   2939   2940     1   109.8000471 387.438400
   2936   2939   2941     1   109.8000471 387.438400
   2937   2936   2939     1   109.5600471 388.275200
   2937   2936   2938     1   108.4600466 328.025600
   2938   2936   2939     1   109.5600471 388.275200
   2939   2948   2949     1   109.5600471 388.275200
   2939   2948   2950     1   109.5600471 388.275200
   2940   2939   2948     1   109.8000471 387.438400
   2940   2939   2941     1   107.5800459 329.699200
   2941   2939   2948     1   109.8000471 387.438400
   2942   2954   2955     1   109.5600471 388.275200
   2942   2954   2956     1   109.5600471 388.275200
   2943   2942   2954     1   109.8000471 387.438400
   2943   2942   2944     1   107.5800459 329.699200
   2944   2942   2954     1   109.8000471 387.438400
   2945   2951   2952     1   109.5600471 388.275200
   2945   2951   2953     1   109.5600471 388.275200
   2946   2945   2951     1   109.8000471 387.438400
   2946   2945   2947     1   107.5800459 329.699200
   2947   2945   2951     1   109.8000471 387.438400
   2949   2948   2957     1   109.7800468 425.094400
   2949   2948   2950     1   108.4600466 328.025600
   2950   2948   2957     1   109.7800468 425.094400
   2952   2951   5842     1   109.7800468 425.094400
   2952   2951   2953     1   108.4600466 328.025600
   2953   2951   5842     1   109.7800468 425.094400
   2955   2954   5865     1   109.7800468 425.094400
   2955   2954   2956     1   108.4600466 328.025600
   2956   2954   5865     1   109.7800468 425.094400
   2958   2959   2960     1   109.8800469 414.216000
   2958   2959   2961     1   109.8800469 414.216000
   2958   2962   2963     1   109.8800469 414.216000
   2958   2962   2964     1   109.8800469 414.216000
   2958   2965   2966     1   109.8800469 414.216000
   2958   2965   2967     1   109.8800469 414.216000
   2959   2971   2972     1   109.8000471 387.438400
   2959   2971   2973     1   109.8000471 387.438400
   2960   2959   2971     1   109.5600471 388.275200
   2960   2959   2961     1   108.4600466 328.025600
   2961   2959   2971     1   109.5600471 388.275200
   2962   2974   2975     1   109.8000471 387.438400
   2962   2974   2976     1   109.8000471 387.438400
   2963   2962   2974     1   109.5600471 388.275200
   2963   2962   2964     1   108.4600466 328.025600
   2964   2962   2974     1   109.5600471 388.275200
   2965   2968   2969     1   109.8000471 387.438400
   2965   2968   2970     1   109.8000471 387.438400
   2966   2965   2968     1   109.5600471 388.275200
   2966   2965   2967     1   108.4600466 328.025600
   2967   2965   2968     1   109.5600471 388.275200
   2968   2977   2978     1   109.5600471 388.275200
   2968   2977   2979     1   109.5600471 388.275200
   2969   2968   2977     1   109.8000471 387.438400
   2969   2968   2970     1   107.5800459 329.699200
   2970   2968   2977     1   109.8000471 387.438400
   2971   2983   2984     1   109.5600471 388.275200
   2971   2983   2985     1   109.5600471 388.275200
   2972   2971   2983     1   109.8000471 387.438400
   2972   2971   2973     1   107.5800459 329.699200
   2973   2971   2983     1   109.8000471 387.438400
   2974   2980   2981     1   109.5600471 388.275200
   2974   2980   2982     1   109.5600471 388.275200
   2975   2974   2980     1   109.8000471 387.438400
   2975   2974   2976     1   107.5800459 329.699200
   2976   2974   2980     1   109.8000471 387.438400
   2978   2977   2986     1   109.7800468 425.094400
   2978   2977   2979     1   108.4600466 328.025600
   2979   2977   2986     1   109.7800468 425.094400
   2981   2980   5888     1   109.7800468 425.094400
   2981   2980   2982     1   108.4600466 328.025600
   2982   2980   5888     1   109.7800468 425.094400
   2984   2983   5911     1   109.7800468 425.094400
   2984   2983   2985     1   108.4600466 328.025600
   2985   2983   5911     1   109.7800468 425.094400
   2987   2988   2989     1   109.8800469 414.216000
   2987   2988   2990     1   109.8800469 414.216000
   2987   2991   2992     1   109.8800469 414.216000
   2987   2991   2993     1   109.8800469 414.216000
   2987   2994   2995     1   109.8800469 414.216000
   2987   2994   2996     1   109.8800469 414.216000
   2988   3000   3001     1   109.8000471 387.438400
   2988   3000   3002     1   109.8000471 387.438400
   2989   2988   3000     1   109.5600471 388.275200
   2989   2988   2990     1   108.4600466 328.025600
   2990   2988   3000     1   109.5600471 388.275200
   2991   3003   3004     1   109.8000471 387.438400
   2991   3003   3005     1   109.8000471 387.438400
   2992   2991   3003     1   109.5600471 388.275200
   2992   2991   2993     1   108.4600466 328.025600
   2993   2991   3003     1   109.5600471 388.275200
   2994   2997   2998     1   109.8000471 387.438400
   2994   2997   2999     1   109.8000471 387.438400
   2995   2994   2997     1   109.5600471 388.275200
   2995   2994   2996     1   108.4600466 328.025600
   2996   2994   2997     1   109.5600471 388.275200
   2997   3006   3007     1   109.5600471 388.275200
   2997   3006   3008     1   109.5600471 388.275200
   2998   2997   3006     1   109.8000471 387.438400
   2998   2997   2999     1   107.5800459 329.699200
   2999   2997   3006     1   109.8000471 387.438400
   3000   3012   3013     1   109.5600471 388.275200
   3000   3012   3014     1   109.5600471 388.275200
   3001   3000   3012     1   109.8000471 387.438400
   3001   3000   3002     1   107.5800459 329.699200
   3002   3000   3012     1   109.8000471 387.438400
   3003   3009   3010     1   109.5600471 388.275200
   3003   3009   3011     1   109.5600471 388.275200
   3004   3003   3009     1   109.8000471 387.438400
   3004   3003   3005     1   107.5800459 329.699200
   3005   3003   3009     1   109.8000471 387.438400
   3007   3006   3015     1   109.7800468 425.094400
   3007   3006   3008     1   108.4600466 328.025600
   3008   3006   3015     1   109.7800468 425.094400
   3010   3009   5934     1   109.7800468 425.094400
   3010   3009   3011     1   108.4600466 328.025600
   3011   3009   5934     1   109.7800468 425.094400
   3013   3012   5957     1   109.7800468 425.094400
   3013   3012   3014     1   108.4600466 328.025600
   3014   3012   5957     1   109.7800468 425.094400
   3016   3017   3018     1   109.8800469 414.216000
   3016   3017   3019     1   109.8800469 414.216000
   3016   3020   3021     1   109.8800469 414.216000
   3016   3020   3022     1   109.8800469 414.216000
   3016   3023   3024     1   109.8800469 414.216000
   3016   3023   3025     1   109.8800469 414.216000
   3017   3029   3030     1   109.8000471 387.438400
   3017   3029   3031     1   109.8000471 387.438400
   3018   3017   3029     1   109.5600471 388.275200
   3018   3017   3019     1   108.4600466 328.025600
   3019   3017   3029     1   109.5600471 388.275200
   3020   3032   3033     1   109.8000471 387.438400
   3020   3032   3034     1   109.8000471 387.438400
   3021   3020   3032     1   109.5600471 388.275200
   3021   3020   3022     1   108.4600466 328.025600
   3022   3020   3032     1   109.5600471 388.275200
   3023   3026   3027     1   109.8000471 387.438400
   3023   3026   3028     1   109.8000471 387.438400
   3024   3023   3026     1   109.5600471 388.275200
   3024   3023   3025     1   108.4600466 328.025600
   3025   3023   3026     1   109.5600471 388.275200
   3026   3035   3036     1   109.5600471 388.275200
   3026   3035   3037     1   109.5600471 388.275200
   3027   3026   3035     1   109.8000471 387.438400
   3027   3026   3028     1   107.5800459 329.699200
   3028   3026   3035     1   109.8000471 387.438400
   3029   3041   3042     1   109.5600471 388.275200
   3029   3041   3043     1   109.5600471 388.275200
   3030   3029   3041     1   109.8000471 387.438400
   3030   3029   3031     1   107.5800459 329.699200
   3031   3029   3041     1   109.8000471 387.438400
   3032   3038   3039     1   109.5600471 388.275200
   3032   3038   3040     1   109.5600471 388.275200
   3033   3032   3038     1   109.8000471 387.438400
   3033   3032   3034     1   107.5800459 329.699200
   3034   3032   3038     1   109.8000471 387.438400
   3036   3035   3044     1   109.7800468 425.094400
   3036   3035   3037     1   108.4600466 328.025600
   3037   3035   3044     1   109.7800468 425.094400
   3039   3038   5980     1   109.7800468 425.094400
   3039   3038   3040     1   108.4600466 328.025600
   3040   3038   5980     1   109.7800468 425.094400
   3042   3041   6003     1   109.7800468 425.094400
   3042   3041   3043     1   108.4600466 328.025600
   3043   3041   6003     1   109.7800468 425.094400
   3045   3046   3047     1   109.8800469 414.216000
   3045   3046   3048     1   109.8800469 414.216000
   3045   3049   3050     1   109.8800469 414.216000
   3045   3049   3051     1   109.8800469 414.216000
   3045   3052   3053     1   109.8800469 414.216000
   3045   3052   3054     1   109.8800469 414.216000
   3046   3058   3059     1   109.8000471 387.438400
   3046   3058   3060     1   109.8000471 387.438400
   3047   3046   3058     1   109.5600471 388.275200
   3047   3046   3048     1   108.4600466 328.025600
   3048   3046   3058     1   109.5600471 388.275200
   3049   3061   3062     1   109.8000471 387.438400
   3049   3061   3063     1   109.8000471 387.438400
   3050   3049   3061     1   109.5600471 388.275200
   3050   3049   3051     1   108.4600466 328.025600
   3051   3049   3061     1   109.5600471 388.275200
   3052   3055   3056     1   109.8000471 387.438400
   3052   3055   3057     1   109.8000471 387.438400
   3053   3052   3055     1   109.5600471 388.275200
   3053   3052   3054     1   108.4600466 328.025600
   3054   3052   3055     1   109.5600471 388.275200
   3055   3064   3065     1   109.5600471 388.275200
   3055   3064   3066     1   109.5600471 388.275200
   3056   3055   3064     1   109.8000471 387.438400
   3056   3055   3057     1   107.5800459 329.699200
   3057   3055   3064     1   109.8000471 387.438400
   3058   3070   3071     1   109.5600471 388.275200
   3058   3070   3072     1   109.5600471 388.275200
   3059   3058   3070     1   109.8000471 387.438400
   3059   3058   3060     1   107.5800459 329.699200
   3060   3058   3070     1   109.8000471 387.438400
   3061   3067   3068     1   109.5600471 388.275200
   3061   3067   3069     1   109.5600471 388.275200
   3062   3061   3067     1   109.8000471 387.438400
   3062   3061   3063     1   107.5800459 329.699200
   3063   3061   3067     1   109.8000471 387.438400
   3065   3064   3073     1   109.7800468 425.094400
   3065   3064   3066     1   108.4600466 328.025600
   3066   3064   3073     1   109.7800468 425.094400
   3068   3067   6026     1   109.7800468 425.094400
   3068   3067   3069     1   108.4600466 328.025600
   3069   3067   6026     1   109.7800468 425.094400
   3071   3070   6049     1   109.7800468 425.094400
   3071   3070   3072     1   108.4600466 328.025600
   3072   3070   6049     1   109.7800468 425.094400
   3074   3075   3076     1   109.8800469 414.216000
   3074   3075   3077     1   109.8800469 414.216000
   3074   3078   3079     1   109.8800469 414.216000
   3074   3078   3080     1   109.8800469 414.216000
   3074   3081   3082     1   109.8800469 414.216000
   3074   3081   3083     1   109.8800469 414.216000
   3075   3087   3088     1   109.8000471 387.438400
   3075   3087   3089     1   109.8000471 387.438400
   3076   3075   3087     1   109.5600471 388.275200
   3076   3075   3077     1   108.4600466 328.025600
   3077   3075   3087     1   109.5600471 388.275200
   3078   3090   3091     1   109.8000471 387.438400
   3078   3090   3092     1   109.8000471 387.438400
   3079   3078   3090     1   109.5600471 388.275200
   3079   3078   3080     1   108.4600466 328.025600
   3080   3078   3090     1   109.5600471 388.275200
   3081   3084   3085     1   109.8000471 387.438400
   3081   3084   3086     1   109.8000471 387.438400
   3082   3081   3084     1   109.5600471 388.275200
   3082   3081   3083     1   108.4600466 328.025600
   3083   3081   3084     1   109.5600471 388.275200
   3084   3093   3094     1   109.5600471 388.275200
   3084   3093   3095     1   109.5600471 388.275200
   3085   3084   3093     1   109.8000471 387.438400
   3085   3084   3086     1   107.5800459 329.699200
   3086   3084   3093     1   109.8000471 387.438400
   3087   3099   3100     1   109.5600471 388.275200
   3087   3099   3101     1   109.5600471 388.275200
   3088   3087   3099     1   109.8000471 387.438400
   3088   3087   3089     1   107.5800459 329.699200
   3089   3087   3099     1   109.8000471 387.438400
   3090   3096   3097     1   109.5600471 388.275200
   3090   3096   3098     1   109.5600471 388.275200
   3091   3090   3096     1   109.8000471 387.438400
   3091   3090   3092     1   107.5800459 329.699200
   3092   3090   3096     1   109.8000471 387.438400
   3094   3093   3102     1   109.7800468 425.094400
   3094   3093   3095     1   108.4600466 328.025600
   3095   3093   3102     1   109.7800468 425.094400
   3097   3096   6072     1   109.7800468 425.094400
   3097   3096   3098     1   108.4600466 328.025600
   3098   3096   6072     1   109.7800468 425.094400
   3100   3099   6095     1   109.7800468 425.094400
   3100   3099   3101     1   108.4600466 328.025600
   3101   3099   6095     1   109.7800468 425.094400
   3103   3104   3105     1   109.8800469 414.216000
   3103   3104   3106     1   109.8800469 414.216000
   3103   3107   3108     1   109.8800469 414.216000
   3103   3107   3109     1   109.8800469 414.216000
   3103   3110   3111     1   109.8800469 414.216000
   3103   3110   3112     1   109.8800469 414.216000
   3104   3116   3117     1   109.8000471 387.438400
   3104   3116   3118     1   109.8000471 387.438400
   3105   3104   3116     1   109.5600471 388.275200
   3105   3104   3106     1   108.4600466 328.025600
   3106   3104   3116     1   109.5600471 388.275200
   3107   3119   3120     1   109.8000471 387.438400
   3107   3119   3121     1   109.8000471 387.438400
   3108   3107   3119     1   109.5600471 388.275200
   3108   3107   3109     1   108.4600466 328.025600
   3109   3107   3119     1   109.5600471 388.275200
   3110   3113   3114     1   109.8000471 387.438400
   3110   3113   3115     1   109.8000471 387.438400
   3111   3110   3113     1   109.5600471 388.275200
   3111   3110   3112     1   108.4600466 328.025600
   3112   3110   3113     1   109.5600471 388.275200
   3113   3122   3123     1   109.5600471 388.275200
   3113   3122   3124     1   109.5600471 388.275200
   3114   3113   3122     1   109.8000471 387.438400
   3114   3113   3115     1   107.5800459 329.699200
   3115   3113   3122     1   109.8000471 387.438400
   3116   3128   3129     1   109.5600471 388.275200
   3116   3128   3130     1   109.5600471 388.275200
   3117   3116   3128     1   109.8000471 387.438400
   3117   3116   3118     1   107.5800459 329.699200
   3118   3116   3128     1   109.8000471 387.438400
   3119   3125   3126     1   109.5600471 388.275200
   3119   3125   3127     1   109.5600471 388.275200
   3120   3119   3125     1   109.8000471 387.438400
   3120   3119   3121     1   107.5800459 329.699200
   3121   3119   3125     1   109.8000471 387.438400
   3123   3122   3131     1   109.7800468 425.094400
   3123   3122   3124     1   108.4600466 328.025600
   3124   3122   3131     1   109.7800468 425.094400
   3126   3125   6118     1   109.7800468 425.094400
   3126   3125   3127     1   108.4600466 328.025600
   3127   3125   6118     1   109.7800468 425.094400
   3129   3128   6141     1   109.7800468 425.094400
   3129   3128   3130     1   108.4600466 328.025600
   3130   3128   6141     1   109.7800468 425.094400
   3132   3133   3134     1   109.8800469 414.216000
   3132   3133   3135     1   109.8800469 414.216000
   3132   3136   3137     1   109.8800469 414.216000
   3132   3136   3138     1   109.8800469 414.216000
   3132   3139   3140     1   109.8800469 414.216000
   3132   3139   3141     1   109.8800469 414.216000
   3133   3145   3146     1   109.8000471 387.438400
   3133   3145   3147     1   109.8000471 387.438400
   3134   3133   3145     1   109.5600471 388.275200
   3134   3133   3135     1   108.4600466 328.025600
   3135   3133   3145     1   109.5600471 388.275200
   3136   3148   3149     1   109.8000471 387.438400
   3136   3148   3150     1   109.8000471 387.438400
   3137   3136   3148     1   109.5600471 388.275200
   3137   3136   3138     1   108.4600466 328.025600
   3138   3136   3148     1   109.5600471 388.275200
   3139   3142   3143     1   109.8000471 387.438400
   3139   3142   3144     1   109.8000471 387.438400
   3140   3139   3142     1   109.5600471 388.275200
   3140   3139   3141     1   108.4600466 328.025600
   3141   3139   3142     1   109.5600471 388.275200
   3142   3151   3152     1   109.5600471 388.275200
   3142   3151   3153     1   109.5600471 388.275200
   3143   3142   3151     1   109.8000471 387.438400
   3143   3142   3144     1   107.5800459 329.699200
   3144   3142   3151     1   109.8000471 387.438400
   3145   3157   3158     1   109.5600471 388.275200
   3145   3157   3159     1   109.5600471 388.275200
   3146   3145   3157     1   109.8000471 387.438400
   3146   3145   3147     1   107.5800459 329.699200
   3147   3145   3157     1   109.8000471 387.438400
   3148   3154   3155     1   109.5600471 388.275200
   3148   3154   3156     1   109.5600471 388.275200
   3149   3148   3154     1   109.8000471 387.438400
   3149   3148   3150     1   107.5800459 329.699200
   3150   3148   3154     1   109.8000471 387.438400
   3152   3151   3160     1   109.7800468 425.094400
   3152   3151   3153     1   108.4600466 328.025600
   3153   3151   3160     1   109.7800468 425.094400
   3155   3154   6164     1   109.7800468 425.094400
   3155   3154   3156     1   108.4600466 328.025600
   3156   3154   6164     1   109.7800468 425.094400
   3158   3157   6187     1   109.7800468 425.094400
   3158   3157   3159     1   108.4600466 328.025600
   3159   3157   6187     1   109.7800468 425.094400
   3161   3162   3163     1   109.8800469 414.216000
   3161   3162   3164     1   109.8800469 414.216000
   3161   3165   3166     1   109.8800469 414.216000
   3161   3165   3167     1   109.8800469 414.216000
   3161   3168   3169     1   109.8800469 414.216000
   3161   3168   3170     1   109.8800469 414.216000
   3162   3174   3175     1   109.8000471 387.438400
   3162   3174   3176     1   109.8000471 387.438400
   3163   3162   3174     1   109.5600471 388.275200
   3163   3162   3164     1   108.4600466 328.025600
   3164   3162   3174     1   109.5600471 388.275200
   3165   3177   3178     1   109.8000471 387.438400
   3165   3177   3179     1   109.8000471 387.438400
   3166   3165   3177     1   109.5600471 388.275200
   3166   3165   3167     1   108.4600466 328.025600
   3167   3165   3177     1   109.5600471 388.275200
   3168   3171   3172     1   109.8000471 387.438400
   3168   3171   3173     1   109.8000471 387.438400
   3169   3168   3171     1   109.5600471 388.275200
   3169   3168   3170     1   108.4600466 328.025600
   3170   3168   3171     1   109.5600471 388.275200
   3171   3180   3181     1   109.5600471 388.275200
   3171   3180   3182     1   109.5600471 388.275200
   3172   3171   3180     1   109.8000471 387.438400
   3172   3171   3173     1   107.5800459 329.699200
   3173   3171   3180     1   109.8000471 387.438400
   3174   3186   3187     1   109.5600471 388.275200
   3174   3186   3188     1   109.5600471 388.275200
   3175   3174   3186     1   109.8000471 387.438400
   3175   3174   3176     1   107.5800459 329.699200
   3176   3174   3186     1   109.8000471 387.438400
   3177   3183   3184     1   109.5600471 388.275200
   3177   3183   3185     1   109.5600471 388.275200
   3178   3177   3183     1   109.8000471 387.438400
   3178   3177   3179     1   107.5800459 329.699200
   3179   3177   3183     1   109.8000471 387.438400
   3181   3180   3189     1   109.7800468 425.094400
   3181   3180   3182     1   108.4600466 328.025600
   3182   3180   3189     1   109.7800468 425.094400
   3184   3183   6210     1   109.7800468 425.094400
   3184   3183   3185     1   108.4600466 328.025600
   3185   3183   6210     1   109.7800468 425.094400
   3187   3186   6233     1   109.7800468 425.094400
   3187   3186   3188     1   108.4600466 328.025600
   3188   3186   6233     1   109.7800468 425.094400
   3190   3191   3192     1   109.8800469 414.216000
   3190   3191   3193     1   109.8800469 414.216000
   3190   3194   3195     1   109.8800469 414.216000
   3190   3194   3196     1   109.8800469 414.216000
   3190   3197   3198     1   109.8800469 414.216000
   3190   3197   3199     1   109.8800469 414.216000
   3191   3203   3204     1   109.8000471 387.438400
   3191   3203   3205     1   109.8000471 387.438400
   3192   3191   3203     1   109.5600471 388.275200
   3192   3191   3193     1   108.4600466 328.025600
   3193   3191   3203     1   109.5600471 388.275200
   3194   3206   3207     1   109.8000471 387.438400
   3194   3206   3208     1   109.8000471 387.438400
   3195   3194   3206     1   109.5600471 388.275200
   3195   3194   3196     1   108.4600466 328.025600
   3196   3194   3206     1   109.5600471 388.275200
   3197   3200   3201     1   109.8000471 387.438400
   3197   3200   3202     1   109.8000471 387.438400
   3198   3197   3200     1   109.5600471 388.275200
   3198   3197   3199     1   108.4600466 328.025600
   3199   3197   3200     1   109.5600471 388.275200
   3200   3209   3210     1   109.5600471 388.275200
   3200   3209   3211     1   109.5600471 388.275200
   3201   3200   3209     1   109.8000471 387.438400
   3201   3200   3202     1   107.5800459 329.699200
   3202   3200   3209     1   109.8000471 387.438400
   3203   3215   3216     1   109.5600471 388.275200
   3203   3215   3217     1   109.5600471 388.275200
   3204   3203   3215     1   109.8000471 387.438400
   3204   3203   3205     1   107.5800459 329.699200
   3205   3203   3215     1   109.8000471 387.438400
   3206   3212   3213     1   109.5600471 388.275200
   3206   3212   3214     1   109.5600471 388.275200
   3207   3206   3212     1   109.8000471 387.438400
   3207   3206   3208     1   107.5800459 329.699200
   3208   3206   3212     1   109.8000471 387.438400
   3210   3209   3218     1   109.7800468 425.094400
   3210   3209   3211     1   108.4600466 328.025600
   3211   3209   3218     1   109.7800468 425.094400
   3213   3212   6256     1   109.7800468 425.094400
   3213   3212   3214     1   108.4600466 328.025600
   3214   3212   6256     1   109.7800468 425.094400
   3216   3215   6279     1   109.7800468 425.094400
   3216   3215   3217     1   108.4600466 328.025600
   3217   3215   6279     1   109.7800468 425.094400
   3219   3220   3221     1   109.8800469 414.216000
   3219   3220   3222     1   109.8800469 414.216000
   3219   3223   3224     1   109.8800469 414.216000
   3219   3223   3225     1   109.8800469 414.216000
   3219   3226   3227     1   109.8800469 414.216000
   3219   3226   3228     1   109.8800469 414.216000
   3220   3232   3233     1   109.8000471 387.438400
   3220   3232   3234     1   109.8000471 387.438400
   3221   3220   3232     1   109.5600471 388.275200
   3221   3220   3222     1   108.4600466 328.025600
   3222   3220   3232     1   109.5600471 388.275200
   3223   3235   3236     1   109.8000471 387.438400
   3223   3235   3237     1   109.8000471 387.438400
   3224   3223   3235     1   109.5600471 388.275200
   3224   3223   3225     1   108.4600466 328.025600
   3225   3223   3235     1   109.5600471 388.275200
   3226   3229   3230     1   109.8000471 387.438400
   3226   3229   3231     1   109.8000471 387.438400
   3227   3226   3229     1   109.5600471 388.275200
   3227   3226   3228     1   108.4600466 328.025600
   3228   3226   3229     1   109.5600471 388.275200
   3229   3238   3239     1   109.5600471 388.275200
   3229   3238   3240     1   109.5600471 388.275200
   3230   3229   3238     1   109.8000471 387.438400
   3230   3229   3231     1   107.5800459 329.699200
   3231   3229   3238     1   109.8000471 387.438400
   3232   3244   3245     1   109.5600471 388.275200
   3232   3244   3246     1   109.5600471 388.275200
   3233   3232   3244     1   109.8000471 387.438400
   3233   3232   3234     1   107.5800459 329.699200
   3234   3232   3244     1   109.8000471 387.438400
   3235   3241   3242     1   109.5600471 388.275200
   3235   3241   3243     1   109.5600471 388.275200
   3236   3235   3241     1   109.8000471 387.438400
   3236   3235   3237     1   107.5800459 329.699200
   3237   3235   3241     1   109.8000471 387.438400
   3239   3238   3247     1   109.7800468 425.094400
   3239   3238   3240     1   108.4600466 328.025600
   3240   3238   3247     1   109.7800468 425.094400
   3242   3241   6302     1   109.7800468 425.094400
   3242   3241   3243     1   108.4600466 328.025600
   3243   3241   6302     1   109.7800468 425.094400
   3245   3244   6325     1   109.7800468 425.094400
   3245   3244   3246     1   108.4600466 328.025600
   3246   3244   6325     1   109.7800468 425.094400
   3248   3249   3250     1   109.8800469 414.216000
   3248   3249   3251     1   109.8800469 414.216000
   3248   3252   3253     1   109.8800469 414.216000
   3248   3252   3254     1   109.8800469 414.216000
   3248   3255   3256     1   109.8800469 414.216000
   3248   3255   3257     1   109.8800469 414.216000
   3249   3261   3262     1   109.8000471 387.438400
   3249   3261   3263     1   109.8000471 387.438400
   3250   3249   3261     1   109.5600471 388.275200
   3250   3249   3251     1   108.4600466 328.025600
   3251   3249   3261     1   109.5600471 388.275200
   3252   3264   3265     1   109.8000471 387.438400
   3252   3264   3266     1   109.8000471 387.438400
   3253   3252   3264     1   109.5600471 388.275200
   3253   3252   3254     1   108.4600466 328.025600
   3254   3252   3264     1   109.5600471 388.275200
   3255   3258   3259     1   109.8000471 387.438400
   3255   3258   3260     1   109.8000471 387.438400
   3256   3255   3258     1   109.5600471 388.275200
   3256   3255   3257     1   108.4600466 328.025600
   3257   3255   3258     1   109.5600471 388.275200
   3258   3267   3268     1   109.5600471 388.275200
   3258   3267   3269     1   109.5600471 388.275200
   3259   3258   3267     1   109.8000471 387.438400
   3259   3258   3260     1   107.5800459 329.699200
   3260   3258   3267     1   109.8000471 387.438400
   3261   3273   3274     1   109.5600471 388.275200
   3261   3273   3275     1   109.5600471 388.275200
   3262   3261   3273     1   109.8000471 387.438400
   3262   3261   3263     1   107.5800459 329.699200
   3263   3261   3273     1   109.8000471 387.438400
   3264   3270   3271     1   109.5600471 388.275200
   3264   3270   3272     1   109.5600471 388.275200
   3265   3264   3270     1   109.8000471 387.438400
   3265   3264   3266     1   107.5800459 329.699200
   3266   3264   3270     1   109.8000471 387.438400
   3268   3267   3276     1   109.7800468 425.094400
   3268   3267   3269     1   108.4600466 328.025600
   3269   3267   3276     1   109.7800468 425.094400
   3271   3270   6348     1   109.7800468 425.094400
   3271   3270   3272     1   108.4600466 328.025600
   3272   3270   6348     1   109.7800468 425.094400
   3274   3273   6371     1   109.7800468 425.094400
   3274   3273   3275     1   108.4600466 328.025600
   3275   3273   6371     1   109.7800468 425.094400
   3277   3278   3279     1   109.8800469 414.216000
   3277   3278   3280     1   109.8800469 414.216000
   3277   3281   3282     1   109.8800469 414.216000
   3277   3281   3283     1   109.8800469 414.216000
   3277   3284   3285     1   109.8800469 414.216000
   3277   3284   3286     1   109.8800469 414.216000
   3278   3290   3291     1   109.8000471 387.438400
   3278   3290   3292     1   109.8000471 387.438400
   3279   3278   3290     1   109.5600471 388.275200
   3279   3278   3280     1   108.4600466 328.025600
   3280   3278   3290     1   109.5600471 388.275200
   3281   3293   3294     1   109.8000471 387.438400
   3281   3293   3295     1   109.8000471 387.438400
   3282   3281   3293     1   109.5600471 388.275200
   3282   3281   3283     1   108.4600466 328.025600
   3283   3281   3293     1   109.5600471 388.275200
   3284   3287   3288     1   109.8000471 387.438400
   3284   3287   3289     1   109.8000471 387.438400
   3285   3284   3287     1   109.5600471 388.275200
   3285   3284   3286     1   108.4600466 328.025600
   3286   3284   3287     1   109.5600471 388.275200
   3287   3296   3297     1   109.5600471 388.275200
   3287   3296   3298     1   109.5600471 388.275200
   3288   3287   3296     1   109.8000471 387.438400
   3288   3287   3289     1   107.5800459 329.699200
   3289   3287   3296     1   109.8000471 387.438400
   3290   3302   3303     1   109.5600471 388.275200
   3290   3302   3304     1   109.5600471 388.275200
   3291   3290   3302     1   109.8000471 387.438400
   3291   3290   3292     1   107.5800459 329.699200
   3292   3290   3302     1   109.8000471 387.438400
   3293   3299   3300     1   109.5600471 388.275200
   3293   3299   3301     1   109.5600471 388.275200
   3294   3293   3299     1   109.8000471 387.438400
   3294   3293   3295     1   107.5800459 329.699200
   3295   3293   3299     1   109.8000471 387.438400
   3297   3296   3305     1   109.7800468 425.094400
   3297   3296   3298     1   108.4600466 328.025600
   3298   3296   3305     1   109.7800468 425.094400
   3300   3299   6394     1   109.7800468 425.094400
   3300   3299   3301     1   108.4600466 328.025600
   3301   3299   6394     1   109.7800468 425.094400
   3303   3302   6417     1   109.7800468 425.094400
   3303   3302   3304     1   108.4600466 328.025600
   3304   3302   6417     1   109.7800468 425.094400
   3306   3307   3308     1   109.8800469 414.216000
   3306   3307   3309     1   109.8800469 414.216000
   3306   3310   3311     1   109.8800469 414.216000
   3306   3310   3312     1   109.8800469 414.216000
   3306   3313   3314     1   109.8800469 414.216000
   3306   3313   3315     1   109.8800469 414.216000
   3307   3319   3320     1   109.8000471 387.438400
   3307   3319   3321     1   109.8000471 387.438400
   3308   3307   3319     1   109.5600471 388.275200
   3308   3307   3309     1   108.4600466 328.025600
   3309   3307   3319     1   109.5600471 388.275200
   3310   3322   3323     1   109.8000471 387.438400
   3310   3322   3324     1   109.8000471 387.438400
   3311   3310   3322     1   109.5600471 388.275200
   3311   3310   3312     1   108.4600466 328.025600
   3312   3310   3322     1   109.5600471 388.275200
   3313   3316   3317     1   109.8000471 387.438400
   3313   3316   3318     1   109.8000471 387.438400
   3314   3313   3316     1   109.5600471 388.275200
   3314   3313   3315     1   108.4600466 328.025600
   3315   3313   3316     1   109.5600471 388.275200
   3316   3325   3326     1   109.5600471 388.275200
   3316   3325   3327     1   109.5600471 388.275200
   3317   3316   3325     1   109.8000471 387.438400
   3317   3316   3318     1   107.5800459 329.699200
   3318   3316   3325     1   109.8000471 387.438400
   3319   3331   3332     1   109.5600471 388.275200
   3319   3331   3333     1   109.5600471 388.275200
   3320   3319   3331     1   109.8000471 387.438400
   3320   3319   3321     1   107.5800459 329.699200
   3321   3319   3331     1   109.8000471 387.438400
   3322   3328   3329     1   109.5600471 388.275200
   3322   3328   3330     1   109.5600471 388.275200
   3323   3322   3328     1   109.8000471 387.438400
   3323   3322   3324     1   107.5800459 329.699200
   3324   3322   3328     1   109.8000471 387.438400
   3326   3325   3334     1   109.7800468 425.094400
   3326   3325   3327     1   108.4600466 328.025600
   3327   3325   3334     1   109.7800468 425.094400
   3329   3328   6440     1   109.7800468 425.094400
   3329   3328   3330     1   108.4600466 328.025600
   3330   3328   6440     1   109.7800468 425.094400
   3332   3331   6463     1   109.7800468 425.094400
   3332   3331   3333     1   108.4600466 328.025600
   3333   3331   6463     1   109.7800468 425.094400
   3335   3336   3337     1   109.8800469 414.216000
   3335   3336   3338     1   109.8800469 414.216000
   3335   3339   3340     1   109.8800469 414.216000
   3335   3339   3341     1   109.8800469 414.216000
   3335   3342   3343     1   109.8800469 414.216000
   3335   3342   3344     1   109.8800469 414.216000
   3336   3348   3349     1   109.8000471 387.438400
   3336   3348   3350     1   109.8000471 387.438400
   3337   3336   3348     1   109.5600471 388.275200
   3337   3336   3338     1   108.4600466 328.025600
   3338   3336   3348     1   109.5600471 388.275200
   3339   3351   3352     1   109.8000471 387.438400
   3339   3351   3353     1   109.8000471 387.438400
   3340   3339   3351     1   109.5600471 388.275200
   3340   3339   3341     1   108.4600466 328.025600
   3341   3339   3351     1   109.5600471 388.275200
   3342   3345   3346     1   109.8000471 387.438400
   3342   3345   3347     1   109.8000471 387.438400
   3343   3342   3345     1   109.5600471 388.275200
   3343   3342   3344     1   108.4600466 328.025600
   3344   3342   3345     1   109.5600471 388.275200
   3345   3354   3355     1   109.5600471 388.275200
   3345   3354   3356     1   109.5600471 388.275200
   3346   3345   3354     1   109.8000471 387.438400
   3346   3345   3347     1   107.5800459 329.699200
   3347   3345   3354     1   109.8000471 387.438400
   3348   3360   3361     1   109.5600471 388.275200
   3348   3360   3362     1   109.5600471 388.275200
   3349   3348   3360     1   109.8000471 387.438400
   3349   3348   3350     1   107.5800459 329.699200
   3350   3348   3360     1   109.8000471 387.438400
   3351   3357   3358     1   109.5600471 388.275200
   3351   3357   3359     1   109.5600471 388.275200
   3352   3351   3357     1   109.8000471 387.438400
   3352   3351   3353     1   107.5800459 329.699200
   3353   3351   3357     1   109.8000471 387.438400
   3355   3354   3363     1   109.7800468 425.094400
   3355   3354   3356     1   108.4600466 328.025600
   3356   3354   3363     1   109.7800468 425.094400
   3358   3357   6486     1   109.7800468 425.094400
   3358   3357   3359     1   108.4600466 328.025600
   3359   3357   6486     1   109.7800468 425.094400
   3361   3360   6509     1   109.7800468 425.094400
   3361   3360   3362     1   108.4600466 328.025600
   3362   3360   6509     1   109.7800468 425.094400
   3364   3365   3366     1   109.8800469 414.216000
   3364   3365   3367     1   109.8800469 414.216000
   3364   3368   3369     1   109.8800469 414.216000
   3364   3368   3370     1   109.8800469 414.216000
   3364   3371   3372     1   109.8800469 414.216000
   3364   3371   3373     1   109.8800469 414.216000
   3365   3377   3378     1   109.8000471 387.438400
   3365   3377   3379     1   109.8000471 387.438400
   3366   3365   3377     1   109.5600471 388.275200
   3366   3365   3367     1   108.4600466 328.025600
   3367   3365   3377     1   109.5600471 388.275200
   3368   3380   3381     1   109.8000471 387.438400
   3368   3380   3382     1   109.8000471 387.438400
   3369   3368   3380     1   109.5600471 388.275200
   3369   3368   3370     1   108.4600466 328.025600
   3370   3368   3380     1   109.5600471 388.275200
   3371   3374   3375     1   109.8000471 387.438400
   3371   3374   3376     1   109.8000471 387.438400
   3372   3371   3374     1   109.5600471 388.275200
   3372   3371   3373     1   108.4600466 328.025600
   3373   3371   3374     1   109.5600471 388.275200
   3374   3383   3384     1   109.5600471 388.275200
   3374   3383   3385     1   109.5600471 388.275200
   3375   3374   3383     1   109.8000471 387.438400
   3375   3374   3376     1   107.5800459 329.699200
   3376   3374   3383     1   109.8000471 387.438400
   3377   3389   3390     1   109.5600471 388.275200
   3377   3389   3391     1   109.5600471 388.275200
   3378   3377   3389     1   109.8000471 387.438400
   3378   3377   3379     1   107.5800459 329.699200
   3379   3377   3389     1   109.8000471 387.438400
   3380   3386   3387     1   109.5600471 388.275200
   3380   3386   3388     1   109.5600471 388.275200
   3381   3380   3386     1   109.8000471 387.438400
   3381   3380   3382     1   107.5800459 329.699200
   3382   3380   3386     1   109.8000471 387.438400
   3384   3383   3392     1   109.7800468 425.094400
   3384   3383   3385     1   108.4600466 328.025600
   3385   3383   3392     1   109.7800468 425.094400
   3387   3386   6532     1   109.7800468 425.094400
   3387   3386   3388     1   108.4600466 328.025600
   3388   3386   6532     1   109.7800468 425.094400
   3390   3389   6555     1   109.7800468 425.094400
   3390   3389   3391     1   108.4600466 328.025600
   3391   3389   6555     1   109.7800468 425.094400
   3393   3394   3395     1   109.8800469 414.216000
   3393   3394   3396     1   109.8800469 414.216000
   3393   3397   3398     1   109.8800469 414.216000
   3393   3397   3399     1   109.8800469 414.216000
   3393   3400   3401     1   109.8800469 414.216000
   3393   3400   3402     1   109.8800469 414.216000
   3394   3406   3407     1   109.8000471 387.438400
   3394   3406   3408     1   109.8000471 387.438400
   3395   3394   3406     1   109.5600471 388.275200
   3395   3394   3396     1   108.4600466 328.025600
   3396   3394   3406     1   109.5600471 388.275200
   3397   3409   3410     1   109.8000471 387.438400
   3397   3409   3411     1   109.8000471 387.438400
   3398   3397   3409     1   109.5600471 388.275200
   3398   3397   3399     1   108.4600466 328.025600
   3399   3397   3409     1   109.5600471 388.275200
   3400   3403   3404     1   109.8000471 387.438400
   3400   3403   3405     1   109.8000471 387.438400
   3401   3400   3403     1   109.5600471 388.275200
   3401   3400   3402     1   108.4600466 328.025600
   3402   3400   3403     1   109.5600471 388.275200
   3403   3412   3413     1   109.5600471 388.275200
   3403   3412   3414     1   109.5600471 388.275200
   3404   3403   3412     1   109.8000471 387.438400
   3404   3403   3405     1   107.5800459 329.699200
   3405   3403   3412     1   109.8000471 387.438400
   3406   3418   3419     1   109.5600471 388.275200
   3406   3418   3420     1   109.5600471 388.275200
   3407   3406   3418     1   109.8000471 387.438400
   3407   3406   3408     1   107.5800459 329.699200
   3408   3406   3418     1   109.8000471 387.438400
   3409   3415   3416     1   109.5600471 388.275200
   3409   3415   3417     1   109.5600471 388.275200
   3410   3409   3415     1   109.8000471 387.438400
   3410   3409   3411     1   107.5800459 329.699200
   3411   3409   3415     1   109.8000471 387.438400
   3413   3412   3421     1   109.7800468 425.094400
   3413   3412   3414     1   108.4600466 328.025600
   3414   3412   3421     1   109.7800468 425.094400
   3416   3415   6578     1   109.7800468 425.094400
   3416   3415   3417     1   108.4600466 328.025600
   3417   3415   6578     1   109.7800468 425.094400
   3419   3418   6601     1   109.7800468 425.094400
   3419   3418   3420     1   108.4600466 328.025600
   3420   3418   6601     1   109.7800468 425.094400
   3422   3423   3424     1   109.8800469 414.216000
   3422   3423   3425     1   109.8800469 414.216000
   3422   3426   3427     1   109.8800469 414.216000
   3422   3426   3428     1   109.8800469 414.216000
   3422   3429   3430     1   109.8800469 414.216000
   3422   3429   3431     1   109.8800469 414.216000
   3423   3435   3436     1   109.8000471 387.438400
   3423   3435   3437     1   109.8000471 387.438400
   3424   3423   3435     1   109.5600471 388.275200
   3424   3423   3425     1   108.4600466 328.025600
   3425   3423   3435     1   109.5600471 388.275200
   3426   3438   3439     1   109.8000471 387.438400
   3426   3438   3440     1   109.8000471 387.438400
   3427   3426   3438     1   109.5600471 388.275200
   3427   3426   3428     1   108.4600466 328.025600
   3428   3426   3438     1   109.5600471 388.275200
   3429   3432   3433     1   109.8000471 387.438400
   3429   3432   3434     1   109.8000471 387.438400
   3430   3429   3432     1   109.5600471 388.275200
   3430   3429   3431     1   108.4600466 328.025600
   3431   3429   3432     1   109.5600471 388.275200
   3432   3441   3442     1   109.5600471 388.275200
   3432   3441   3443     1   109.5600471 388.275200
   3433   3432   3441     1   109.8000471 387.438400
   3433   3432   3434     1   107.5800459 329.699200
   3434   3432   3441     1   109.8000471 387.438400
   3435   3447   3448     1   109.5600471 388.275200
   3435   3447   3449     1   109.5600471 388.275200
   3436   3435   3447     1   109.8000471 387.438400
   3436   3435   3437     1   107.5800459 329.699200
   3437   3435   3447     1   109.8000471 387.438400
   3438   3444   3445     1   109.5600471 388.275200
   3438   3444   3446     1   109.5600471 388.275200
   3439   3438   3444     1   109.8000471 387.438400
   3439   3438   3440     1   107.5800459 329.699200
   3440   3438   3444     1   109.8000471 387.438400
   3442   3441   3450     1   109.7800468 425.094400
   3442   3441   3443     1   108.4600466 328.025600
   3443   3441   3450     1   109.7800468 425.094400
   3445   3444   6624     1   109.7800468 425.094400
   3445   3444   3446     1   108.4600466 328.025600
   3446   3444   6624     1   109.7800468 425.094400
   3448   3447   6647     1   109.7800468 425.094400
   3448   3447   3449     1   108.4600466 328.025600
   3449   3447   6647     1   109.7800468 425.094400
   3451   3452   3453     1   109.8800469 414.216000
   3451   3452   3454     1   109.8800469 414.216000
   3451   3455   3456     1   109.8800469 414.216000
   3451   3455   3457     1   109.8800469 414.216000
   3451   3458   3459     1   109.8800469 414.216000
   3451   3458   3460     1   109.8800469 414.216000
   3452   3464   3465     1   109.8000471 387.438400
   3452   3464   3466     1   109.8000471 387.438400
   3453   3452   3464     1   109.5600471 388.275200
   3453   3452   3454     1   108.4600466 328.025600
   3454   3452   3464     1   109.5600471 388.275200
   3455   3467   3468     1   109.8000471 387.438400
   3455   3467   3469     1   109.8000471 387.438400
   3456   3455   3467     1   109.5600471 388.275200
   3456   3455   3457     1   108.4600466 328.025600
   3457   3455   3467     1   109.5600471 388.275200
   3458   3461   3462     1   109.8000471 387.438400
   3458   3461   3463     1   109.8000471 387.438400
   3459   3458   3461     1   109.5600471 388.275200
   3459   3458   3460     1   108.4600466 328.025600
   3460   3458   3461     1   109.5600471 388.275200
   3461   3470   3471     1   109.5600471 388.275200
   3461   3470   3472     1   109.5600471 388.275200
   3462   3461   3470     1   109.8000471 387.438400
   3462   3461   3463     1   107.5800459 329.699200
   3463   3461   3470     1   109.8000471 387.438400
   3464   3476   3477     1   109.5600471 388.275200
   3464   3476   3478     1   109.5600471 388.275200
   3465   3464   3476     1   109.8000471 387.438400
   3465   3464   3466     1   107.5800459 329.699200
   3466   3464   3476     1   109.8000471 387.438400
   3467   3473   3474     1   109.5600471 388.275200
   3467   3473   3475     1   109.5600471 388.275200
   3468   3467   3473     1   109.8000471 387.438400
   3468   3467   3469     1   107.5800459 329.699200
   3469   3467   3473     1   109.8000471 387.438400
   3471   3470   3479     1   109.7800468 425.094400
   3471   3470   3472     1   108.4600466 328.025600
   3472   3470   3479     1   109.7800468 425.094400
   3474   3473   6670     1   109.7800468 425.094400
   3474   3473   3475     1   108.4600466 328.025600
   3475   3473   6670     1   109.7800468 425.094400
   3477   3476   6693     1   109.7800468 425.094400
   3477   3476   3478     1   108.4600466 328.025600
   3478   3476   6693     1   109.7800468 425.094400
   3480   3481   3482     1   109.8800469 414.216000
   3480   3481   3483     1   109.8800469 414.216000
   3480   3484   3485     1   109.8800469 414.216000
   3480   3484   3486     1   109.8800469 414.216000
   3480   3487   3488     1   109.8800469 414.216000
   3480   3487   3489     1   109.8800469 414.216000
   3481   3493   3494     1   109.8000471 387.438400
   3481   3493   3495     1   109.8000471 387.438400
   3482   3481   3493     1   109.5600471 388.275200
   3482   3481   3483     1   108.4600466 328.025600
   3483   3481   3493     1   109.5600471 388.275200
   3484   3496   3497     1   109.8000471 387.438400
   3484   3496   3498     1   109.8000471 387.438400
   3485   3484   3496     1   109.5600471 388.275200
   3485   3484   3486     1   108.4600466 328.025600
   3486   3484   3496     1   109.5600471 388.275200
   3487   3490   3491     1   109.8000471 387.438400
   3487   3490   3492     1   109.8000471 387.438400
   3488   3487   3490     1   109.5600471 388.275200
   3488   3487   3489     1   108.4600466 328.025600
   3489   3487   3490     1   109.5600471 388.275200
   3490   3499   3500     1   109.5600471 388.275200
   3490   3499   3501     1   109.5600471 388.275200
   3491   3490   3499     1   109.8000471 387.438400
   3491   3490   3492     1   107.5800459 329.699200
   3492   3490   3499     1   109.8000471 387.438400
   3493   3505   3506     1   109.5600471 388.275200
   3493   3505   3507     1   109.5600471 388.275200
   3494   3493   3505     1   109.8000471 387.438400
   3494   3493   3495     1   107.5800459 329.699200
   3495   3493   3505     1   109.8000471 387.438400
   3496   3502   3503     1   109.5600471 388.275200
   3496   3502   3504     1   109.5600471 388.275200
   3497   3496   3502     1   109.8000471 387.438400
   3497   3496   3498     1   107.5800459 329.699200
   3498   3496   3502     1   109.8000471 387.438400
   3500   3499   3508     1   109.7800468 425.094400
   3500   3499   3501     1   108.4600466 328.025600
   3501   3499   3508     1   109.7800468 425.094400
   3503   3502   6716     1   109.7800468 425.094400
   3503   3502   3504     1   108.4600466 328.025600
   3504   3502   6716     1   109.7800468 425.094400
   3506   3505   6739     1   109.7800468 425.094400
   3506   3505   3507     1   108.4600466 328.025600
   3507   3505   6739     1   109.7800468 425.094400
   3509   3510   3511     1   109.8800469 414.216000
   3509   3510   3512     1   109.8800469 414.216000
   3509   3513   3514     1   109.8800469 414.216000
   3509   3513   3515     1   109.8800469 414.216000
   3509   3516   3517     1   109.8800469 414.216000
   3509   3516   3518     1   109.8800469 414.216000
   3510   3522   3523     1   109.8000471 387.438400
   3510   3522   3524     1   109.8000471 387.438400
   3511   3510   3522     1   109.5600471 388.275200
   3511   3510   3512     1   108.4600466 328.025600
   3512   3510   3522     1   109.5600471 388.275200
   3513   3525   3526     1   109.8000471 387.438400
   3513   3525   3527     1   109.8000471 387.438400
   3514   3513   3525     1   109.5600471 388.275200
   3514   3513   3515     1   108.4600466 328.025600
   3515   3513   3525     1   109.5600471 388.275200
   3516   3519   3520     1   109.8000471 387.438400
   3516   3519   3521     1   109.8000471 387.438400
   3517   3516   3519     1   109.5600471 388.275200
   3517   3516   3518     1   108.4600466 328.025600
   3518   3516   3519     1   109.5600471 388.275200
   3519   3528   3529     1   109.5600471 388.275200
   3519   3528   3530     1   109.5600471 388.275200
   3520   3519   3528     1   109.8000471 387.438400
   3520   3519   3521     1   107.5800459 329.699200
   3521   3519   3528     1   109.8000471 387.438400
   3522   3534   3535     1   109.5600471 388.275200
   3522   3534   3536     1   109.5600471 388.275200
   3523   3522   3534     1   109.8000471 387.438400
   3523   3522   3524     1   107.5800459 329.699200
   3524   3522   3534     1   109.8000471 387.438400
   3525   3531   3532     1   109.5600471 388.275200
   3525   3531   3533     1   109.5600471 388.275200
   3526   3525   3531     1   109.8000471 387.438400
   3526   3525   3527     1   107.5800459 329.699200
   3527   3525   3531     1   109.8000471 387.438400
   3529   3528   3537     1   109.7800468 425.094400
   3529   3528   3530     1   108.4600466 328.025600
   3530   3528   3537     1   109.7800468 425.094400
   3532   3531   6762     1   109.7800468 425.094400
   3532   3531   3533     1   108.4600466 328.025600
   3533   3531   6762     1   109.7800468 425.094400
   3535   3534   6785     1   109.7800468 425.094400
   3535   3534   3536     1   108.4600466 328.025600
   3536   3534   6785     1   109.7800468 425.094400
   3538   3539   3540     1   109.8800469 414.216000
   3538   3539   3541     1   109.8800469 414.216000
   3538   3542   3543     1   109.8800469 414.216000
   3538   3542   3544     1   109.8800469 414.216000
   3538   3545   3546     1   109.8800469 414.216000
   3538   3545   3547     1   109.8800469 414.216000
   3539   3551   3552     1   109.8000471 387.438400
   3539   3551   3553     1   109.8000471 387.438400
   3540   3539   3551     1   109.5600471 388.275200
   3540   3539   3541     1   108.4600466 328.025600
   3541   3539   3551     1   109.5600471 388.275200
   3542   3554   3555     1   109.8000471 387.438400
   3542   3554   3556     1   109.8000471 387.438400
   3543   3542   3554     1   109.5600471 388.275200
   3543   3542   3544     1   108.4600466 328.025600
   3544   3542   3554     1   109.5600471 388.275200
   3545   3548   3549     1   109.8000471 387.438400
   3545   3548   3550     1   109.8000471 387.438400
   3546   3545   3548     1   109.5600471 388.275200
   3546   3545   3547     1   108.4600466 328.025600
   3547   3545   3548     1   109.5600471 388.275200
   3548   3557   3558     1   109.5600471 388.275200
   3548   3557   3559     1   109.5600471 388.275200
   3549   3548   3557     1   109.8000471 387.438400
   3549   3548   3550     1   107.5800459 329.699200
   3550   3548   3557     1   109.8000471 387.438400
   3551   3563   3564     1   109.5600471 388.275200
   3551   3563   3565     1   109.5600471 388.275200
   3552   3551   3563     1   109.8000471 387.438400
   3552   3551   3553     1   107.5800459 329.699200
   3553   3551   3563     1   109.8000471 387.438400
   3554   3560   3561     1   109.5600471 388.275200
   3554   3560   3562     1   109.5600471 388.275200
   3555   3554   3560     1   109.8000471 387.438400
   3555   3554   3556     1   107.5800459 329.699200
   3556   3554   3560     1   109.8000471 387.438400
   3558   3557   3566     1   109.7800468 425.094400
   3558   3557   3559     1   108.4600466 328.025600
   3559   3557   3566     1   109.7800468 425.094400
   3561   3560   6808     1   109.7800468 425.094400
   3561   3560   3562     1   108.4600466 328.025600
   3562   3560   6808     1   109.7800468 425.094400
   3564   3563   6831     1   109.7800468 425.094400
   3564   3563   3565     1   108.4600466 328.025600
   3565   3563   6831     1   109.7800468 425.094400
   3567   3568   3569     1   109.8800469 414.216000
   3567   3568   3570     1   109.8800469 414.216000
   3567   3571   3572     1   109.8800469 414.216000
   3567   3571   3573     1   109.8800469 414.216000
   3567   3574   3575     1   109.8800469 414.216000
   3567   3574   3576     1   109.8800469 414.216000
   3568   3580   3581     1   109.8000471 387.438400
   3568   3580   3582     1   109.8000471 387.438400
   3569   3568   3580     1   109.5600471 388.275200
   3569   3568   3570     1   108.4600466 328.025600
   3570   3568   3580     1   109.5600471 388.275200
   3571   3583   3584     1   109.8000471 387.438400
   3571   3583   3585     1   109.8000471 387.438400
   3572   3571   3583     1   109.5600471 388.275200
   3572   3571   3573     1   108.4600466 328.025600
   3573   3571   3583     1   109.5600471 388.275200
   3574   3577   3578     1   109.8000471 387.438400
   3574   3577   3579     1   109.8000471 387.438400
   3575   3574   3577     1   109.5600471 388.275200
   3575   3574   3576     1   108.4600466 328.025600
   3576   3574   3577     1   109.5600471 388.275200
   3577   3586   3587     1   109.5600471 388.275200
   3577   3586   3588     1   109.5600471 388.275200
   3578   3577   3586     1   109.8000471 387.438400
   3578   3577   3579     1   107.5800459 329.699200
   3579   3577   3586     1   109.8000471 387.438400
   3580   3592   3593     1   109.5600471 388.275200
   3580   3592   3594     1   109.5600471 388.275200
   3581   3580   3592     1   109.8000471 387.438400
   3581   3580   3582     1   107.5800459 329.699200
   3582   3580   3592     1   109.8000471 387.438400
   3583   3589   3590     1   109.5600471 388.275200
   3583   3589   3591     1   109.5600471 388.275200
   3584   3583   3589     1   109.8000471 387.438400
   3584   3583   3585     1   107.5800459 329.699200
   3585   3583   3589     1   109.8000471 387.438400
   3587   3586   3595     1   109.7800468 425.094400
   3587   3586   3588     1   108.4600466 328.025600
   3588   3586   3595     1   109.7800468 425.094400
   3590   3589   6854     1   109.7800468 425.094400
   3590   3589   3591     1   108.4600466 328.025600
   3591   3589   6854     1   109.7800468 425.094400
   3593   3592   6877     1   109.7800468 425.094400
   3593   3592   3594     1   108.4600466 328.025600
   3594   3592   6877     1   109.7800468 425.094400
   3596   3597   3598     1   109.8800469 414.216000
   3596   3597   3599     1   109.8800469 414.216000
   3596   3600   3601     1   109.8800469 414.216000
   3596   3600   3602     1   109.8800469 414.216000
   3596   3603   3604     1   109.8800469 414.216000
   3596   3603   3605     1   109.8800469 414.216000
   3597   3609   3610     1   109.8000471 387.438400
   3597   3609   3611     1   109.8000471 387.438400
   3598   3597   3609     1   109.5600471 388.275200
   3598   3597   3599     1   108.4600466 328.025600
   3599   3597   3609     1   109.5600471 388.275200
   3600   3612   3613     1   109.8000471 387.438400
   3600   3612   3614     1   109.8000471 387.438400
   3601   3600   3612     1   109.5600471 388.275200
   3601   3600   3602     1   108.4600466 328.025600
   3602   3600   3612     1   109.5600471 388.275200
   3603   3606   3607     1   109.8000471 387.438400
   3603   3606   3608     1   109.8000471 387.438400
   3604   3603   3606     1   109.5600471 388.275200
   3604   3603   3605     1   108.4600466 328.025600
   3605   3603   3606     1   109.5600471 388.275200
   3606   3615   3616     1   109.5600471 388.275200
   3606   3615   3617     1   109.5600471 388.275200
   3607   3606   3615     1   109.8000471 387.438400
   3607   3606   3608     1   107.5800459 329.699200
   3608   3606   3615     1   109.8000471 387.438400
   3609   3621   3622     1   109.5600471 388.275200
   3609   3621   3623     1   109.5600471 388.275200
   3610   3609   3621     1   109.8000471 387.438400
   3610   3609   3611     1   107.5800459 329.699200
   3611   3609   3621     1   109.8000471 387.438400
   3612   3618   3619     1   109.5600471 388.275200
   3612   3618   3620     1   109.5600471 388.275200
   3613   3612   3618     1   109.8000471 387.438400
   3613   3612   3614     1   107.5800459 329.699200
   3614   3612   3618     1   109.8000471 387.438400
   3616   3615   3624     1   109.7800468 425.094400
   3616   3615   3617     1   108.4600466 328.025600
   3617   3615   3624     1   109.7800468 425.094400
   3619   3618   6900     1   109.7800468 425.094400
   3619   3618   3620     1   108.4600466 328.025600
   3620   3618   6900     1   109.7800468 425.094400
   3622   3621   6923     1   109.7800468 425.094400
   3622   3621   3623     1   108.4600466 328.025600
   3623   3621   6923     1   109.7800468 425.094400
   3625   3626   3627     1   109.8800469 414.216000
   3625   3626   3628     1   109.8800469 414.216000
   3625   3629   3630     1   109.8800469 414.216000
   3625   3629   3631     1   109.8800469 414.216000
   3625   3632   3633     1   109.8800469 414.216000
   3625   3632   3634     1   109.8800469 414.216000
   3626   3638   3639     1   109.8000471 387.438400
   3626   3638   3640     1   109.8000471 387.438400
   3627   3626   3638     1   109.5600471 388.275200
   3627   3626   3628     1   108.4600466 328.025600
   3628   3626   3638     1   109.5600471 388.275200
   3629   3641   3642     1   109.8000471 387.438400
   3629   3641   3643     1   109.8000471 387.438400
   3630   3629   3641     1   109.5600471 388.275200
   3630   3629   3631     1   108.4600466 328.025600
   3631   3629   3641     1   109.5600471 388.275200
   3632   3635   3636     1   109.8000471 387.438400
   3632   3635   3637     1   109.8000471 387.438400
   3633   3632   3635     1   109.5600471 388.275200
   3633   3632   3634     1   108.4600466 328.025600
   3634   3632   3635     1   109.5600471 388.275200
   3635   3644   3645     1   109.5600471 388.275200
   3635   3644   3646     1   109.5600471 388.275200
   3636   3635   3644     1   109.8000471 387.438400
   3636   3635   3637     1   107.5800459 329.699200
   3637   3635   3644     1   109.8000471 387.438400
   3638   3650   3651     1   109.5600471 388.275200
   3638   3650   3652     1   109.5600471 388.275200
   3639   3638   3650     1   109.8000471 387.438400
   3639   3638   3640     1   107.5800459 329.699200
   3640   3638   3650     1   109.8000471 387.438400
   3641   3647   3648     1   109.5600471 388.275200
   3641   3647   3649     1   109.5600471 388.275200
   3642   3641   3647     1   109.8000471 387.438400
   3642   3641   3643     1   107.5800459 329.699200
   3643   3641   3647     1   109.8000471 387.438400
   3645   3644   3653     1   109.7800468 425.094400
   3645   3644   3646     1   108.4600466 328.025600
   3646   3644   3653     1   109.7800468 425.094400
   3648   3647   6946     1   109.7800468 425.094400
   3648   3647   3649     1   108.4600466 328.025600
   3649   3647   6946     1   109.7800468 425.094400
   3651   3650   6969     1   109.7800468 425.094400
   3651   3650   3652     1   108.4600466 328.025600
   3652   3650   6969     1   109.7800468 425.094400
   3654   3655   3656     1   109.8800469 414.216000
   3654   3655   3657     1   109.8800469 414.216000
   3654   3658   3659     1   109.8800469 414.216000
   3654   3658   3660     1   109.8800469 414.216000
   3654   3661   3662     1   109.8800469 414.216000
   3654   3661   3663     1   109.8800469 414.216000
   3655   3667   3668     1   109.8000471 387.438400
   3655   3667   3669     1   109.8000471 387.438400
   3656   3655   3667     1   109.5600471 388.275200
   3656   3655   3657     1   108.4600466 328.025600
   3657   3655   3667     1   109.5600471 388.275200
   3658   3670   3671     1   109.8000471 387.438400
   3658   3670   3672     1   109.8000471 387.438400
   3659   3658   3670     1   109.5600471 388.275200
   3659   3658   3660     1   108.4600466 328.025600
   3660   3658   3670     1   109.5600471 388.275200
   3661   3664   3665     1   109.8000471 387.438400
   3661   3664   3666     1   109.8000471 387.438400
   3662   3661   3664     1   109.5600471 388.275200
   3662   3661   3663     1   108.4600466 328.025600
   3663   3661   3664     1   109.5600471 388.275200
   3664   3673   3674     1   109.5600471 388.275200
   3664   3673   3675     1   109.5600471 388.275200
   3665   3664   3673     1   109.8000471 387.438400
   3665   3664   3666     1   107.5800459 329.699200
   3666   3664   3673     1   109.8000471 387.438400
   3667   3679   3680     1   109.5600471 388.275200
   3667   3679   3681     1   109.5600471 388.275200
   3668   3667   3679     1   109.8000471 387.438400
   3668   3667   3669     1   107.5800459 329.699200
   3669   3667   3679     1   109.8000471 387.438400
   3670   3676   3677     1   109.5600471 388.275200
   3670   3676   3678     1   109.5600471 388.275200
   3671   3670   3676     1   109.8000471 387.438400
   3671   3670   3672     1   107.5800459 329.699200
   3672   3670   3676     1   109.8000471 387.438400
   3674   3673   3682     1   109.7800468 425.094400
   3674   3673   3675     1   108.4600466 328.025600
   3675   3673   3682     1   109.7800468 425.094400
   3677   3676   6992     1   109.7800468 425.094400
   3677   3676   3678     1   108.4600466 328.025600
   3678   3676   6992     1   109.7800468 425.094400
   3680   3679   7015     1   109.7800468 425.094400
   3680   3679   3681     1   108.4600466 328.025600
   3681   3679   7015     1   109.7800468 425.094400
   3683   3684   3685     1   109.8800469 414.216000
   3683   3684   3686     1   109.8800469 414.216000
   3683   3687   3688     1   109.8800469 414.216000
   3683   3687   3689     1   109.8800469 414.216000
   3683   3690   3691     1   109.8800469 414.216000
   3683   3690   3692     1   109.8800469 414.216000
   3684   3696   3697     1   109.8000471 387.438400
   3684   3696   3698     1   109.8000471 387.438400
   3685   3684   3696     1   109.5600471 388.275200
   3685   3684   3686     1   108.4600466 328.025600
   3686   3684   3696     1   109.5600471 388.275200
   3687   3699   3700     1   109.8000471 387.438400
   3687   3699   3701     1   109.8000471 387.438400
   3688   3687   3699     1   109.5600471 388.275200
   3688   3687   3689     1   108.4600466 328.025600
   3689   3687   3699     1   109.5600471 388.275200
   3690   3693   3694     1   109.8000471 387.438400
   3690   3693   3695     1   109.8000471 387.438400
   3691   3690   3693     1   109.5600471 388.275200
   3691   3690   3692     1   108.4600466 328.025600
   3692   3690   3693     1   109.5600471 388.275200
   3693   3702   3703     1   109.5600471 388.275200
   3693   3702   3704     1   109.5600471 388.275200
   3694   3693   3702     1   109.8000471 387.438400
   3694   3693   3695     1   107.5800459 329.699200
   3695   3693   3702     1   109.8000471 387.438400
   3696   3708   3709     1   109.5600471 388.275200
   3696   3708   3710     1   109.5600471 388.275200
   3697   3696   3708     1   109.8000471 387.438400
   3697   3696   3698     1   107.5800459 329.699200
   3698   3696   3708     1   109.8000471 387.438400
   3699   3705   3706     1   109.5600471 388.275200
   3699   3705   3707     1   109.5600471 388.275200
   3700   3699   3705     1   109.8000471 387.438400
   3700   3699   3701     1   107.5800459 329.699200
   3701   3699   3705     1   109.8000471 387.438400
   3703   3702   3711     1   109.7800468 425.094400
   3703   3702   3704     1   108.4600466 328.025600
   3704   3702   3711     1   109.7800468 425.094400
   3706   3705   7038     1   109.7800468 425.094400
   3706   3705   3707     1   108.4600466 328.025600
   3707   3705   7038     1   109.7800468 425.094400
   3709   3708   7061     1   109.7800468 425.094400
   3709   3708   3710     1   108.4600466 328.025600
   3710   3708   7061     1   109.7800468 425.094400
   3712   3713   3714     1   109.8800469 414.216000
   3712   3713   3715     1   109.8800469 414.216000
   3712   3716   3717     1   109.8800469 414.216000
   3712   3716   3718     1   109.8800469 414.216000
   3712   3719   3720     1   109.8800469 414.216000
   3712   3719   3721     1   109.8800469 414.216000
   3713   3725   3726     1   109.8000471 387.438400
   3713   3725   3727     1   109.8000471 387.438400
   3714   3713   3725     1   109.5600471 388.275200
   3714   3713   3715     1   108.4600466 328.025600
   3715   3713   3725     1   109.5600471 388.275200
   3716   3728   3729     1   109.8000471 387.438400
   3716   3728   3730     1   109.8000471 387.438400
   3717   3716   3728     1   109.5600471 388.275200
   3717   3716   3718     1   108.4600466 328.025600
   3718   3716   3728     1   109.5600471 388.275200
   3719   3722   3723     1   109.8000471 387.438400
   3719   3722   3724     1   109.8000471 387.438400
   3720   3719   3722     1   109.5600471 388.275200
   3720   3719   3721     1   108.4600466 328.025600
   3721   3719   3722     1   109.5600471 388.275200
   3722   3731   3732     1   109.5600471 388.275200
   3722   3731   3733     1   109.5600471 388.275200
   3723   3722   3731     1   109.8000471 387.438400
   3723   3722   3724     1   107.5800459 329.699200
   3724   3722   3731     1   109.8000471 387.438400
   3725   3737   3738     1   109.5600471 388.275200
   3725   3737   3739     1   109.5600471 388.275200
   3726   3725   3737     1   109.8000471 387.438400
   3726   3725   3727     1   107.5800459 329.699200
   3727   3725   3737     1   109.8000471 387.438400
   3728   3734   3735     1   109.5600471 388.275200
   3728   3734   3736     1   109.5600471 388.275200
   3729   3728   3734     1   109.8000471 387.438400
   3729   3728   3730     1   107.5800459 329.699200
   3730   3728   3734     1   109.8000471 387.438400
   3732   3731   3740     1   109.7800468 425.094400
   3732   3731   3733     1   108.4600466 328.025600
   3733   3731   3740     1   109.7800468 425.094400
   3735   3734   7084     1   109.7800468 425.094400
   3735   3734   3736     1   108.4600466 328.025600
   3736   3734   7084     1   109.7800468 425.094400
   3738   3737   7107     1   109.7800468 425.094400
   3738   3737   3739     1   108.4600466 328.025600
   3739   3737   7107     1   109.7800468 425.094400
   3741   3742   3743     1   109.8800469 414.216000
   3741   3742   3744     1   109.8800469 414.216000
   3741   3745   3746     1   109.8800469 414.216000
   3741   3745   3747     1   109.8800469 414.216000
   3741   3748   3749     1   109.8800469 414.216000
   3741   3748   3750     1   109.8800469 414.216000
   3742   3754   3755     1   109.8000471 387.438400
   3742   3754   3756     1   109.8000471 387.438400
   3743   3742   3754     1   109.5600471 388.275200
   3743   3742   3744     1   108.4600466 328.025600
   3744   3742   3754     1   109.5600471 388.275200
   3745   3757   3758     1   109.8000471 387.438400
   3745   3757   3759     1   109.8000471 387.438400
   3746   3745   3757     1   109.5600471 388.275200
   3746   3745   3747     1   108.4600466 328.025600
   3747   3745   3757     1   109.5600471 388.275200
   3748   3751   3752     1   109.8000471 387.438400
   3748   3751   3753     1   109.8000471 387.438400
   3749   3748   3751     1   109.5600471 388.275200
   3749   3748   3750     1   108.4600466 328.025600
   3750   3748   3751     1   109.5600471 388.275200
   3751   3760   3761     1   109.5600471 388.275200
   3751   3760   3762     1   109.5600471 388.275200
   3752   3751   3760     1   109.8000471 387.438400
   3752   3751   3753     1   107.5800459 329.699200
   3753   3751   3760     1   109.8000471 387.438400
   3754   3766   3767     1   109.5600471 388.275200
   3754   3766   3768     1   109.5600471 388.275200
   3755   3754   3766     1   109.8000471 387.438400
   3755   3754   3756     1   107.5800459 329.699200
   3756   3754   3766     1   109.8000471 387.438400
   3757   3763   3764     1   109.5600471 388.275200
   3757   3763   3765     1   109.5600471 388.275200
   3758   3757   3763     1   109.8000471 387.438400
   3758   3757   3759     1   107.5800459 329.699200
   3759   3757   3763     1   109.8000471 387.438400
   3761   3760   3769     1   109.7800468 425.094400
   3761   3760   3762     1   108.4600466 328.025600
   3762   3760   3769     1   109.7800468 425.094400
   3764   3763   7130     1   109.7800468 425.094400
   3764   3763   3765     1   108.4600466 328.025600
   3765   3763   7130     1   109.7800468 425.094400
   3767   3766   7153     1   109.7800468 425.094400
   3767   3766   3768     1   108.4600466 328.025600
   3768   3766   7153     1   109.7800468 425.094400
   3770   3771   3772     1   109.8800469 414.216000
   3770   3771   3773     1   109.8800469 414.216000
   3770   3774   3775     1   109.8800469 414.216000
   3770   3774   3776     1   109.8800469 414.216000
   3770   3777   3778     1   109.8800469 414.216000
   3770   3777   3779     1   109.8800469 414.216000
   3771   3783   3784     1   109.8000471 387.438400
   3771   3783   3785     1   109.8000471 387.438400
   3772   3771   3783     1   109.5600471 388.275200
   3772   3771   3773     1   108.4600466 328.025600
   3773   3771   3783     1   109.5600471 388.275200
   3774   3786   3787     1   109.8000471 387.438400
   3774   3786   3788     1   109.8000471 387.438400
   3775   3774   3786     1   109.5600471 388.275200
   3775   3774   3776     1   108.4600466 328.025600
   3776   3774   3786     1   109.5600471 388.275200
   3777   3780   3781     1   109.8000471 387.438400
   3777   3780   3782     1   109.8000471 387.438400
   3778   3777   3780     1   109.5600471 388.275200
   3778   3777   3779     1   108.4600466 328.025600
   3779   3777   3780     1   109.5600471 388.275200
   3780   3789   3790     1   109.5600471 388.275200
   3780   3789   3791     1   109.5600471 388.275200
   3781   3780   3789     1   109.8000471 387.438400
   3781   3780   3782     1   107.5800459 329.699200
   3782   3780   3789     1   109.8000471 387.438400
   3783   3795   3796     1   109.5600471 388.275200
   3783   3795   3797     1   109.5600471 388.275200
   3784   3783   3795     1   109.8000471 387.438400
   3784   3783   3785     1   107.5800459 329.699200
   3785   3783   3795     1   109.8000471 387.438400
   3786   3792   3793     1   109.5600471 388.275200
   3786   3792   3794     1   109.5600471 388.275200
   3787   3786   3792     1   109.8000471 387.438400
   3787   3786   3788     1   107.5800459 329.699200
   3788   3786   3792     1   109.8000471 387.438400
   3790   3789   3798     1   109.7800468 425.094400
   3790   3789   3791     1   108.4600466 328.025600
   3791   3789   3798     1   109.7800468 425.094400
   3793   3792   7176     1   109.7800468 425.094400
   3793   3792   3794     1   108.4600466 328.025600
   3794   3792   7176     1   109.7800468 425.094400
   3796   3795   7199     1   109.7800468 425.094400
   3796   3795   3797     1   108.4600466 328.025600
   3797   3795   7199     1   109.7800468 425.094400
   3799   3800   3801     1   109.8800469 414.216000
   3799   3800   3802     1   109.8800469 414.216000
   3799   3803   3804     1   109.8800469 414.216000
   3799   3803   3805     1   109.8800469 414.216000
   3799   3806   3807     1   109.8800469 414.216000
   3799   3806   3808     1   109.8800469 414.216000
   3800   3812   3813     1   109.8000471 387.438400
   3800   3812   3814     1   109.8000471 387.438400
   3801   3800   3812     1   109.5600471 388.275200
   3801   3800   3802     1   108.4600466 328.025600
   3802   3800   3812     1   109.5600471 388.275200
   3803   3815   3816     1   109.8000471 387.438400
   3803   3815   3817     1   109.8000471 387.438400
   3804   3803   3815     1   109.5600471 388.275200
   3804   3803   3805     1   108.4600466 328.025600
   3805   3803   3815     1   109.5600471 388.275200
   3806   3809   3810     1   109.8000471 387.438400
   3806   3809   3811     1   109.8000471 387.438400
   3807   3806   3809     1   109.5600471 388.275200
   3807   3806   3808     1   108.4600466 328.025600
   3808   3806   3809     1   109.5600471 388.275200
   3809   3818   3819     1   109.5600471 388.275200
   3809   3818   3820     1   109.5600471 388.275200
   3810   3809   3818     1   109.8000471 387.438400
   3810   3809   3811     1   107.5800459 329.699200
   3811   3809   3818     1   109.8000471 387.438400
   3812   3824   3825     1   109.5600471 388.275200
   3812   3824   3826     1   109.5600471 388.275200
   3813   3812   3824     1   109.8000471 387.438400
   3813   3812   3814     1   107.5800459 329.699200
   3814   3812   3824     1   109.8000471 387.438400
   3815   3821   3822     1   109.5600471 388.275200
   3815   3821   3823     1   109.5600471 388.275200
   3816   3815   3821     1   109.8000471 387.438400
   3816   3815   3817     1   107.5800459 329.699200
   3817   3815   3821     1   109.8000471 387.438400
   3819   3818   3827     1   109.7800468 425.094400
   3819   3818   3820     1   108.4600466 328.025600
   3820   3818   3827     1   109.7800468 425.094400
   3822   3821   7222     1   109.7800468 425.094400
   3822   3821   3823     1   108.4600466 328.025600
   3823   3821   7222     1   109.7800468 425.094400
   3825   3824   7245     1   109.7800468 425.094400
   3825   3824   3826     1   108.4600466 328.025600
   3826   3824   7245     1   109.7800468 425.094400
   3828   3829   3830     1   109.8800469 414.216000
   3828   3829   3831     1   109.8800469 414.216000
   3828   3832   3833     1   109.8800469 414.216000
   3828   3832   3834     1   109.8800469 414.216000
   3828   3835   3836     1   109.8800469 414.216000
   3828   3835   3837     1   109.8800469 414.216000
   3829   3841   3842     1   109.8000471 387.438400
   3829   3841   3843     1   109.8000471 387.438400
   3830   3829   3841     1   109.5600471 388.275200
   3830   3829   3831     1   108.4600466 328.025600
   3831   3829   3841     1   109.5600471 388.275200
   3832   3844   3845     1   109.8000471 387.438400
   3832   3844   3846     1   109.8000471 387.438400
   3833   3832   3844     1   109.5600471 388.275200
   3833   3832   3834     1   108.4600466 328.025600
   3834   3832   3844     1   109.5600471 388.275200
   3835   3838   3839     1   109.8000471 387.438400
   3835   3838   3840     1   109.8000471 387.438400
   3836   3835   3838     1   109.5600471 388.275200
   3836   3835   3837     1   108.4600466 328.025600
   3837   3835   3838     1   109.5600471 388.275200
   3838   3847   3848     1   109.5600471 388.275200
   3838   3847   3849     1   109.5600471 388.275200
   3839   3838   3847     1   109.8000471 387.438400
   3839   3838   3840     1   107.5800459 329.699200
   3840   3838   3847     1   109.8000471 387.438400
   3841   3853   3854     1   109.5600471 388.275200
   3841   3853   3855     1   109.5600471 388.275200
   3842   3841   3853     1   109.8000471 387.438400
   3842   3841   3843     1   107.5800459 329.699200
   3843   3841   3853     1   109.8000471 387.438400
   3844   3850   3851     1   109.5600471 388.275200
   3844   3850   3852     1   109.5600471 388.275200
   3845   3844   3850     1   109.8000471 387.438400
   3845   3844   3846     1   107.5800459 329.699200
   3846   3844   3850     1   109.8000471 387.438400
   3848   3847   3856     1   109.7800468 425.094400
   3848   3847   3849     1   108.4600466 328.025600
   3849   3847   3856     1   109.7800468 425.094400
   3851   3850   7268     1   109.7800468 425.094400
   3851   3850   3852     1   108.4600466 328.025600
   3852   3850   7268     1   109.7800468 425.094400
   3854   3853   7291     1   109.7800468 425.094400
   3854   3853   3855     1   108.4600466 328.025600
   3855   3853   7291     1   109.7800468 425.094400
   3857   3858   3859     1   109.8800469 414.216000
   3857   3858   3860     1   109.8800469 414.216000
   3857   3861   3862     1   109.8800469 414.216000
   3857   3861   3863     1   109.8800469 414.216000
   3857   3864   3865     1   109.8800469 414.216000
   3857   3864   3866     1   109.8800469 414.216000
   3858   3870   3871     1   109.8000471 387.438400
   3858   3870   3872     1   109.8000471 387.438400
   3859   3858   3870     1   109.5600471 388.275200
   3859   3858   3860     1   108.4600466 328.025600
   3860   3858   3870     1   109.5600471 388.275200
   3861   3873   3874     1   109.8000471 387.438400
   3861   3873   3875     1   109.8000471 387.438400
   3862   3861   3873     1   109.5600471 388.275200
   3862   3861   3863     1   108.4600466 328.025600
   3863   3861   3873     1   109.5600471 388.275200
   3864   3867   3868     1   109.8000471 387.438400
   3864   3867   3869     1   109.8000471 387.438400
   3865   3864   3867     1   109.5600471 388.275200
   3865   3864   3866     1   108.4600466 328.025600
   3866   3864   3867     1   109.5600471 388.275200
   3867   3876   3877     1   109.5600471 388.275200
   3867   3876   3878     1   109.5600471 388.275200
   3868   3867   3876     1   109.8000471 387.438400
   3868   3867   3869     1   107.5800459 329.699200
   3869   3867   3876     1   109.8000471 387.438400
   3870   3882   3883     1   109.5600471 388.275200
   3870   3882   3884     1   109.5600471 388.275200
   3871   3870   3882     1   109.8000471 387.438400
   3871   3870   3872     1   107.5800459 329.699200
   3872   3870   3882     1   109.8000471 387.438400
   3873   3879   3880     1   109.5600471 388.275200
   3873   3879   3881     1   109.5600471 388.275200
   3874   3873   3879     1   109.8000471 387.438400
   3874   3873   3875     1   107.5800459 329.699200
   3875   3873   3879     1   109.8000471 387.438400
   3877   3876   3885     1   109.7800468 425.094400
   3877   3876   3878     1   108.4600466 328.025600
   3878   3876   3885     1   109.7800468 425.094400
   3880   3879   7314     1   109.7800468 425.094400
   3880   3879   3881     1   108.4600466 328.025600
   3881   3879   7314     1   109.7800468 425.094400
   3883   3882   7337     1   109.7800468 425.094400
   3883   3882   3884     1   108.4600466 328.025600
   3884   3882   7337     1   109.7800468 425.094400
   3886   3887   3888     1   109.8800469 414.216000
   3886   3887   3889     1   109.8800469 414.216000
   3886   3890   3891     1   109.8800469 414.216000
   3886   3890   3892     1   109.8800469 414.216000
   3886   3893   3894     1   109.8800469 414.216000
   3886   3893   3895     1   109.8800469 414.216000
   3887   3899   3900     1   109.8000471 387.438400
   3887   3899   3901     1   109.8000471 387.438400
   3888   3887   3899     1   109.5600471 388.275200
   3888   3887   3889     1   108.4600466 328.025600
   3889   3887   3899     1   109.5600471 388.275200
   3890   3902   3903     1   109.8000471 387.438400
   3890   3902   3904     1   109.8000471 387.438400
   3891   3890   3902     1   109.5600471 388.275200
   3891   3890   3892     1   108.4600466 328.025600
   3892   3890   3902     1   109.5600471 388.275200
   3893   3896   3897     1   109.8000471 387.438400
   3893   3896   3898     1   109.8000471 387.438400
   3894   3893   3896     1   109.5600471 388.275200
   3894   3893   3895     1   108.4600466 328.025600
   3895   3893   3896     1   109.5600471 388.275200
   3896   3905   3906     1   109.5600471 388.275200
   3896   3905   3907     1   109.5600471 388.275200
   3897   3896   3905     1   109.8000471 387.438400
   3897   3896   3898     1   107.5800459 329.699200
   3898   3896   3905     1   109.8000471 387.438400
   3899   3911   3912     1   109.5600471 388.275200
   3899   3911   3913     1   109.5600471 388.275200
   3900   3899   3911     1   109.8000471 387.438400
   3900   3899   3901     1   107.5800459 329.699200
   3901   3899   3911     1   109.8000471 387.438400
   3902   3908   3909     1   109.5600471 388.275200
   3902   3908   3910     1   109.5600471 388.275200
   3903   3902   3908     1   109.8000471 387.438400
   3903   3902   3904     1   107.5800459 329.699200
   3904   3902   3908     1   109.8000471 387.438400
   3906   3905   3914     1   109.7800468 425.094400
   3906   3905   3907     1   108.4600466 328.025600
   3907   3905   3914     1   109.7800468 425.094400
   3909   3908   7360     1   109.7800468 425.094400
   3909   3908   3910     1   108.4600466 328.025600
   3910   3908   7360     1   109.7800468 425.094400
   3912   3911   7383     1   109.7800468 425.094400
   3912   3911   3913     1   108.4600466 328.025600
   3913   3911   7383     1   109.7800468 425.094400
   3915   3916   3917     1   109.8800469 414.216000
   3915   3916   3918     1   109.8800469 414.216000
   3915   3919   3920     1   109.8800469 414.216000
   3915   3919   3921     1   109.8800469 414.216000
   3915   3922   3923     1   109.8800469 414.216000
   3915   3922   3924     1   109.8800469 414.216000
   3916   3928   3929     1   109.8000471 387.438400
   3916   3928   3930     1   109.8000471 387.438400
   3917   3916   3928     1   109.5600471 388.275200
   3917   3916   3918     1   108.4600466 328.025600
   3918   3916   3928     1   109.5600471 388.275200
   3919   3931   3932     1   109.8000471 387.438400
   3919   3931   3933     1   109.8000471 387.438400
   3920   3919   3931     1   109.5600471 388.275200
   3920   3919   3921     1   108.4600466 328.025600
   3921   3919   3931     1   109.5600471 388.275200
   3922   3925   3926     1   109.8000471 387.438400
   3922   3925   3927     1   109.8000471 387.438400
   3923   3922   3925     1   109.5600471 388.275200
   3923   3922   3924     1   108.4600466 328.025600
   3924   3922   3925     1   109.5600471 388.275200
   3925   3934   3935     1   109.5600471 388.275200
   3925   3934   3936     1   109.5600471 388.275200
   3926   3925   3934     1   109.8000471 387.438400
   3926   3925   3927     1   107.5800459 329.699200
   3927   3925   3934     1   109.8000471 387.438400
   3928   3940   3941     1   109.5600471 388.275200
   3928   3940   3942     1   109.5600471 388.275200
   3929   3928   3940     1   109.8000471 387.438400
   3929   3928   3930     1   107.5800459 329.699200
   3930   3928   3940     1   109.8000471 387.438400
   3931   3937   3938     1   109.5600471 388.275200
   3931   3937   3939     1   109.5600471 388.275200
   3932   3931   3937     1   109.8000471 387.438400
   3932   3931   3933     1   107.5800459 329.699200
   3933   3931   3937     1   109.8000471 387.438400
   3935   3934   3943     1   109.7800468 425.094400
   3935   3934   3936     1   108.4600466 328.025600
   3936   3934   3943     1   109.7800468 425.094400
   3938   3937   7406     1   109.7800468 425.094400
   3938   3937   3939     1   108.4600466 328.025600
   3939   3937   7406     1   109.7800468 425.094400
   3941   3940   7429     1   109.7800468 425.094400
   3941   3940   3942     1   108.4600466 328.025600
   3942   3940   7429     1   109.7800468 425.094400
   3944   3945   3946     1   109.8800469 414.216000
   3944   3945   3947     1   109.8800469 414.216000
   3944   3948   3949     1   109.8800469 414.216000
   3944   3948   3950     1   109.8800469 414.216000
   3944   3951   3952     1   109.8800469 414.216000
   3944   3951   3953     1   109.8800469 414.216000
   3945   3957   3958     1   109.8000471 387.438400
   3945   3957   3959     1   109.8000471 387.438400
   3946   3945   3957     1   109.5600471 388.275200
   3946   3945   3947     1   108.4600466 328.025600
   3947   3945   3957     1   109.5600471 388.275200
   3948   3960   3961     1   109.8000471 387.438400
   3948   3960   3962     1   109.8000471 387.438400
   3949   3948   3960     1   109.5600471 388.275200
   3949   3948   3950     1   108.4600466 328.025600
   3950   3948   3960     1   109.5600471 388.275200
   3951   3954   3955     1   109.8000471 387.438400
   3951   3954   3956     1   109.8000471 387.438400
   3952   3951   3954     1   109.5600471 388.275200
   3952   3951   3953     1   108.4600466 328.025600
   3953   3951   3954     1   109.5600471 388.275200
   3954   3963   3964     1   109.5600471 388.275200
   3954   3963   3965     1   109.5600471 388.275200
   3955   3954   3963     1   109.8000471 387.438400
   3955   3954   3956     1   107.5800459 329.699200
   3956   3954   3963     1   109.8000471 387.438400
   3957   3969   3970     1   109.5600471 388.275200
   3957   3969   3971     1   109.5600471 388.275200
   3958   3957   3969     1   109.8000471 387.438400
   3958   3957   3959     1   107.5800459 329.699200
   3959   3957   3969     1   109.8000471 387.438400
   3960   3966   3967     1   109.5600471 388.275200
   3960   3966   3968     1   109.5600471 388.275200
   3961   3960   3966     1   109.8000471 387.438400
   3961   3960   3962     1   107.5800459 329.699200
   3962   3960   3966     1   109.8000471 387.438400
   3964   3963   3972     1   109.7800468 425.094400
   3964   3963   3965     1   108.4600466 328.025600
   3965   3963   3972     1   109.7800468 425.094400
   3967   3966   7452     1   109.7800468 425.094400
   3967   3966   3968     1   108.4600466 328.025600
   3968   3966   7452     1   109.7800468 425.094400
   3970   3969   7475     1   109.7800468 425.094400
   3970   3969   3971     1   108.4600466 328.025600
   3971   3969   7475     1   109.7800468 425.094400
   3973   3974   3975     1   109.8800469 414.216000
   3973   3974   3976     1   109.8800469 414.216000
   3973   3977   3978     1   109.8800469 414.216000
   3973   3977   3979     1   109.8800469 414.216000
   3973   3980   3981     1   109.8800469 414.216000
   3973   3980   3982     1   109.8800469 414.216000
   3974   3986   3987     1   109.8000471 387.438400
   3974   3986   3988     1   109.8000471 387.438400
   3975   3974   3986     1   109.5600471 388.275200
   3975   3974   3976     1   108.4600466 328.025600
   3976   3974   3986     1   109.5600471 388.275200
   3977   3989   3990     1   109.8000471 387.438400
   3977   3989   3991     1   109.8000471 387.438400
   3978   3977   3989     1   109.5600471 388.275200
   3978   3977   3979     1   108.4600466 328.025600
   3979   3977   3989     1   109.5600471 388.275200
   3980   3983   3984     1   109.8000471 387.438400
   3980   3983   3985     1   109.8000471 387.438400
   3981   3980   3983     1   109.5600471 388.275200
   3981   3980   3982     1   108.4600466 328.025600
   3982   3980   3983     1   109.5600471 388.275200
   3983   3992   3993     1   109.5600471 388.275200
   3983   3992   3994     1   109.5600471 388.275200
   3984   3983   3992     1   109.8000471 387.438400
   3984   3983   3985     1   107.5800459 329.699200
   3985   3983   3992     1   109.8000471 387.438400
   3986   3998   3999     1   109.5600471 388.275200
   3986   3998   4000     1   109.5600471 388.275200
   3987   3986   3998     1   109.8000471 387.438400
   3987   3986   3988     1   107.5800459 329.699200
   3988   3986   3998     1   109.8000471 387.438400
   3989   3995   3996     1   109.5600471 388.275200
   3989   3995   3997     1   109.5600471 388.275200
   3990   3989   3995     1   109.8000471 387.438400
   3990   3989   3991     1   107.5800459 329.699200
   3991   3989   3995     1   109.8000471 387.438400
   3993   3992   4001     1   109.7800468 425.094400
   3993   3992   3994     1   108.4600466 328.025600
   3994   3992   4001     1   109.7800468 425.094400
   3996   3995   7498     1   109.7800468 425.094400
   3996   3995   3997     1   108.4600466 328.025600
   3997   3995   7498     1   109.7800468 425.094400
   3999   3998   7521     1   109.7800468 425.094400
   3999   3998   4000     1   108.4600466 328.025600
   4000   3998   7521     1   109.7800468 425.094400
   4002   4003   4004     1   109.8800469 414.216000
   4002   4003   4005     1   109.8800469 414.216000
   4002   4006   4007     1   109.8800469 414.216000
   4002   4006   4008     1   109.8800469 414.216000
   4002   4009   4010     1   109.8800469 414.216000
   4002   4009   4011     1   109.8800469 414.216000
   4003   4015   4016     1   109.8000471 387.438400
   4003   4015   4017     1   109.8000471 387.438400
   4004   4003   4015     1   109.5600471 388.275200
   4004   4003   4005     1   108.4600466 328.025600
   4005   4003   4015     1   109.5600471 388.275200
   4006   4018   4019     1   109.8000471 387.438400
   4006   4018   4020     1   109.8000471 387.438400
   4007   4006   4018     1   109.5600471 388.275200
   4007   4006   4008     1   108.4600466 328.025600
   4008   4006   4018     1   109.5600471 388.275200
   4009   4012   4013     1   109.8000471 387.438400
   4009   4012   4014     1   109.8000471 387.438400
   4010   4009   4012     1   109.5600471 388.275200
   4010   4009   4011     1   108.4600466 328.025600
   4011   4009   4012     1   109.5600471 388.275200
   4012   4021   4022     1   109.5600471 388.275200
   4012   4021   4023     1   109.5600471 388.275200
   4013   4012   4021     1   109.8000471 387.438400
   4013   4012   4014     1   107.5800459 329.699200
   4014   4012   4021     1   109.8000471 387.438400
   4015   4027   4028     1   109.5600471 388.275200
   4015   4027   4029     1   109.5600471 388.275200
   4016   4015   4027     1   109.8000471 387.438400
   4016   4015   4017     1   107.5800459 329.699200
   4017   4015   4027     1   109.8000471 387.438400
   4018   4024   4025     1   109.5600471 388.275200
   4018   4024   4026     1   109.5600471 388.275200
   4019   4018   4024     1   109.8000471 387.438400
   4019   4018   4020     1   107.5800459 329.699200
   4020   4018   4024     1   109.8000471 387.438400
   4022   4021   4030     1   109.7800468 425.094400
   4022   4021   4023     1   108.4600466 328.025600
   4023   4021   4030     1   109.7800468 425.094400
   4025   4024   7544     1   109.7800468 425.094400
   4025   4024   4026     1   108.4600466 328.025600
   4026   4024   7544     1   109.7800468 425.094400
   4028   4027   7567     1   109.7800468 425.094400
   4028   4027   4029     1   108.4600466 328.025600
   4029   4027   7567     1   109.7800468 425.094400
   4031   4032   4033     1   109.8800469 414.216000
   4031   4032   4034     1   109.8800469 414.216000
   4031   4035   4036     1   109.8800469 414.216000
   4031   4035   4037     1   109.8800469 414.216000
   4031   4038   4039     1   109.8800469 414.216000
   4031   4038   4040     1   109.8800469 414.216000
   4032   4044   4045     1   109.8000471 387.438400
   4032   4044   4046     1   109.8000471 387.438400
   4033   4032   4044     1   109.5600471 388.275200
   4033   4032   4034     1   108.4600466 328.025600
   4034   4032   4044     1   109.5600471 388.275200
   4035   4047   4048     1   109.8000471 387.438400
   4035   4047   4049     1   109.8000471 387.438400
   4036   4035   4047     1   109.5600471 388.275200
   4036   4035   4037     1   108.4600466 328.025600
   4037   4035   4047     1   109.5600471 388.275200
   4038   4041   4042     1   109.8000471 387.438400
   4038   4041   4043     1   109.8000471 387.438400
   4039   4038   4041     1   109.5600471 388.275200
   4039   4038   4040     1   108.4600466 328.025600
   4040   4038   4041     1   109.5600471 388.275200
   4041   4050   4051     1   109.5600471 388.275200
   4041   4050   4052     1   109.5600471 388.275200
   4042   4041   4050     1   109.8000471 387.438400
   4042   4041   4043     1   107.5800459 329.699200
   4043   4041   4050     1   109.8000471 387.438400
   4044   4056   4057     1   109.5600471 388.275200
   4044   4056   4058     1   109.5600471 388.275200
   4045   4044   4056     1   109.8000471 387.438400
   4045   4044   4046     1   107.5800459 329.699200
   4046   4044   4056     1   109.8000471 387.438400
   4047   4053   4054     1   109.5600471 388.275200
   4047   4053   4055     1   109.5600471 388.275200
   4048   4047   4053     1   109.8000471 387.438400
   4048   4047   4049     1   107.5800459 329.699200
   4049   4047   4053     1   109.8000471 387.438400
   4051   4050   4059     1   109.7800468 425.094400
   4051   4050   4052     1   108.4600466 328.025600
   4052   4050   4059     1   109.7800468 425.094400
   4054   4053   7590     1   109.7800468 425.094400
   4054   4053   4055     1   108.4600466 328.025600
   4055   4053   7590     1   109.7800468 425.094400
   4057   4056   7613     1   109.7800468 425.094400
   4057   4056   4058     1   108.4600466 328.025600
   4058   4056   7613     1   109.7800468 425.094400
   4060   4061   4062     1   109.8800469 414.216000
   4060   4061   4063     1   109.8800469 414.216000
   4060   4064   4065     1   109.8800469 414.216000
   4060   4064   4066     1   109.8800469 414.216000
   4060   4067   4068     1   109.8800469 414.216000
   4060   4067   4069     1   109.8800469 414.216000
   4061   4073   4074     1   109.8000471 387.438400
   4061   4073   4075     1   109.8000471 387.438400
   4062   4061   4073     1   109.5600471 388.275200
   4062   4061   4063     1   108.4600466 328.025600
   4063   4061   4073     1   109.5600471 388.275200
   4064   4076   4077     1   109.8000471 387.438400
   4064   4076   4078     1   109.8000471 387.438400
   4065   4064   4076     1   109.5600471 388.275200
   4065   4064   4066     1   108.4600466 328.025600
   4066   4064   4076     1   109.5600471 388.275200
   4067   4070   4071     1   109.8000471 387.438400
   4067   4070   4072     1   109.8000471 387.438400
   4068   4067   4070     1   109.5600471 388.275200
   4068   4067   4069     1   108.4600466 328.025600
   4069   4067   4070     1   109.5600471 388.275200
   4070   4079   4080     1   109.5600471 388.275200
   4070   4079   4081     1   109.5600471 388.275200
   4071   4070   4079     1   109.8000471 387.438400
   4071   4070   4072     1   107.5800459 329.699200
   4072   4070   4079     1   109.8000471 387.438400
   4073   4085   4086     1   109.5600471 388.275200
   4073   4085   4087     1   109.5600471 388.275200
   4074   4073   4085     1   109.8000471 387.438400
   4074   4073   4075     1   107.5800459 329.699200
   4075   4073   4085     1   109.8000471 387.438400
   4076   4082   4083     1   109.5600471 388.275200
   4076   4082   4084     1   109.5600471 388.275200
   4077   4076   4082     1   109.8000471 387.438400
   4077   4076   4078     1   107.5800459 329.699200
   4078   4076   4082     1   109.8000471 387.438400
   4080   4079   4088     1   109.7800468 425.094400
   4080   4079   4081     1   108.4600466 328.025600
   4081   4079   4088     1   109.7800468 425.094400
   4083   4082   7636     1   109.7800468 425.094400
   4083   4082   4084     1   108.4600466 328.025600
   4084   4082   7636     1   109.7800468 425.094400
   4086   4085   7659     1   109.7800468 425.094400
   4086   4085   4087     1   108.4600466 328.025600
   4087   4085   7659     1   109.7800468 425.094400
   4089   4090   4091     1   109.8800469 414.216000
   4089   4090   4092     1   109.8800469 414.216000
   4089   4093   4094     1   109.8800469 414.216000
   4089   4093   4095     1   109.8800469 414.216000
   4089   4096   4097     1   109.8800469 414.216000
   4089   4096   4098     1   109.8800469 414.216000
   4090   4102   4103     1   109.8000471 387.438400
   4090   4102   4104     1   109.8000471 387.438400
   4091   4090   4102     1   109.5600471 388.275200
   4091   4090   4092     1   108.4600466 328.025600
   4092   4090   4102     1   109.5600471 388.275200
   4093   4105   4106     1   109.8000471 387.438400
   4093   4105   4107     1   109.8000471 387.438400
   4094   4093   4105     1   109.5600471 388.275200
   4094   4093   4095     1   108.4600466 328.025600
   4095   4093   4105     1   109.5600471 388.275200
   4096   4099   4100     1   109.8000471 387.438400
   4096   4099   4101     1   109.8000471 387.438400
   4097   4096   4099     1   109.5600471 388.275200
   4097   4096   4098     1   108.4600466 328.025600
   4098   4096   4099     1   109.5600471 388.275200
   4099   4108   4109     1   109.5600471 388.275200
   4099   4108   4110     1   109.5600471 388.275200
   4100   4099   4108     1   109.8000471 387.438400
   4100   4099   4101     1   107.5800459 329.699200
   4101   4099   4108     1   109.8000471 387.438400
   4102   4114   4115     1   109.5600471 388.275200
   4102   4114   4116     1   109.5600471 388.275200
   4103   4102   4114     1   109.8000471 387.438400
   4103   4102   4104     1   107.5800459 329.699200
   4104   4102   4114     1   109.8000471 387.438400
   4105   4111   4112     1   109.5600471 388.275200
   4105   4111   4113     1   109.5600471 388.275200
   4106   4105   4111     1   109.8000471 387.438400
   4106   4105   4107     1   107.5800459 329.699200
   4107   4105   4111     1   109.8000471 387.438400
   4109   4108   4117     1   109.7800468 425.094400
   4109   4108   4110     1   108.4600466 328.025600
   4110   4108   4117     1   109.7800468 425.094400
   4112   4111   7682     1   109.7800468 425.094400
   4112   4111   4113     1   108.4600466 328.025600
   4113   4111   7682     1   109.7800468 425.094400
   4115   4114   7705     1   109.7800468 425.094400
   4115   4114   4116     1   108.4600466 328.025600
   4116   4114   7705     1   109.7800468 425.094400
   4118   4119   4120     1   109.8800469 414.216000
   4118   4119   4121     1   109.8800469 414.216000
   4118   4122   4123     1   109.8800469 414.216000
   4118   4122   4124     1   109.8800469 414.216000
   4118   4125   4126     1   109.8800469 414.216000
   4118   4125   4127     1   109.8800469 414.216000
   4119   4131   4132     1   109.8000471 387.438400
   4119   4131   4133     1   109.8000471 387.438400
   4120   4119   4131     1   109.5600471 388.275200
   4120   4119   4121     1   108.4600466 328.025600
   4121   4119   4131     1   109.5600471 388.275200
   4122   4134   4135     1   109.8000471 387.438400
   4122   4134   4136     1   109.8000471 387.438400
   4123   4122   4134     1   109.5600471 388.275200
   4123   4122   4124     1   108.4600466 328.025600
   4124   4122   4134     1   109.5600471 388.275200
   4125   4128   4129     1   109.8000471 387.438400
   4125   4128   4130     1   109.8000471 387.438400
   4126   4125   4128     1   109.5600471 388.275200
   4126   4125   4127     1   108.4600466 328.025600
   4127   4125   4128     1   109.5600471 388.275200
   4128   4137   4138     1   109.5600471 388.275200
   4128   4137   4139     1   109.5600471 388.275200
   4129   4128   4137     1   109.8000471 387.438400
   4129   4128   4130     1   107.5800459 329.699200
   4130   4128   4137     1   109.8000471 387.438400
   4131   4143   4144     1   109.5600471 388.275200
   4131   4143   4145     1   109.5600471 388.275200
   4132   4131   4143     1   109.8000471 387.438400
   4132   4131   4133     1   107.5800459 329.699200
   4133   4131   4143     1   109.8000471 387.438400
   4134   4140   4141     1   109.5600471 388.275200
   4134   4140   4142     1   109.5600471 388.275200
   4135   4134   4140     1   109.8000471 387.438400
   4135   4134   4136     1   107.5800459 329.699200
   4136   4134   4140     1   109.8000471 387.438400
   4138   4137   4146     1   109.7800468 425.094400
   4138   4137   4139     1   108.4600466 328.025600
   4139   4137   4146     1   109.7800468 425.094400
   4141   4140   7728     1   109.7800468 425.094400
   4141   4140   4142     1   108.4600466 328.025600
   4142   4140   7728     1   109.7800468 425.094400
   4144   4143   7751     1   109.7800468 425.094400
   4144   4143   4145     1   108.4600466 328.025600
   4145   4143   7751     1   109.7800468 425.094400
   4147   4148   4149     1   109.8800469 414.216000
   4147   4148   4150     1   109.8800469 414.216000
   4147   4151   4152     1   109.8800469 414.216000
   4147   4151   4153     1   109.8800469 414.216000
   4147   4154   4155     1   109.8800469 414.216000
   4147   4154   4156     1   109.8800469 414.216000
   4148   4160   4161     1   109.8000471 387.438400
   4148   4160   4162     1   109.8000471 387.438400
   4149   4148   4160     1   109.5600471 388.275200
   4149   4148   4150     1   108.4600466 328.025600
   4150   4148   4160     1   109.5600471 388.275200
   4151   4163   4164     1   109.8000471 387.438400
   4151   4163   4165     1   109.8000471 387.438400
   4152   4151   4163     1   109.5600471 388.275200
   4152   4151   4153     1   108.4600466 328.025600
   4153   4151   4163     1   109.5600471 388.275200
   4154   4157   4158     1   109.8000471 387.438400
   4154   4157   4159     1   109.8000471 387.438400
   4155   4154   4157     1   109.5600471 388.275200
   4155   4154   4156     1   108.4600466 328.025600
   4156   4154   4157     1   109.5600471 388.275200
   4157   4166   4167     1   109.5600471 388.275200
   4157   4166   4168     1   109.5600471 388.275200
   4158   4157   4166     1   109.8000471 387.438400
   4158   4157   4159     1   107.5800459 329.699200
   4159   4157   4166     1   109.8000471 387.438400
   4160   4172   4173     1   109.5600471 388.275200
   4160   4172   4174     1   109.5600471 388.275200
   4161   4160   4172     1   109.8000471 387.438400
   4161   4160   4162     1   107.5800459 329.699200
   4162   4160   4172     1   109.8000471 387.438400
   4163   4169   4170     1   109.5600471 388.275200
   4163   4169   4171     1   109.5600471 388.275200
   4164   4163   4169     1   109.8000471 387.438400
   4164   4163   4165     1   107.5800459 329.699200
   4165   4163   4169     1   109.8000471 387.438400
   4167   4166   4175     1   109.7800468 425.094400
   4167   4166   4168     1   108.4600466 328.025600
   4168   4166   4175     1   109.7800468 425.094400
   4170   4169   7774     1   109.7800468 425.094400
   4170   4169   4171     1   108.4600466 328.025600
   4171   4169   7774     1   109.7800468 425.094400
   4173   4172   7797     1   109.7800468 425.094400
   4173   4172   4174     1   108.4600466 328.025600
   4174   4172   7797     1   109.7800468 425.094400
   4176   4177   4178     1   109.8800469 414.216000
   4176   4177   4179     1   109.8800469 414.216000
   4176   4180   4181     1   109.8800469 414.216000
   4176   4180   4182     1   109.8800469 414.216000
   4176   4183   4184     1   109.8800469 414.216000
   4176   4183   4185     1   109.8800469 414.216000
   4177   4189   4190     1   109.8000471 387.438400
   4177   4189   4191     1   109.8000471 387.438400
   4178   4177   4189     1   109.5600471 388.275200
   4178   4177   4179     1   108.4600466 328.025600
   4179   4177   4189     1   109.5600471 388.275200
   4180   4192   4193     1   109.8000471 387.438400
   4180   4192   4194     1   109.8000471 387.438400
   4181   4180   4192     1   109.5600471 388.275200
   4181   4180   4182     1   108.4600466 328.025600
   4182   4180   4192     1   109.5600471 388.275200
   4183   4186   4187     1   109.8000471 387.438400
   4183   4186   4188     1   109.8000471 387.438400
   4184   4183   4186     1   109.5600471 388.275200
   4184   4183   4185     1   108.4600466 328.025600
   4185   4183   4186     1   109.5600471 388.275200
   4186   4195   4196     1   109.5600471 388.275200
   4186   4195   4197     1   109.5600471 388.275200
   4187   4186   4195     1   109.8000471 387.438400
   4187   4186   4188     1   107.5800459 329.699200
   4188   4186   4195     1   109.8000471 387.438400
   4189   4201   4202     1   109.5600471 388.275200
   4189   4201   4203     1   109.5600471 388.275200
   4190   4189   4201     1   109.8000471 387.438400
   4190   4189   4191     1   107.5800459 329.699200
   4191   4189   4201     1   109.8000471 387.438400
   4192   4198   4199     1   109.5600471 388.275200
   4192   4198   4200     1   109.5600471 388.275200
   4193   4192   4198     1   109.8000471 387.438400
   4193   4192   4194     1   107.5800459 329.699200
   4194   4192   4198     1   109.8000471 387.438400
   4196   4195   4204     1   109.7800468 425.094400
   4196   4195   4197     1   108.4600466 328.025600
   4197   4195   4204     1   109.7800468 425.094400
   4199   4198   7820     1   109.7800468 425.094400
   4199   4198   4200     1   108.4600466 328.025600
   4200   4198   7820     1   109.7800468 425.094400
   4202   4201   7843     1   109.7800468 425.094400
   4202   4201   4203     1   108.4600466 328.025600
   4203   4201   7843     1   109.7800468 425.094400
   4205   4206   4207     1   109.8800469 414.216000
   4205   4206   4208     1   109.8800469 414.216000
   4205   4209   4210     1   109.8800469 414.216000
   4205   4209   4211     1   109.8800469 414.216000
   4205   4212   4213     1   109.8800469 414.216000
   4205   4212   4214     1   109.8800469 414.216000
   4206   4218   4219     1   109.8000471 387.438400
   4206   4218   4220     1   109.8000471 387.438400
   4207   4206   4218     1   109.5600471 388.275200
   4207   4206   4208     1   108.4600466 328.025600
   4208   4206   4218     1   109.5600471 388.275200
   4209   4221   4222     1   109.8000471 387.438400
   4209   4221   4223     1   109.8000471 387.438400
   4210   4209   4221     1   109.5600471 388.275200
   4210   4209   4211     1   108.4600466 328.025600
   4211   4209   4221     1   109.5600471 388.275200
   4212   4215   4216     1   109.8000471 387.438400
   4212   4215   4217     1   109.8000471 387.438400
   4213   4212   4215     1   109.5600471 388.275200
   4213   4212   4214     1   108.4600466 328.025600
   4214   4212   4215     1   109.5600471 388.275200
   4215   4224   4225     1   109.5600471 388.275200
   4215   4224   4226     1   109.5600471 388.275200
   4216   4215   4224     1   109.8000471 387.438400
   4216   4215   4217     1   107.5800459 329.699200
   4217   4215   4224     1   109.8000471 387.438400
   4218   4230   4231     1   109.5600471 388.275200
   4218   4230   4232     1   109.5600471 388.275200
   4219   4218   4230     1   109.8000471 387.438400
   4219   4218   4220     1   107.5800459 329.699200
   4220   4218   4230     1   109.8000471 387.438400
   4221   4227   4228     1   109.5600471 388.275200
   4221   4227   4229     1   109.5600471 388.275200
   4222   4221   4227     1   109.8000471 387.438400
   4222   4221   4223     1   107.5800459 329.699200
   4223   4221   4227     1   109.8000471 387.438400
   4225   4224   4233     1   109.7800468 425.094400
   4225   4224   4226     1   108.4600466 328.025600
   4226   4224   4233     1   109.7800468 425.094400
   4228   4227   7866     1   109.7800468 425.094400
   4228   4227   4229     1   108.4600466 328.025600
   4229   4227   7866     1   109.7800468 425.094400
   4231   4230   7889     1   109.7800468 425.094400
   4231   4230   4232     1   108.4600466 328.025600
   4232   4230   7889     1   109.7800468 425.094400
   4234   4235   4236     1   109.8800469 414.216000
   4234   4235   4237     1   109.8800469 414.216000
   4234   4238   4239     1   109.8800469 414.216000
   4234   4238   4240     1   109.8800469 414.216000
   4234   4241   4242     1   109.8800469 414.216000
   4234   4241   4243     1   109.8800469 414.216000
   4235   4247   4248     1   109.8000471 387.438400
   4235   4247   4249     1   109.8000471 387.438400
   4236   4235   4247     1   109.5600471 388.275200
   4236   4235   4237     1   108.4600466 328.025600
   4237   4235   4247     1   109.5600471 388.275200
   4238   4250   4251     1   109.8000471 387.438400
   4238   4250   4252     1   109.8000471 387.438400
   4239   4238   4250     1   109.5600471 388.275200
   4239   4238   4240     1   108.4600466 328.025600
   4240   4238   4250     1   109.5600471 388.275200
   4241   4244   4245     1   109.8000471 387.438400
   4241   4244   4246     1   109.8000471 387.438400
   4242   4241   4244     1   109.5600471 388.275200
   4242   4241   4243     1   108.4600466 328.025600
   4243   4241   4244     1   109.5600471 388.275200
   4244   4253   4254     1   109.5600471 388.275200
   4244   4253   4255     1   109.5600471 388.275200
   4245   4244   4253     1   109.8000471 387.438400
   4245   4244   4246     1   107.5800459 329.699200
   4246   4244   4253     1   109.8000471 387.438400
   4247   4259   4260     1   109.5600471 388.275200
   4247   4259   4261     1   109.5600471 388.275200
   4248   4247   4259     1   109.8000471 387.438400
   4248   4247   4249     1   107.5800459 329.699200
   4249   4247   4259     1   109.8000471 387.438400
   4250   4256   4257     1   109.5600471 388.275200
   4250   4256   4258     1   109.5600471 388.275200
   4251   4250   4256     1   109.8000471 387.438400
   4251   4250   4252     1   107.5800459 329.699200
   4252   4250   4256     1   109.8000471 387.438400
   4254   4253   4262     1   109.7800468 425.094400
   4254   4253   4255     1   108.4600466 328.025600
   4255   4253   4262     1   109.7800468 425.094400
   4257   4256   7912     1   109.7800468 425.094400
   4257   4256   4258     1   108.4600466 328.025600
   4258   4256   7912     1   109.7800468 425.094400
   4260   4259   7935     1   109.7800468 425.094400
   4260   4259   4261     1   108.4600466 328.025600
   4261   4259   7935     1   109.7800468 425.094400
   4263   4264   4265     1   109.8800469 414.216000
   4263   4264   4266     1   109.8800469 414.216000
   4263   4267   4268     1   109.8800469 414.216000
   4263   4267   4269     1   109.8800469 414.216000
   4263   4270   4271     1   109.8800469 414.216000
   4263   4270   4272     1   109.8800469 414.216000
   4264   4276   4277     1   109.8000471 387.438400
   4264   4276   4278     1   109.8000471 387.438400
   4265   4264   4276     1   109.5600471 388.275200
   4265   4264   4266     1   108.4600466 328.025600
   4266   4264   4276     1   109.5600471 388.275200
   4267   4279   4280     1   109.8000471 387.438400
   4267   4279   4281     1   109.8000471 387.438400
   4268   4267   4279     1   109.5600471 388.275200
   4268   4267   4269     1   108.4600466 328.025600
   4269   4267   4279     1   109.5600471 388.275200
   4270   4273   4274     1   109.8000471 387.438400
   4270   4273   4275     1   109.8000471 387.438400
   4271   4270   4273     1   109.5600471 388.275200
   4271   4270   4272     1   108.4600466 328.025600
   4272   4270   4273     1   109.5600471 388.275200
   4273   4282   4283     1   109.5600471 388.275200
   4273   4282   4284     1   109.5600471 388.275200
   4274   4273   4282     1   109.8000471 387.438400
   4274   4273   4275     1   107.5800459 329.699200
   4275   4273   4282     1   109.8000471 387.438400
   4276   4288   4289     1   109.5600471 388.275200
   4276   4288   4290     1   109.5600471 388.275200
   4277   4276   4288     1   109.8000471 387.438400
   4277   4276   4278     1   107.5800459 329.699200
   4278   4276   4288     1   109.8000471 387.438400
   4279   4285   4286     1   109.5600471 388.275200
   4279   4285   4287     1   109.5600471 388.275200
   4280   4279   4285     1   109.8000471 387.438400
   4280   4279   4281     1   107.5800459 329.699200
   4281   4279   4285     1   109.8000471 387.438400
   4283   4282   4291     1   109.7800468 425.094400
   4283   4282   4284     1   108.4600466 328.025600
   4284   4282   4291     1   109.7800468 425.094400
   4286   4285   7958     1   109.7800468 425.094400
   4286   4285   4287     1   108.4600466 328.025600
   4287   4285   7958     1   109.7800468 425.094400
   4289   4288   7981     1   109.7800468 425.094400
   4289   4288   4290     1   108.4600466 328.025600
   4290   4288   7981     1   109.7800468 425.094400
   4292   4293   4294     1   109.8800469 414.216000
   4292   4293   4295     1   109.8800469 414.216000
   4292   4296   4297     1   109.8800469 414.216000
   4292   4296   4298     1   109.8800469 414.216000
   4292   4299   4300     1   109.8800469 414.216000
   4292   4299   4301     1   109.8800469 414.216000
   4293   4305   4306     1   109.8000471 387.438400
   4293   4305   4307     1   109.8000471 387.438400
   4294   4293   4305     1   109.5600471 388.275200
   4294   4293   4295     1   108.4600466 328.025600
   4295   4293   4305     1   109.5600471 388.275200
   4296   4308   4309     1   109.8000471 387.438400
   4296   4308   4310     1   109.8000471 387.438400
   4297   4296   4308     1   109.5600471 388.275200
   4297   4296   4298     1   108.4600466 328.025600
   4298   4296   4308     1   109.5600471 388.275200
   4299   4302   4303     1   109.8000471 387.438400
   4299   4302   4304     1   109.8000471 387.438400
   4300   4299   4302     1   109.5600471 388.275200
   4300   4299   4301     1   108.4600466 328.025600
   4301   4299   4302     1   109.5600471 388.275200
   4302   4311   4312     1   109.5600471 388.275200
   4302   4311   4313     1   109.5600471 388.275200
   4303   4302   4311     1   109.8000471 387.438400
   4303   4302   4304     1   107.5800459 329.699200
   4304   4302   4311     1   109.8000471 387.438400
   4305   4317   4318     1   109.5600471 388.275200
   4305   4317   4319     1   109.5600471 388.275200
   4306   4305   4317     1   109.8000471 387.438400
   4306   4305   4307     1   107.5800459 329.699200
   4307   4305   4317     1   109.8000471 387.438400
   4308   4314   4315     1   109.5600471 388.275200
   4308   4314   4316     1   109.5600471 388.275200
   4309   4308   4314     1   109.8000471 387.438400
   4309   4308   4310     1   107.5800459 329.699200
   4310   4308   4314     1   109.8000471 387.438400
   4312   4311   4320     1   109.7800468 425.094400
   4312   4311   4313     1   108.4600466 328.025600
   4313   4311   4320     1   109.7800468 425.094400
   4315   4314   8004     1   109.7800468 425.094400
   4315   4314   4316     1   108.4600466 328.025600
   4316   4314   8004     1   109.7800468 425.094400
   4318   4317   8027     1   109.7800468 425.094400
   4318   4317   4319     1   108.4600466 328.025600
   4319   4317   8027     1   109.7800468 425.094400
   4321   4322   4323     1   109.8800469 414.216000
   4321   4322   4324     1   109.8800469 414.216000
   4321   4325   4326     1   109.8800469 414.216000
   4321   4325   4327     1   109.8800469 414.216000
   4321   4328   4329     1   109.8800469 414.216000
   4321   4328   4330     1   109.8800469 414.216000
   4322   4334   4335     1   109.8000471 387.438400
   4322   4334   4336     1   109.8000471 387.438400
   4323   4322   4334     1   109.5600471 388.275200
   4323   4322   4324     1   108.4600466 328.025600
   4324   4322   4334     1   109.5600471 388.275200
   4325   4337   4338     1   109.8000471 387.438400
   4325   4337   4339     1   109.8000471 387.438400
   4326   4325   4337     1   109.5600471 388.275200
   4326   4325   4327     1   108.4600466 328.025600
   4327   4325   4337     1   109.5600471 388.275200
   4328   4331   4332     1   109.8000471 387.438400
   4328   4331   4333     1   109.8000471 387.438400
   4329   4328   4331     1   109.5600471 388.275200
   4329   4328   4330     1   108.4600466 328.025600
   4330   4328   4331     1   109.5600471 388.275200
   4331   4340   4341     1   109.5600471 388.275200
   4331   4340   4342     1   109.5600471 388.275200
   4332   4331   4340     1   109.8000471 387.438400
   4332   4331   4333     1   107.5800459 329.699200
   4333   4331   4340     1   109.8000471 387.438400
   4334   4346   4347     1   109.5600471 388.275200
   4334   4346   4348     1   109.5600471 388.275200
   4335   4334   4346     1   109.8000471 387.438400
   4335   4334   4336     1   107.5800459 329.699200
   4336   4334   4346     1   109.8000471 387.438400
   4337   4343   4344     1   109.5600471 388.275200
   4337   4343   4345     1   109.5600471 388.275200
   4338   4337   4343     1   109.8000471 387.438400
   4338   4337   4339     1   107.5800459 329.699200
   4339   4337   4343     1   109.8000471 387.438400
   4341   4340   4349     1   109.7800468 425.094400
   4341   4340   4342     1   108.4600466 328.025600
   4342   4340   4349     1   109.7800468 425.094400
   4344   4343   8050     1   109.7800468 425.094400
   4344   4343   4345     1   108.4600466 328.025600
   4345   4343   8050     1   109.7800468 425.094400
   4347   4346   8073     1   109.7800468 425.094400
   4347   4346   4348     1   108.4600466 328.025600
   4348   4346   8073     1   109.7800468 425.094400
   4350   4351   4352     1   109.8800469 414.216000
   4350   4351   4353     1   109.8800469 414.216000
   4350   4354   4355     1   109.8800469 414.216000
   4350   4354   4356     1   109.8800469 414.216000
   4350   4357   4358     1   109.8800469 414.216000
   4350   4357   4359     1   109.8800469 414.216000
   4351   4363   4364     1   109.8000471 387.438400
   4351   4363   4365     1   109.8000471 387.438400
   4352   4351   4363     1   109.5600471 388.275200
   4352   4351   4353     1   108.4600466 328.025600
   4353   4351   4363     1   109.5600471 388.275200
   4354   4366   4367     1   109.8000471 387.438400
   4354   4366   4368     1   109.8000471 387.438400
   4355   4354   4366     1   109.5600471 388.275200
   4355   4354   4356     1   108.4600466 328.025600
   4356   4354   4366     1   109.5600471 388.275200
   4357   4360   4361     1   109.8000471 387.438400
   4357   4360   4362     1   109.8000471 387.438400
   4358   4357   4360     1   109.5600471 388.275200
   4358   4357   4359     1   108.4600466 328.025600
   4359   4357   4360     1   109.5600471 388.275200
   4360   4369   4370     1   109.5600471 388.275200
   4360   4369   4371     1   109.5600471 388.275200
   4361   4360   4369     1   109.8000471 387.438400
   4361   4360   4362     1   107.5800459 329.699200
   4362   4360   4369     1   109.8000471 387.438400
   4363   4375   4376     1   109.5600471 388.275200
   4363   4375   4377     1   109.5600471 388.275200
   4364   4363   4375     1   109.8000471 387.438400
   4364   4363   4365     1   107.5800459 329.699200
   4365   4363   4375     1   109.8000471 387.438400
   4366   4372   4373     1   109.5600471 388.275200
   4366   4372   4374     1   109.5600471 388.275200
   4367   4366   4372     1   109.8000471 387.438400
   4367   4366   4368     1   107.5800459 329.699200
   4368   4366   4372     1   109.8000471 387.438400
   4370   4369   4378     1   109.7800468 425.094400
   4370   4369   4371     1   108.4600466 328.025600
   4371   4369   4378     1   109.7800468 425.094400
   4373   4372   8096     1   109.7800468 425.094400
   4373   4372   4374     1   108.4600466 328.025600
   4374   4372   8096     1   109.7800468 425.094400
   4376   4375   8119     1   109.7800468 425.094400
   4376   4375   4377     1   108.4600466 328.025600
   4377   4375   8119     1   109.7800468 425.094400
   4379   4380   4381     1   109.8800469 414.216000
   4379   4380   4382     1   109.8800469 414.216000
   4379   4383   4384     1   109.8800469 414.216000
   4379   4383   4385     1   109.8800469 414.216000
   4379   4386   4387     1   109.8800469 414.216000
   4379   4386   4388     1   109.8800469 414.216000
   4380   4392   4393     1   109.8000471 387.438400
   4380   4392   4394     1   109.8000471 387.438400
   4381   4380   4392     1   109.5600471 388.275200
   4381   4380   4382     1   108.4600466 328.025600
   4382   4380   4392     1   109.5600471 388.275200
   4383   4395   4396     1   109.8000471 387.438400
   4383   4395   4397     1   109.8000471 387.438400
   4384   4383   4395     1   109.5600471 388.275200
   4384   4383   4385     1   108.4600466 328.025600
   4385   4383   4395     1   109.5600471 388.275200
   4386   4389   4390     1   109.8000471 387.438400
   4386   4389   4391     1   109.8000471 387.438400
   4387   4386   4389     1   109.5600471 388.275200
   4387   4386   4388     1   108.4600466 328.025600
   4388   4386   4389     1   109.5600471 388.275200
   4389   4398   4399     1   109.5600471 388.275200
   4389   4398   4400     1   109.5600471 388.275200
   4390   4389   4398     1   109.8000471 387.438400
   4390   4389   4391     1   107.5800459 329.699200
   4391   4389   4398     1   109.8000471 387.438400
   4392   4404   4405     1   109.5600471 388.275200
   4392   4404   4406     1   109.5600471 388.275200
   4393   4392   4404     1   109.8000471 387.438400
   4393   4392   4394     1   107.5800459 329.699200
   4394   4392   4404     1   109.8000471 387.438400
   4395   4401   4402     1   109.5600471 388.275200
   4395   4401   4403     1   109.5600471 388.275200
   4396   4395   4401     1   109.8000471 387.438400
   4396   4395   4397     1   107.5800459 329.699200
   4397   4395   4401     1   109.8000471 387.438400
   4399   4398   4407     1   109.7800468 425.094400
   4399   4398   4400     1   108.4600466 328.025600
   4400   4398   4407     1   109.7800468 425.094400
   4402   4401   8142     1   109.7800468 425.094400
   4402   4401   4403     1   108.4600466 328.025600
   4403   4401   8142     1   109.7800468 425.094400
   4405   4404   8165     1   109.7800468 425.094400
   4405   4404   4406     1   108.4600466 328.025600
   4406   4404   8165     1   109.7800468 425.094400
   4408   4409   4410     1   109.8800469 414.216000
   4408   4409   4411     1   109.8800469 414.216000
   4408   4412   4413     1   109.8800469 414.216000
   4408   4412   4414     1   109.8800469 414.216000
   4408   4415   4416     1   109.8800469 414.216000
   4408   4415   4417     1   109.8800469 414.216000
   4409   4421   4422     1   109.8000471 387.438400
   4409   4421   4423     1   109.8000471 387.438400
   4410   4409   4421     1   109.5600471 388.275200
   4410   4409   4411     1   108.4600466 328.025600
   4411   4409   4421     1   109.5600471 388.275200
   4412   4424   4425     1   109.8000471 387.438400
   4412   4424   4426     1   109.8000471 387.438400
   4413   4412   4424     1   109.5600471 388.275200
   4413   4412   4414     1   108.4600466 328.025600
   4414   4412   4424     1   109.5600471 388.275200
   4415   4418   4419     1   109.8000471 387.438400
   4415   4418   4420     1   109.8000471 387.438400
   4416   4415   4418     1   109.5600471 388.275200
   4416   4415   4417     1   108.4600466 328.025600
   4417   4415   4418     1   109.5600471 388.275200
   4418   4427   4428     1   109.5600471 388.275200
   4418   4427   4429     1   109.5600471 388.275200
   4419   4418   4427     1   109.8000471 387.438400
   4419   4418   4420     1   107.5800459 329.699200
   4420   4418   4427     1   109.8000471 387.438400
   4421   4433   4434     1   109.5600471 388.275200
   4421   4433   4435     1   109.5600471 388.275200
   4422   4421   4433     1   109.8000471 387.438400
   4422   4421   4423     1   107.5800459 329.699200
   4423   4421   4433     1   109.8000471 387.438400
   4424   4430   4431     1   109.5600471 388.275200
   4424   4430   4432     1   109.5600471 388.275200
   4425   4424   4430     1   109.8000471 387.438400
   4425   4424   4426     1   107.5800459 329.699200
   4426   4424   4430     1   109.8000471 387.438400
   4428   4427   4436     1   109.7800468 425.094400
   4428   4427   4429     1   108.4600466 328.025600
   4429   4427   4436     1   109.7800468 425.094400
   4431   4430   8188     1   109.7800468 425.094400
   4431   4430   4432     1   108.4600466 328.025600
   4432   4430   8188     1   109.7800468 425.094400
   4434   4433   8211     1   109.7800468 425.094400
   4434   4433   4435     1   108.4600466 328.025600
   4435   4433   8211     1   109.7800468 425.094400
   4437   4438   4439     1   109.8800469 414.216000
   4437   4438   4440     1   109.8800469 414.216000
   4437   4441   4442     1   109.8800469 414.216000
   4437   4441   4443     1   109.8800469 414.216000
   4437   4444   4445     1   109.8800469 414.216000
   4437   4444   4446     1   109.8800469 414.216000
   4438   4450   4451     1   109.8000471 387.438400
   4438   4450   4452     1   109.8000471 387.438400
   4439   4438   4450     1   109.5600471 388.275200
   4439   4438   4440     1   108.4600466 328.025600
   4440   4438   4450     1   109.5600471 388.275200
   4441   4453   4454     1   109.8000471 387.438400
   4441   4453   4455     1   109.8000471 387.438400
   4442   4441   4453     1   109.5600471 388.275200
   4442   4441   4443     1   108.4600466 328.025600
   4443   4441   4453     1   109.5600471 388.275200
   4444   4447   4448     1   109.8000471 387.438400
   4444   4447   4449     1   109.8000471 387.438400
   4445   4444   4447     1   109.5600471 388.275200
   4445   4444   4446     1   108.4600466 328.025600
   4446   4444   4447     1   109.5600471 388.275200
   4447   4456   4457     1   109.5600471 388.275200
   4447   4456   4458     1   109.5600471 388.275200
   4448   4447   4456     1   109.8000471 387.438400
   4448   4447   4449     1   107.5800459 329.699200
   4449   4447   4456     1   109.8000471 387.438400
   4450   4462   4463     1   109.5600471 388.275200
   4450   4462   4464     1   109.5600471 388.275200
   4451   4450   4462     1   109.8000471 387.438400
   4451   4450   4452     1   107.5800459 329.699200
   4452   4450   4462     1   109.8000471 387.438400
   4453   4459   4460     1   109.5600471 388.275200
   4453   4459   4461     1   109.5600471 388.275200
   4454   4453   4459     1   109.8000471 387.438400
   4454   4453   4455     1   107.5800459 329.699200
   4455   4453   4459     1   109.8000471 387.438400
   4457   4456   4465     1   109.7800468 425.094400
   4457   4456   4458     1   108.4600466 328.025600
   4458   4456   4465     1   109.7800468 425.094400
   4460   4459   8234     1   109.7800468 425.094400
   4460   4459   4461     1   108.4600466 328.025600
   4461   4459   8234     1   109.7800468 425.094400
   4463   4462   8257     1   109.7800468 425.094400
   4463   4462   4464     1   108.4600466 328.025600
   4464   4462   8257     1   109.7800468 425.094400
   4466   4467   4468     1   109.8800469 414.216000
   4466   4467   4469     1   109.8800469 414.216000
   4466   4470   4471     1   109.8800469 414.216000
   4466   4470   4472     1   109.8800469 414.216000
   4466   4473   4474     1   109.8800469 414.216000
   4466   4473   4475     1   109.8800469 414.216000
   4467   4479   4480     1   109.8000471 387.438400
   4467   4479   4481     1   109.8000471 387.438400
   4468   4467   4479     1   109.5600471 388.275200
   4468   4467   4469     1   108.4600466 328.025600
   4469   4467   4479     1   109.5600471 388.275200
   4470   4482   4483     1   109.8000471 387.438400
   4470   4482   4484     1   109.8000471 387.438400
   4471   4470   4482     1   109.5600471 388.275200
   4471   4470   4472     1   108.4600466 328.025600
   4472   4470   4482     1   109.5600471 388.275200
   4473   4476   4477     1   109.8000471 387.438400
   4473   4476   4478     1   109.8000471 387.438400
   4474   4473   4476     1   109.5600471 388.275200
   4474   4473   4475     1   108.4600466 328.025600
   4475   4473   4476     1   109.5600471 388.275200
   4476   4485   4486     1   109.5600471 388.275200
   4476   4485   4487     1   109.5600471 388.275200
   4477   4476   4485     1   109.8000471 387.438400
   4477   4476   4478     1   107.5800459 329.699200
   4478   4476   4485     1   109.8000471 387.438400
   4479   4491   4492     1   109.5600471 388.275200
   4479   4491   4493     1   109.5600471 388.275200
   4480   4479   4491     1   109.8000471 387.438400
   4480   4479   4481     1   107.5800459 329.699200
   4481   4479   4491     1   109.8000471 387.438400
   4482   4488   4489     1   109.5600471 388.275200
   4482   4488   4490     1   109.5600471 388.275200
   4483   4482   4488     1   109.8000471 387.438400
   4483   4482   4484     1   107.5800459 329.699200
   4484   4482   4488     1   109.8000471 387.438400
   4486   4485   4494     1   109.7800468 425.094400
   4486   4485   4487     1   108.4600466 328.025600
   4487   4485   4494     1   109.7800468 425.094400
   4489   4488   8280     1   109.7800468 425.094400
   4489   4488   4490     1   108.4600466 328.025600
   4490   4488   8280     1   109.7800468 425.094400
   4492   4491   8303     1   109.7800468 425.094400
   4492   4491   4493     1   108.4600466 328.025600
   4493   4491   8303     1   109.7800468 425.094400
   4495   4496   4497     1   109.8800469 414.216000
   4495   4496   4498     1   109.8800469 414.216000
   4495   4499   4500     1   109.8800469 414.216000
   4495   4499   4501     1   109.8800469 414.216000
   4495   4502   4503     1   109.8800469 414.216000
   4495   4502   4504     1   109.8800469 414.216000
   4496   4508   4509     1   109.8000471 387.438400
   4496   4508   4510     1   109.8000471 387.438400
   4497   4496   4508     1   109.5600471 388.275200
   4497   4496   4498     1   108.4600466 328.025600
   4498   4496   4508     1   109.5600471 388.275200
   4499   4511   4512     1   109.8000471 387.438400
   4499   4511   4513     1   109.8000471 387.438400
   4500   4499   4511     1   109.5600471 388.275200
   4500   4499   4501     1   108.4600466 328.025600
   4501   4499   4511     1   109.5600471 388.275200
   4502   4505   4506     1   109.8000471 387.438400
   4502   4505   4507     1   109.8000471 387.438400
   4503   4502   4505     1   109.5600471 388.275200
   4503   4502   4504     1   108.4600466 328.025600
   4504   4502   4505     1   109.5600471 388.275200
   4505   4514   4515     1   109.5600471 388.275200
   4505   4514   4516     1   109.5600471 388.275200
   4506   4505   4514     1   109.8000471 387.438400
   4506   4505   4507     1   107.5800459 329.699200
   4507   4505   4514     1   109.8000471 387.438400
   4508   4520   4521     1   109.5600471 388.275200
   4508   4520   4522     1   109.5600471 388.275200
   4509   4508   4520     1   109.8000471 387.438400
   4509   4508   4510     1   107.5800459 329.699200
   4510   4508   4520     1   109.8000471 387.438400
   4511   4517   4518     1   109.5600471 388.275200
   4511   4517   4519     1   109.5600471 388.275200
   4512   4511   4517     1   109.8000471 387.438400
   4512   4511   4513     1   107.5800459 329.699200
   4513   4511   4517     1   109.8000471 387.438400
   4515   4514   4523     1   109.7800468 425.094400
   4515   4514   4516     1   108.4600466 328.025600
   4516   4514   4523     1   109.7800468 425.094400
   4518   4517   8326     1   109.7800468 425.094400
   4518   4517   4519     1   108.4600466 328.025600
   4519   4517   8326     1   109.7800468 425.094400
   4521   4520   8349     1   109.7800468 425.094400
   4521   4520   4522     1   108.4600466 328.025600
   4522   4520   8349     1   109.7800468 425.094400
   4524   4525   4526     1   109.8800469 414.216000
   4524   4525   4527     1   109.8800469 414.216000
   4524   4528   4529     1   109.8800469 414.216000
   4524   4528   4530     1   109.8800469 414.216000
   4524   4531   4532     1   109.8800469 414.216000
   4524   4531   4533     1   109.8800469 414.216000
   4525   4537   4538     1   109.8000471 387.438400
   4525   4537   4539     1   109.8000471 387.438400
   4526   4525   4537     1   109.5600471 388.275200
   4526   4525   4527     1   108.4600466 328.025600
   4527   4525   4537     1   109.5600471 388.275200
   4528   4540   4541     1   109.8000471 387.438400
   4528   4540   4542     1   109.8000471 387.438400
   4529   4528   4540     1   109.5600471 388.275200
   4529   4528   4530     1   108.4600466 328.025600
   4530   4528   4540     1   109.5600471 388.275200
   4531   4534   4535     1   109.8000471 387.438400
   4531   4534   4536     1   109.8000471 387.438400
   4532   4531   4534     1   109.5600471 388.275200
   4532   4531   4533     1   108.4600466 328.025600
   4533   4531   4534     1   109.5600471 388.275200
   4534   4543   4544     1   109.5600471 388.275200
   4534   4543   4545     1   109.5600471 388.275200
   4535   4534   4543     1   109.8000471 387.438400
   4535   4534   4536     1   107.5800459 329.699200
   4536   4534   4543     1   109.8000471 387.438400
   4537   4549   4550     1   109.5600471 388.275200
   4537   4549   4551     1   109.5600471 388.275200
   4538   4537   4549     1   109.8000471 387.438400
   4538   4537   4539     1   107.5800459 329.699200
   4539   4537   4549     1   109.8000471 387.438400
   4540   4546   4547     1   109.5600471 388.275200
   4540   4546   4548     1   109.5600471 388.275200
   4541   4540   4546     1   109.8000471 387.438400
   4541   4540   4542     1   107.5800459 329.699200
   4542   4540   4546     1   109.8000471 387.438400
   4544   4543   4552     1   109.7800468 425.094400
   4544   4543   4545     1   108.4600466 328.025600
   4545   4543   4552     1   109.7800468 425.094400
   4547   4546   8372     1   109.7800468 425.094400
   4547   4546   4548     1   108.4600466 328.025600
   4548   4546   8372     1   109.7800468 425.094400
   4550   4549   8395     1   109.7800468 425.094400
   4550   4549   4551     1   108.4600466 328.025600
   4551   4549   8395     1   109.7800468 425.094400
   4553   4554   4555     1   109.8800469 414.216000
   4553   4554   4556     1   109.8800469 414.216000
   4553   4557   4558     1   109.8800469 414.216000
   4553   4557   4559     1   109.8800469 414.216000
   4553   4560   4561     1   109.8800469 414.216000
   4553   4560   4562     1   109.8800469 414.216000
   4554   4566   4567     1   109.8000471 387.438400
   4554   4566   4568     1   109.8000471 387.438400
   4555   4554   4566     1   109.5600471 388.275200
   4555   4554   4556     1   108.4600466 328.025600
   4556   4554   4566     1   109.5600471 388.275200
   4557   4569   4570     1   109.8000471 387.438400
   4557   4569   4571     1   109.8000471 387.438400
   4558   4557   4569     1   109.5600471 388.275200
   4558   4557   4559     1   108.4600466 328.025600
   4559   4557   4569     1   109.5600471 388.275200
   4560   4563   4564     1   109.8000471 387.438400
   4560   4563   4565     1   109.8000471 387.438400
   4561   4560   4563     1   109.5600471 388.275200
   4561   4560   4562     1   108.4600466 328.025600
   4562   4560   4563     1   109.5600471 388.275200
   4563   4572   4573     1   109.5600471 388.275200
   4563   4572   4574     1   109.5600471 388.275200
   4564   4563   4572     1   109.8000471 387.438400
   4564   4563   4565     1   107.5800459 329.699200
   4565   4563   4572     1   109.8000471 387.438400
   4566   4578   4579     1   109.5600471 388.275200
   4566   4578   4580     1   109.5600471 388.275200
   4567   4566   4578     1   109.8000471 387.438400
   4567   4566   4568     1   107.5800459 329.699200
   4568   4566   4578     1   109.8000471 387.438400
   4569   4575   4576     1   109.5600471 388.275200
   4569   4575   4577     1   109.5600471 388.275200
   4570   4569   4575     1   109.8000471 387.438400
   4570   4569   4571     1   107.5800459 329.699200
   4571   4569   4575     1   109.8000471 387.438400
   4573   4572   4581     1   109.7800468 425.094400
   4573   4572   4574     1   108.4600466 328.025600
   4574   4572   4581     1   109.7800468 425.094400
   4576   4575   8418     1   109.7800468 425.094400
   4576   4575   4577     1   108.4600466 328.025600
   4577   4575   8418     1   109.7800468 425.094400
   4579   4578   8441     1   109.7800468 425.094400
   4579   4578   4580     1   108.4600466 328.025600
   4580   4578   8441     1   109.7800468 425.094400
   4582   4583   4584     1   109.8800469 414.216000
   4582   4583   4585     1   109.8800469 414.216000
   4582   4586   4587     1   109.8800469 414.216000
   4582   4586   4588     1   109.8800469 414.216000
   4582   4589   4590     1   109.8800469 414.216000
   4582   4589   4591     1   109.8800469 414.216000
   4583   4595   4596     1   109.8000471 387.438400
   4583   4595   4597     1   109.8000471 387.438400
   4584   4583   4595     1   109.5600471 388.275200
   4584   4583   4585     1   108.4600466 328.025600
   4585   4583   4595     1   109.5600471 388.275200
   4586   4598   4599     1   109.8000471 387.438400
   4586   4598   4600     1   109.8000471 387.438400
   4587   4586   4598     1   109.5600471 388.275200
   4587   4586   4588     1   108.4600466 328.025600
   4588   4586   4598     1   109.5600471 388.275200
   4589   4592   4593     1   109.8000471 387.438400
   4589   4592   4594     1   109.8000471 387.438400
   4590   4589   4592     1   109.5600471 388.275200
   4590   4589   4591     1   108.4600466 328.025600
   4591   4589   4592     1   109.5600471 388.275200
   4592   4601   4602     1   109.5600471 388.275200
   4592   4601   4603     1   109.5600471 388.275200
   4593   4592   4601     1   109.8000471 387.438400
   4593   4592   4594     1   107.5800459 329.699200
   4594   4592   4601     1   109.8000471 387.438400
   4595   4607   4608     1   109.5600471 388.275200
   4595   4607   4609     1   109.5600471 388.275200
   4596   4595   4607     1   109.8000471 387.438400
   4596   4595   4597     1   107.5800459 329.699200
   4597   4595   4607     1   109.8000471 387.438400
   4598   4604   4605     1   109.5600471 388.275200
   4598   4604   4606     1   109.5600471 388.275200
   4599   4598   4604     1   109.8000471 387.438400
   4599   4598   4600     1   107.5800459 329.699200
   4600   4598   4604     1   109.8000471 387.438400
   4602   4601   4610     1   109.7800468 425.094400
   4602   4601   4603     1   108.4600466 328.025600
   4603   4601   4610     1   109.7800468 425.094400
   4605   4604   8464     1   109.7800468 425.094400
   4605   4604   4606     1   108.4600466 328.025600
   4606   4604   8464     1   109.7800468 425.094400
   4608   4607   8487     1   109.7800468 425.094400
   4608   4607   4609     1   108.4600466 328.025600
   4609   4607   8487     1   109.7800468 425.094400
   4611   4612   4613     1   109.8800469 414.216000
   4611   4612   4614     1   109.8800469 414.216000
   4611   4615   4616     1   109.8800469 414.216000
   4611   4615   4617     1   109.8800469 414.216000
   4611   4618   4619     1   109.8800469 414.216000
   4611   4618   4620     1   109.8800469 414.216000
   4612   4624   4625     1   109.8000471 387.438400
   4612   4624   4626     1   109.8000471 387.438400
   4613   4612   4624     1   109.5600471 388.275200
   4613   4612   4614     1   108.4600466 328.025600
   4614   4612   4624     1   109.5600471 388.275200
   4615   4627   4628     1   109.8000471 387.438400
   4615   4627   4629     1   109.8000471 387.438400
   4616   4615   4627     1   109.5600471 388.275200
   4616   4615   4617     1   108.4600466 328.025600
   4617   4615   4627     1   109.5600471 388.275200
   4618   4621   4622     1   109.8000471 387.438400
   4618   4621   4623     1   109.8000471 387.438400
   4619   4618   4621     1   109.5600471 388.275200
   4619   4618   4620     1   108.4600466 328.025600
   4620   4618   4621     1   109.5600471 388.275200
   4621   4630   4631     1   109.5600471 388.275200
   4621   4630   4632     1   109.5600471 388.275200
   4622   4621   4630     1   109.8000471 387.438400
   4622   4621   4623     1   107.5800459 329.699200
   4623   4621   4630     1   109.8000471 387.438400
   4624   4636   4637     1   109.5600471 388.275200
   4624   4636   4638     1   109.5600471 388.275200
   4625   4624   4636     1   109.8000471 387.438400
   4625   4624   4626     1   107.5800459 329.699200
   4626   4624   4636     1   109.8000471 387.438400
   4627   4633   4634     1   109.5600471 388.275200
   4627   4633   4635     1   109.5600471 388.275200
   4628   4627   4633     1   109.8000471 387.438400
   4628   4627   4629     1   107.5800459 329.699200
   4629   4627   4633     1   109.8000471 387.438400
   4631   4630   4639     1   109.7800468 425.094400
   4631   4630   4632     1   108.4600466 328.025600
   4632   4630   4639     1   109.7800468 425.094400
   4634   4633   8510     1   109.7800468 425.094400
   4634   4633   4635     1   108.4600466 328.025600
   4635   4633   8510     1   109.7800468 425.094400
   4637   4636   8533     1   109.7800468 425.094400
   4637   4636   4638     1   108.4600466 328.025600
   4638   4636   8533     1   109.7800468 425.094400
   4640   4641   4642     1   109.8800469 414.216000
   4640   4641   4643     1   109.8800469 414.216000
   4640   4644   4645     1   109.8800469 414.216000
   4640   4644   4646     1   109.8800469 414.216000
   4640   4647   4648     1   109.8800469 414.216000
   4640   4647   4649     1   109.8800469 414.216000
   4641   4653   4654     1   109.8000471 387.438400
   4641   4653   4655     1   109.8000471 387.438400
   4642   4641   4653     1   109.5600471 388.275200
   4642   4641   4643     1   108.4600466 328.025600
   4643   4641   4653     1   109.5600471 388.275200
   4644   4656   4657     1   109.8000471 387.438400
   4644   4656   4658     1   109.8000471 387.438400
   4645   4644   4656     1   109.5600471 388.275200
   4645   4644   4646     1   108.4600466 328.025600
   4646   4644   4656     1   109.5600471 388.275200
   4647   4650   4651     1   109.8000471 387.438400
   4647   4650   4652     1   109.8000471 387.438400
   4648   4647   4650     1   109.5600471 388.275200
   4648   4647   4649     1   108.4600466 328.025600
   4649   4647   4650     1   109.5600471 388.275200
   4650   4659   4660     1   109.5600471 388.275200
   4650   4659   4661     1   109.5600471 388.275200
   4651   4650   4659     1   109.8000471 387.438400
   4651   4650   4652     1   107.5800459 329.699200
   4652   4650   4659     1   109.8000471 387.438400
   4653   4665   4666     1   109.5600471 388.275200
   4653   4665   4667     1   109.5600471 388.275200
   4654   4653   4665     1   109.8000471 387.438400
   4654   4653   4655     1   107.5800459 329.699200
   4655   4653   4665     1   109.8000471 387.438400
   4656   4662   4663     1   109.5600471 388.275200
   4656   4662   4664     1   109.5600471 388.275200
   4657   4656   4662     1   109.8000471 387.438400
   4657   4656   4658     1   107.5800459 329.699200
   4658   4656   4662     1   109.8000471 387.438400
   4660   4659   4668     1   109.7800468 425.094400
   4660   4659   4661     1   108.4600466 328.025600
   4661   4659   4668     1   109.7800468 425.094400
   4663   4662   8556     1   109.7800468 425.094400
   4663   4662   4664     1   108.4600466 328.025600
   4664   4662   8556     1   109.7800468 425.094400
   4666   4665   8579     1   109.7800468 425.094400
   4666   4665   4667     1   108.4600466 328.025600
   4667   4665   8579     1   109.7800468 425.094400
   4669   4670   4671     1   109.8800469 414.216000
   4669   4670   4672     1   109.8800469 414.216000
   4669   4673   4674     1   109.8800469 414.216000
   4669   4673   4675     1   109.8800469 414.216000
   4669   4676   4677     1   109.8800469 414.216000
   4669   4676   4678     1   109.8800469 414.216000
   4670   4682   4683     1   109.8000471 387.438400
   4670   4682   4684     1   109.8000471 387.438400
   4671   4670   4682     1   109.5600471 388.275200
   4671   4670   4672     1   108.4600466 328.025600
   4672   4670   4682     1   109.5600471 388.275200
   4673   4685   4686     1   109.8000471 387.438400
   4673   4685   4687     1   109.8000471 387.438400
   4674   4673   4685     1   109.5600471 388.275200
   4674   4673   4675     1   108.4600466 328.025600
   4675   4673   4685     1   109.5600471 388.275200
   4676   4679   4680     1   109.8000471 387.438400
   4676   4679   4681     1   109.8000471 387.438400
   4677   4676   4679     1   109.5600471 388.275200
   4677   4676   4678     1   108.4600466 328.025600
   4678   4676   4679     1   109.5600471 388.275200
   4679   4688   4689     1   109.5600471 388.275200
   4679   4688   4690     1   109.5600471 388.275200
   4680   4679   4688     1   109.8000471 387.438400
   4680   4679   4681     1   107.5800459 329.699200
   4681   4679   4688     1   109.8000471 387.438400
   4682   4694   4695     1   109.5600471 388.275200
   4682   4694   4696     1   109.5600471 388.275200
   4683   4682   4694     1   109.8000471 387.438400
   4683   4682   4684     1   107.5800459 329.699200
   4684   4682   4694     1   109.8000471 387.438400
   4685   4691   4692     1   109.5600471 388.275200
   4685   4691   4693     1   109.5600471 388.275200
   4686   4685   4691     1   109.8000471 387.438400
   4686   4685   4687     1   107.5800459 329.699200
   4687   4685   4691     1   109.8000471 387.438400
   4689   4688   4697     1   109.7800468 425.094400
   4689   4688   4690     1   108.4600466 328.025600
   4690   4688   4697     1   109.7800468 425.094400
   4692   4691   8602     1   109.7800468 425.094400
   4692   4691   4693     1   108.4600466 328.025600
   4693   4691   8602     1   109.7800468 425.094400
   4695   4694   8625     1   109.7800468 425.094400
   4695   4694   4696     1   108.4600466 328.025600
   4696   4694   8625     1   109.7800468 425.094400
   4698   4699   4700     1   109.8800469 414.216000
   4698   4699   4701     1   109.8800469 414.216000
   4698   4702   4703     1   109.8800469 414.216000
   4698   4702   4704     1   109.8800469 414.216000
   4698   4705   4706     1   109.8800469 414.216000
   4698   4705   4707     1   109.8800469 414.216000
   4699   4711   4712     1   109.8000471 387.438400
   4699   4711   4713     1   109.8000471 387.438400
   4700   4699   4711     1   109.5600471 388.275200
   4700   4699   4701     1   108.4600466 328.025600
   4701   4699   4711     1   109.5600471 388.275200
   4702   4714   4715     1   109.8000471 387.438400
   4702   4714   4716     1   109.8000471 387.438400
   4703   4702   4714     1   109.5600471 388.275200
   4703   4702   4704     1   108.4600466 328.025600
   4704   4702   4714     1   109.5600471 388.275200
   4705   4708   4709     1   109.8000471 387.438400
   4705   4708   4710     1   109.8000471 387.438400
   4706   4705   4708     1   109.5600471 388.275200
   4706   4705   4707     1   108.4600466 328.025600
   4707   4705   4708     1   109.5600471 388.275200
   4708   4717   4718     1   109.5600471 388.275200
   4708   4717   4719     1   109.5600471 388.275200
   4709   4708   4717     1   109.8000471 387.438400
   4709   4708   4710     1   107.5800459 329.699200
   4710   4708   4717     1   109.8000471 387.438400
   4711   4723   4724     1   109.5600471 388.275200
   4711   4723   4725     1   109.5600471 388.275200
   4712   4711   4723     1   109.8000471 387.438400
   4712   4711   4713     1   107.5800459 329.699200
   4713   4711   4723     1   109.8000471 387.438400
   4714   4720   4721     1   109.5600471 388.275200
   4714   4720   4722     1   109.5600471 388.275200
   4715   4714   4720     1   109.8000471 387.438400
   4715   4714   4716     1   107.5800459 329.699200
   4716   4714   4720     1   109.8000471 387.438400
   4718   4717   4726     1   109.7800468 425.094400
   4718   4717   4719     1   108.4600466 328.025600
   4719   4717   4726     1   109.7800468 425.094400
   4721   4720   8648     1   109.7800468 425.094400
   4721   4720   4722     1   108.4600466 328.025600
   4722   4720   8648     1   109.7800468 425.094400
   4724   4723   8671     1   109.7800468 425.094400
   4724   4723   4725     1   108.4600466 328.025600
   4725   4723   8671     1   109.7800468 425.094400
   4727   4728   4729     1   109.8800469 414.216000
   4727   4728   4730     1   109.8800469 414.216000
   4727   4731   4732     1   109.8800469 414.216000
   4727   4731   4733     1   109.8800469 414.216000
   4727   4734   4735     1   109.8800469 414.216000
   4727   4734   4736     1   109.8800469 414.216000
   4728   4740   4741     1   109.8000471 387.438400
   4728   4740   4742     1   109.8000471 387.438400
   4729   4728   4740     1   109.5600471 388.275200
   4729   4728   4730     1   108.4600466 328.025600
   4730   4728   4740     1   109.5600471 388.275200
   4731   4743   4744     1   109.8000471 387.438400
   4731   4743   4745     1   109.8000471 387.438400
   4732   4731   4743     1   109.5600471 388.275200
   4732   4731   4733     1   108.4600466 328.025600
   4733   4731   4743     1   109.5600471 388.275200
   4734   4737   4738     1   109.8000471 387.438400
   4734   4737   4739     1   109.8000471 387.438400
   4735   4734   4737     1   109.5600471 388.275200
   4735   4734   4736     1   108.4600466 328.025600
   4736   4734   4737     1   109.5600471 388.275200
   4737   4746   4747     1   109.5600471 388.275200
   4737   4746   4748     1   109.5600471 388.275200
   4738   4737   4746     1   109.8000471 387.438400
   4738   4737   4739     1   107.5800459 329.699200
   4739   4737   4746     1   109.8000471 387.438400
   4740   4752   4753     1   109.5600471 388.275200
   4740   4752   4754     1   109.5600471 388.275200
   4741   4740   4752     1   109.8000471 387.438400
   4741   4740   4742     1   107.5800459 329.699200
   4742   4740   4752     1   109.8000471 387.438400
   4743   4749   4750     1   109.5600471 388.275200
   4743   4749   4751     1   109.5600471 388.275200
   4744   4743   4749     1   109.8000471 387.438400
   4744   4743   4745     1   107.5800459 329.699200
   4745   4743   4749     1   109.8000471 387.438400
   4747   4746   4755     1   109.7800468 425.094400
   4747   4746   4748     1   108.4600466 328.025600
   4748   4746   4755     1   109.7800468 425.094400
   4750   4749   8694     1   109.7800468 425.094400
   4750   4749   4751     1   108.4600466 328.025600
   4751   4749   8694     1   109.7800468 425.094400
   4753   4752   8717     1   109.7800468 425.094400
   4753   4752   4754     1   108.4600466 328.025600
   4754   4752   8717     1   109.7800468 425.094400
   4756   4757   4758     1   109.8800469 414.216000
   4756   4757   4759     1   109.8800469 414.216000
   4756   4760   4761     1   109.8800469 414.216000
   4756   4760   4762     1   109.8800469 414.216000
   4756   4763   4764     1   109.8800469 414.216000
   4756   4763   4765     1   109.8800469 414.216000
   4757   4769   4770     1   109.8000471 387.438400
   4757   4769   4771     1   109.8000471 387.438400
   4758   4757   4769     1   109.5600471 388.275200
   4758   4757   4759     1   108.4600466 328.025600
   4759   4757   4769     1   109.5600471 388.275200
   4760   4772   4773     1   109.8000471 387.438400
   4760   4772   4774     1   109.8000471 387.438400
   4761   4760   4772     1   109.5600471 388.275200
   4761   4760   4762     1   108.4600466 328.025600
   4762   4760   4772     1   109.5600471 388.275200
   4763   4766   4767     1   109.8000471 387.438400
   4763   4766   4768     1   109.8000471 387.438400
   4764   4763   4766     1   109.5600471 388.275200
   4764   4763   4765     1   108.4600466 328.025600
   4765   4763   4766     1   109.5600471 388.275200
   4766   4775   4776     1   109.5600471 388.275200
   4766   4775   4777     1   109.5600471 388.275200
   4767   4766   4775     1   109.8000471 387.438400
   4767   4766   4768     1   107.5800459 329.699200
   4768   4766   4775     1   109.8000471 387.438400
   4769   4781   4782     1   109.5600471 388.275200
   4769   4781   4783     1   109.5600471 388.275200
   4770   4769   4781     1   109.8000471 387.438400
   4770   4769   4771     1   107.5800459 329.699200
   4771   4769   4781     1   109.8000471 387.438400
   4772   4778   4779     1   109.5600471 388.275200
   4772   4778   4780     1   109.5600471 388.275200
   4773   4772   4778     1   109.8000471 387.438400
   4773   4772   4774     1   107.5800459 329.699200
   4774   4772   4778     1   109.8000471 387.438400
   4776   4775   4784     1   109.7800468 425.094400
   4776   4775   4777     1   108.4600466 328.025600
   4777   4775   4784     1   109.7800468 425.094400
   4779   4778   8740     1   109.7800468 425.094400
   4779   4778   4780     1   108.4600466 328.025600
   4780   4778   8740     1   109.7800468 425.094400
   4782   4781   8763     1   109.7800468 425.094400
   4782   4781   4783     1   108.4600466 328.025600
   4783   4781   8763     1   109.7800468 425.094400
   4785   4786   4787     1   109.8800469 414.216000
   4785   4786   4788     1   109.8800469 414.216000
   4785   4789   4790     1   109.8800469 414.216000
   4785   4789   4791     1   109.8800469 414.216000
   4785   4792   4793     1   109.8800469 414.216000
   4785   4792   4794     1   109.8800469 414.216000
   4786   4798   4799     1   109.8000471 387.438400
   4786   4798   4800     1   109.8000471 387.438400
   4787   4786   4798     1   109.5600471 388.275200
   4787   4786   4788     1   108.4600466 328.025600
   4788   4786   4798     1   109.5600471 388.275200
   4789   4801   4802     1   109.8000471 387.438400
   4789   4801   4803     1   109.8000471 387.438400
   4790   4789   4801     1   109.5600471 388.275200
   4790   4789   4791     1   108.4600466 328.025600
   4791   4789   4801     1   109.5600471 388.275200
   4792   4795   4796     1   109.8000471 387.438400
   4792   4795   4797     1   109.8000471 387.438400
   4793   4792   4795     1   109.5600471 388.275200
   4793   4792   4794     1   108.4600466 328.025600
   4794   4792   4795     1   109.5600471 388.275200
   4795   4804   4805     1   109.5600471 388.275200
   4795   4804   4806     1   109.5600471 388.275200
   4796   4795   4804     1   109.8000471 387.438400
   4796   4795   4797     1   107.5800459 329.699200
   4797   4795   4804     1   109.8000471 387.438400
   4798   4810   4811     1   109.5600471 388.275200
   4798   4810   4812     1   109.5600471 388.275200
   4799   4798   4810     1   109.8000471 387.438400
   4799   4798   4800     1   107.5800459 329.699200
   4800   4798   4810     1   109.8000471 387.438400
   4801   4807   4808     1   109.5600471 388.275200
   4801   4807   4809     1   109.5600471 388.275200
   4802   4801   4807     1   109.8000471 387.438400
   4802   4801   4803     1   107.5800459 329.699200
   4803   4801   4807     1   109.8000471 387.438400
   4805   4804   4813     1   109.7800468 425.094400
   4805   4804   4806     1   108.4600466 328.025600
   4806   4804   4813     1   109.7800468 425.094400
   4808   4807   8786     1   109.7800468 425.094400
   4808   4807   4809     1   108.4600466 328.025600
   4809   4807   8786     1   109.7800468 425.094400
   4811   4810   8809     1   109.7800468 425.094400
   4811   4810   4812     1   108.4600466 328.025600
   4812   4810   8809     1   109.7800468 425.094400
   4814   4815   4816     1   109.8800469 414.216000
   4814   4815   4817     1   109.8800469 414.216000
   4814   4818   4819     1   109.8800469 414.216000
   4814   4818   4820     1   109.8800469 414.216000
   4814   4821   4822     1   109.8800469 414.216000
   4814   4821   4823     1   109.8800469 414.216000
   4815   4827   4828     1   109.8000471 387.438400
   4815   4827   4829     1   109.8000471 387.438400
   4816   4815   4827     1   109.5600471 388.275200
   4816   4815   4817     1   108.4600466 328.025600
   4817   4815   4827     1   109.5600471 388.275200
   4818   4830   4831     1   109.8000471 387.438400
   4818   4830   4832     1   109.8000471 387.438400
   4819   4818   4830     1   109.5600471 388.275200
   4819   4818   4820     1   108.4600466 328.025600
   4820   4818   4830     1   109.5600471 388.275200
   4821   4824   4825     1   109.8000471 387.438400
   4821   4824   4826     1   109.8000471 387.438400
   4822   4821   4824     1   109.5600471 388.275200
   4822   4821   4823     1   108.4600466 328.025600
   4823   4821   4824     1   109.5600471 388.275200
   4824   4833   4834     1   109.5600471 388.275200
   4824   4833   4835     1   109.5600471 388.275200
   4825   4824   4833     1   109.8000471 387.438400
   4825   4824   4826     1   107.5800459 329.699200
   4826   4824   4833     1   109.8000471 387.438400
   4827   4839   4840     1   109.5600471 388.275200
   4827   4839   4841     1   109.5600471 388.275200
   4828   4827   4839     1   109.8000471 387.438400
   4828   4827   4829     1   107.5800459 329.699200
   4829   4827   4839     1   109.8000471 387.438400
   4830   4836   4837     1   109.5600471 388.275200
   4830   4836   4838     1   109.5600471 388.275200
   4831   4830   4836     1   109.8000471 387.438400
   4831   4830   4832     1   107.5800459 329.699200
   4832   4830   4836     1   109.8000471 387.438400
   4834   4833   4842     1   109.7800468 425.094400
   4834   4833   4835     1   108.4600466 328.025600
   4835   4833   4842     1   109.7800468 425.094400
   4837   4836   8832     1   109.7800468 425.094400
   4837   4836   4838     1   108.4600466 328.025600
   4838   4836   8832     1   109.7800468 425.094400
   4840   4839   8855     1   109.7800468 425.094400
   4840   4839   4841     1   108.4600466 328.025600
   4841   4839   8855     1   109.7800468 425.094400
   4843   4844   4845     1   109.8800469 414.216000
   4843   4844   4846     1   109.8800469 414.216000
   4843   4847   4848     1   109.8800469 414.216000
   4843   4847   4849     1   109.8800469 414.216000
   4843   4850   4851     1   109.8800469 414.216000
   4843   4850   4852     1   109.8800469 414.216000
   4844   4856   4857     1   109.8000471 387.438400
   4844   4856   4858     1   109.8000471 387.438400
   4845   4844   4856     1   109.5600471 388.275200
   4845   4844   4846     1   108.4600466 328.025600
   4846   4844   4856     1   109.5600471 388.275200
   4847   4859   4860     1   109.8000471 387.438400
   4847   4859   4861     1   109.8000471 387.438400
   4848   4847   4859     1   109.5600471 388.275200
   4848   4847   4849     1   108.4600466 328.025600
   4849   4847   4859     1   109.5600471 388.275200
   4850   4853   4854     1   109.8000471 387.438400
   4850   4853   4855     1   109.8000471 387.438400
   4851   4850   4853     1   109.5600471 388.275200
   4851   4850   4852     1   108.4600466 328.025600
   4852   4850   4853     1   109.5600471 388.275200
   4853   4862   4863     1   109.5600471 388.275200
   4853   4862   4864     1   109.5600471 388.275200
   4854   4853   4862     1   109.8000471 387.438400
   4854   4853   4855     1   107.5800459 329.699200
   4855   4853   4862     1   109.8000471 387.438400
   4856   4868   4869     1   109.5600471 388.275200
   4856   4868   4870     1   109.5600471 388.275200
   4857   4856   4868     1   109.8000471 387.438400
   4857   4856   4858     1   107.5800459 329.699200
   4858   4856   4868     1   109.8000471 387.438400
   4859   4865   4866     1   109.5600471 388.275200
   4859   4865   4867     1   109.5600471 388.275200
   4860   4859   4865     1   109.8000471 387.438400
   4860   4859   4861     1   107.5800459 329.699200
   4861   4859   4865     1   109.8000471 387.438400
   4863   4862   4871     1   109.7800468 425.094400
   4863   4862   4864     1   108.4600466 328.025600
   4864   4862   4871     1   109.7800468 425.094400
   4866   4865   8878     1   109.7800468 425.094400
   4866   4865   4867     1   108.4600466 328.025600
   4867   4865   8878     1   109.7800468 425.094400
   4869   4868   8901     1   109.7800468 425.094400
   4869   4868   4870     1   108.4600466 328.025600
   4870   4868   8901     1   109.7800468 425.094400
   4872   4873   4874     1   109.8800469 414.216000
   4872   4873   4875     1   109.8800469 414.216000
   4872   4876   4877     1   109.8800469 414.216000
   4872   4876   4878     1   109.8800469 414.216000
   4872   4879   4880     1   109.8800469 414.216000
   4872   4879   4881     1   109.8800469 414.216000
   4873   4885   4886     1   109.8000471 387.438400
   4873   4885   4887     1   109.8000471 387.438400
   4874   4873   4885     1   109.5600471 388.275200
   4874   4873   4875     1   108.4600466 328.025600
   4875   4873   4885     1   109.5600471 388.275200
   4876   4888   4889     1   109.8000471 387.438400
   4876   4888   4890     1   109.8000471 387.438400
   4877   4876   4888     1   109.5600471 388.275200
   4877   4876   4878     1   108.4600466 328.025600
   4878   4876   4888     1   109.5600471 388.275200
   4879   4882   4883     1   109.8000471 387.438400
   4879   4882   4884     1   109.8000471 387.438400
   4880   4879   4882     1   109.5600471 388.275200
   4880   4879   4881     1   108.4600466 328.025600
   4881   4879   4882     1   109.5600471 388.275200
   4882   4891   4892     1   109.5600471 388.275200
   4882   4891   4893     1   109.5600471 388.275200
   4883   4882   4891     1   109.8000471 387.438400
   4883   4882   4884     1   107.5800459 329.699200
   4884   4882   4891     1   109.8000471 387.438400
   4885   4897   4898     1   109.5600471 388.275200
   4885   4897   4899     1   109.5600471 388.275200
   4886   4885   4897     1   109.8000471 387.438400
   4886   4885   4887     1   107.5800459 329.699200
   4887   4885   4897     1   109.8000471 387.438400
   4888   4894   4895     1   109.5600471 388.275200
   4888   4894   4896     1   109.5600471 388.275200
   4889   4888   4894     1   109.8000471 387.438400
   4889   4888   4890     1   107.5800459 329.699200
   4890   4888   4894     1   109.8000471 387.438400
   4892   4891   4900     1   109.7800468 425.094400
   4892   4891   4893     1   108.4600466 328.025600
   4893   4891   4900     1   109.7800468 425.094400
   4895   4894   8924     1   109.7800468 425.094400
   4895   4894   4896     1   108.4600466 328.025600
   4896   4894   8924     1   109.7800468 425.094400
   4898   4897   8947     1   109.7800468 425.094400
   4898   4897   4899     1   108.4600466 328.025600
   4899   4897   8947     1   109.7800468 425.094400
   4901   4902   4903     1   109.8800469 414.216000
   4901   4902   4904     1   109.8800469 414.216000
   4901   4905   4906     1   109.8800469 414.216000
   4901   4905   4907     1   109.8800469 414.216000
   4901   4908   4909     1   109.8800469 414.216000
   4901   4908   4910     1   109.8800469 414.216000
   4902   4914   4915     1   109.8000471 387.438400
   4902   4914   4916     1   109.8000471 387.438400
   4903   4902   4914     1   109.5600471 388.275200
   4903   4902   4904     1   108.4600466 328.025600
   4904   4902   4914     1   109.5600471 388.275200
   4905   4917   4918     1   109.8000471 387.438400
   4905   4917   4919     1   109.8000471 387.438400
   4906   4905   4917     1   109.5600471 388.275200
   4906   4905   4907     1   108.4600466 328.025600
   4907   4905   4917     1   109.5600471 388.275200
   4908   4911   4912     1   109.8000471 387.438400
   4908   4911   4913     1   109.8000471 387.438400
   4909   4908   4911     1   109.5600471 388.275200
   4909   4908   4910     1   108.4600466 328.025600
   4910   4908   4911     1   109.5600471 388.275200
   4911   4920   4921     1   109.5600471 388.275200
   4911   4920   4922     1   109.5600471 388.275200
   4912   4911   4920     1   109.8000471 387.438400
   4912   4911   4913     1   107.5800459 329.699200
   4913   4911   4920     1   109.8000471 387.438400
   4914   4926   4927     1   109.5600471 388.275200
   4914   4926   4928     1   109.5600471 388.275200
   4915   4914   4926     1   109.8000471 387.438400
   4915   4914   4916     1   107.5800459 329.699200
   4916   4914   4926     1   109.8000471 387.438400
   4917   4923   4924     1   109.5600471 388.275200
   4917   4923   4925     1   109.5600471 388.275200
   4918   4917   4923     1   109.8000471 387.438400
   4918   4917   4919     1   107.5800459 329.699200
   4919   4917   4923     1   109.8000471 387.438400
   4921   4920   4929     1   109.7800468 425.094400
   4921   4920   4922     1   108.4600466 328.025600
   4922   4920   4929     1   109.7800468 425.094400
   4924   4923   8970     1   109.7800468 425.094400
   4924   4923   4925     1   108.4600466 328.025600
   4925   4923   8970     1   109.7800468 425.094400
   4927   4926   8993     1   109.7800468 425.094400
   4927   4926   4928     1   108.4600466 328.025600
   4928   4926   8993     1   109.7800468 425.094400
   4930   4931   4932     1   109.8800469 414.216000
   4930   4931   4933     1   109.8800469 414.216000
   4930   4934   4935     1   109.8800469 414.216000
   4930   4934   4936     1   109.8800469 414.216000
   4930   4937   4938     1   109.8800469 414.216000
   4930   4937   4939     1   109.8800469 414.216000
   4931   4943   4944     1   109.8000471 387.438400
   4931   4943   4945     1   109.8000471 387.438400
   4932   4931   4943     1   109.5600471 388.275200
   4932   4931   4933     1   108.4600466 328.025600
   4933   4931   4943     1   109.5600471 388.275200
   4934   4946   4947     1   109.8000471 387.438400
   4934   4946   4948     1   109.8000471 387.438400
   4935   4934   4946     1   109.5600471 388.275200
   4935   4934   4936     1   108.4600466 328.025600
   4936   4934   4946     1   109.5600471 388.275200
   4937   4940   4941     1   109.8000471 387.438400
   4937   4940   4942     1   109.8000471 387.438400
   4938   4937   4940     1   109.5600471 388.275200
   4938   4937   4939     1   108.4600466 328.025600
   4939   4937   4940     1   109.5600471 388.275200
   4940   4949   4950     1   109.5600471 388.275200
   4940   4949   4951     1   109.5600471 388.275200
   4941   4940   4949     1   109.8000471 387.438400
   4941   4940   4942     1   107.5800459 329.699200
   4942   4940   4949     1   109.8000471 387.438400
   4943   4955   4956     1   109.5600471 388.275200
   4943   4955   4957     1   109.5600471 388.275200
   4944   4943   4955     1   109.8000471 387.438400
   4944   4943   4945     1   107.5800459 329.699200
   4945   4943   4955     1   109.8000471 387.438400
   4946   4952   4953     1   109.5600471 388.275200
   4946   4952   4954     1   109.5600471 388.275200
   4947   4946   4952     1   109.8000471 387.438400
   4947   4946   4948     1   107.5800459 329.699200
   4948   4946   4952     1   109.8000471 387.438400
   4950   4949   4958     1   109.7800468 425.094400
   4950   4949   4951     1   108.4600466 328.025600
   4951   4949   4958     1   109.7800468 425.094400
   4953   4952   9016     1   109.7800468 425.094400
   4953   4952   4954     1   108.4600466 328.025600
   4954   4952   9016     1   109.7800468 425.094400
   4956   4955   9039     1   109.7800468 425.094400
   4956   4955   4957     1   108.4600466 328.025600
   4957   4955   9039     1   109.7800468 425.094400
   4959   4960   4961     1   109.8800469 414.216000
   4959   4960   4962     1   109.8800469 414.216000
   4959   4963   4964     1   109.8800469 414.216000
   4959   4963   4965     1   109.8800469 414.216000
   4959   4966   4967     1   109.8800469 414.216000
   4959   4966   4968     1   109.8800469 414.216000
   4960   4972   4973     1   109.8000471 387.438400
   4960   4972   4974     1   109.8000471 387.438400
   4961   4960   4972     1   109.5600471 388.275200
   4961   4960   4962     1   108.4600466 328.025600
   4962   4960   4972     1   109.5600471 388.275200
   4963   4975   4976     1   109.8000471 387.438400
   4963   4975   4977     1   109.8000471 387.438400
   4964   4963   4975     1   109.5600471 388.275200
   4964   4963   4965     1   108.4600466 328.025600
   4965   4963   4975     1   109.5600471 388.275200
   4966   4969   4970     1   109.8000471 387.438400
   4966   4969   4971     1   109.8000471 387.438400
   4967   4966   4969     1   109.5600471 388.275200
   4967   4966   4968     1   108.4600466 328.025600
   4968   4966   4969     1   109.5600471 388.275200
   4969   4978   4979     1   109.5600471 388.275200
   4969   4978   4980     1   109.5600471 388.275200
   4970   4969   4978     1   109.8000471 387.438400
   4970   4969   4971     1   107.5800459 329.699200
   4971   4969   4978     1   109.8000471 387.438400
   4972   4984   4985     1   109.5600471 388.275200
   4972   4984   4986     1   109.5600471 388.275200
   4973   4972   4984     1   109.8000471 387.438400
   4973   4972   4974     1   107.5800459 329.699200
   4974   4972   4984     1   109.8000471 387.438400
   4975   4981   4982     1   109.5600471 388.275200
   4975   4981   4983     1   109.5600471 388.275200
   4976   4975   4981     1   109.8000471 387.438400
   4976   4975   4977     1   107.5800459 329.699200
   4977   4975   4981     1   109.8000471 387.438400
   4979   4978   4987     1   109.7800468 425.094400
   4979   4978   4980     1   108.4600466 328.025600
   4980   4978   4987     1   109.7800468 425.094400
   4982   4981   9062     1   109.7800468 425.094400
   4982   4981   4983     1   108.4600466 328.025600
   4983   4981   9062     1   109.7800468 425.094400
   4985   4984   9085     1   109.7800468 425.094400
   4985   4984   4986     1   108.4600466 328.025600
   4986   4984   9085     1   109.7800468 425.094400
   4988   4989   4990     1   109.8800469 414.216000
   4988   4989   4991     1   109.8800469 414.216000
   4988   4992   4993     1   109.8800469 414.216000
   4988   4992   4994     1   109.8800469 414.216000
   4988   4995   4996     1   109.8800469 414.216000
   4988   4995   4997     1   109.8800469 414.216000
   4989   5001   5002     1   109.8000471 387.438400
   4989   5001   5003     1   109.8000471 387.438400
   4990   4989   5001     1   109.5600471 388.275200
   4990   4989   4991     1   108.4600466 328.025600
   4991   4989   5001     1   109.5600471 388.275200
   4992   5004   5005     1   109.8000471 387.438400
   4992   5004   5006     1   109.8000471 387.438400
   4993   4992   5004     1   109.5600471 388.275200
   4993   4992   4994     1   108.4600466 328.025600
   4994   4992   5004     1   109.5600471 388.275200
   4995   4998   4999     1   109.8000471 387.438400
   4995   4998   5000     1   109.8000471 387.438400
   4996   4995   4998     1   109.5600471 388.275200
   4996   4995   4997     1   108.4600466 328.025600
   4997   4995   4998     1   109.5600471 388.275200
   4998   5007   5008     1   109.5600471 388.275200
   4998   5007   5009     1   109.5600471 388.275200
   4999   4998   5007     1   109.8000471 387.438400
   4999   4998   5000     1   107.5800459 329.699200
   5000   4998   5007     1   109.8000471 387.438400
   5001   5013   5014     1   109.5600471 388.275200
   5001   5013   5015     1   109.5600471 388.275200
   5002   5001   5013     1   109.8000471 387.438400
   5002   5001   5003     1   107.5800459 329.699200
   5003   5001   5013     1   109.8000471 387.438400
   5004   5010   5011     1   109.5600471 388.275200
   5004   5010   5012     1   109.5600471 388.275200
   5005   5004   5010     1   109.8000471 387.438400
   5005   5004   5006     1   107.5800459 329.699200
   5006   5004   5010     1   109.8000471 387.438400
   5008   5007   5016     1   109.7800468 425.094400
   5008   5007   5009     1   108.4600466 328.025600
   5009   5007   5016     1   109.7800468 425.094400
   5011   5010   9108     1   109.7800468 425.094400
   5011   5010   5012     1   108.4600466 328.025600
   5012   5010   9108     1   109.7800468 425.094400
   5014   5013   9131     1   109.7800468 425.094400
   5014   5013   5015     1   108.4600466 328.025600
   5015   5013   9131     1   109.7800468 425.094400
   5017   5018   5019     1   109.8800469 414.216000
   5017   5018   5020     1   109.8800469 414.216000
   5017   5021   5022     1   109.8800469 414.216000
   5017   5021   5023     1   109.8800469 414.216000
   5017   5024   5025     1   109.8800469 414.216000
   5017   5024   5026     1   109.8800469 414.216000
   5018   5030   5031     1   109.8000471 387.438400
   5018   5030   5032     1   109.8000471 387.438400
   5019   5018   5030     1   109.5600471 388.275200
   5019   5018   5020     1   108.4600466 328.025600
   5020   5018   5030     1   109.5600471 388.275200
   5021   5033   5034     1   109.8000471 387.438400
   5021   5033   5035     1   109.8000471 387.438400
   5022   5021   5033     1   109.5600471 388.275200
   5022   5021   5023     1   108.4600466 328.025600
   5023   5021   5033     1   109.5600471 388.275200
   5024   5027   5028     1   109.8000471 387.438400
   5024   5027   5029     1   109.8000471 387.438400
   5025   5024   5027     1   109.5600471 388.275200
   5025   5024   5026     1   108.4600466 328.025600
   5026   5024   5027     1   109.5600471 388.275200
   5027   5036   5037     1   109.5600471 388.275200
   5027   5036   5038     1   109.5600471 388.275200
   5028   5027   5036     1   109.8000471 387.438400
   5028   5027   5029     1   107.5800459 329.699200
   5029   5027   5036     1   109.8000471 387.438400
   5030   5042   5043     1   109.5600471 388.275200
   5030   5042   5044     1   109.5600471 388.275200
   5031   5030   5042     1   109.8000471 387.438400
   5031   5030   5032     1   107.5800459 329.699200
   5032   5030   5042     1   109.8000471 387.438400
   5033   5039   5040     1   109.5600471 388.275200
   5033   5039   5041     1   109.5600471 388.275200
   5034   5033   5039     1   109.8000471 387.438400
   5034   5033   5035     1   107.5800459 329.699200
   5035   5033   5039     1   109.8000471 387.438400
   5037   5036   5045     1   109.7800468 425.094400
   5037   5036   5038     1   108.4600466 328.025600
   5038   5036   5045     1   109.7800468 425.094400
   5040   5039   9154     1   109.7800468 425.094400
   5040   5039   5041     1   108.4600466 328.025600
   5041   5039   9154     1   109.7800468 425.094400
   5043   5042   9177     1   109.7800468 425.094400
   5043   5042   5044     1   108.4600466 328.025600
   5044   5042   9177     1   109.7800468 425.094400
   5046   5047   5048     1   109.8800469 414.216000
   5046   5047   5049     1   109.8800469 414.216000
   5046   5050   5051     1   109.8800469 414.216000
   5046   5050   5052     1   109.8800469 414.216000
   5046   5053   5054     1   109.8800469 414.216000
   5046   5053   5055     1   109.8800469 414.216000
   5047   5059   5060     1   109.8000471 387.438400
   5047   5059   5061     1   109.8000471 387.438400
   5048   5047   5059     1   109.5600471 388.275200
   5048   5047   5049     1   108.4600466 328.025600
   5049   5047   5059     1   109.5600471 388.275200
   5050   5062   5063     1   109.8000471 387.438400
   5050   5062   5064     1   109.8000471 387.438400
   5051   5050   5062     1   109.5600471 388.275200
   5051   5050   5052     1   108.4600466 328.025600
   5052   5050   5062     1   109.5600471 388.275200
   5053   5056   5057     1   109.8000471 387.438400
   5053   5056   5058     1   109.8000471 387.438400
   5054   5053   5056     1   109.5600471 388.275200
   5054   5053   5055     1   108.4600466 328.025600
   5055   5053   5056     1   109.5600471 388.275200
   5056   5065   5066     1   109.5600471 388.275200
   5056   5065   5067     1   109.5600471 388.275200
   5057   5056   5065     1   109.8000471 387.438400
   5057   5056   5058     1   107.5800459 329.699200
   5058   5056   5065     1   109.8000471 387.438400
   5059   5071   5072     1   109.5600471 388.275200
   5059   5071   5073     1   109.5600471 388.275200
   5060   5059   5071     1   109.8000471 387.438400
   5060   5059   5061     1   107.5800459 329.699200
   5061   5059   5071     1   109.8000471 387.438400
   5062   5068   5069     1   109.5600471 388.275200
   5062   5068   5070     1   109.5600471 388.275200
   5063   5062   5068     1   109.8000471 387.438400
   5063   5062   5064     1   107.5800459 329.699200
   5064   5062   5068     1   109.8000471 387.438400
   5066   5065   5074     1   109.7800468 425.094400
   5066   5065   5067     1   108.4600466 328.025600
   5067   5065   5074     1   109.7800468 425.094400
   5069   5068   9200     1   109.7800468 425.094400
   5069   5068   5070     1   108.4600466 328.025600
   5070   5068   9200     1   109.7800468 425.094400
   5072   5071   9223     1   109.7800468 425.094400
   5072   5071   5073     1   108.4600466 328.025600
   5073   5071   9223     1   109.7800468 425.094400
   5075   5076   5077     1   109.8800469 414.216000
   5075   5076   5078     1   109.8800469 414.216000
   5075   5079   5080     1   109.8800469 414.216000
   5075   5079   5081     1   109.8800469 414.216000
   5075   5082   5083     1   109.8800469 414.216000
   5075   5082   5084     1   109.8800469 414.216000
   5076   5088   5089     1   109.8000471 387.438400
   5076   5088   5090     1   109.8000471 387.438400
   5077   5076   5088     1   109.5600471 388.275200
   5077   5076   5078     1   108.4600466 328.025600
   5078   5076   5088     1   109.5600471 388.275200
   5079   5091   5092     1   109.8000471 387.438400
   5079   5091   5093     1   109.8000471 387.438400
   5080   5079   5091     1   109.5600471 388.275200
   5080   5079   5081     1   108.4600466 328.025600
   5081   5079   5091     1   109.5600471 388.275200
   5082   5085   5086     1   109.8000471 387.438400
   5082   5085   5087     1   109.8000471 387.438400
   5083   5082   5085     1   109.5600471 388.275200
   5083   5082   5084     1   108.4600466 328.025600
   5084   5082   5085     1   109.5600471 388.275200
   5085   5094   5095     1   109.5600471 388.275200
   5085   5094   5096     1   109.5600471 388.275200
   5086   5085   5094     1   109.8000471 387.438400
   5086   5085   5087     1   107.5800459 329.699200
   5087   5085   5094     1   109.8000471 387.438400
   5088   5100   5101     1   109.5600471 388.275200
   5088   5100   5102     1   109.5600471 388.275200
   5089   5088   5100     1   109.8000471 387.438400
   5089   5088   5090     1   107.5800459 329.699200
   5090   5088   5100     1   109.8000471 387.438400
   5091   5097   5098     1   109.5600471 388.275200
   5091   5097   5099     1   109.5600471 388.275200
   5092   5091   5097     1   109.8000471 387.438400
   5092   5091   5093     1   107.5800459 329.699200
   5093   5091   5097     1   109.8000471 387.438400
   5095   5094   5103     1   109.7800468 425.094400
   5095   5094   5096     1   108.4600466 328.025600
   5096   5094   5103     1   109.7800468 425.094400
   5098   5097   9246     1   109.7800468 425.094400
   5098   5097   5099     1   108.4600466 328.025600
   5099   5097   9246     1   109.7800468 425.094400
   5101   5100   9269     1   109.7800468 425.094400
   5101   5100   5102     1   108.4600466 328.025600
   5102   5100   9269     1   109.7800468 425.094400
   5104   5105   5106     1   109.8800469 414.216000
   5104   5105   5107     1   109.8800469 414.216000
   5104   5108   5109     1   109.8800469 414.216000
   5104   5108   5110     1   109.8800469 414.216000
   5104   5111   5112     1   109.8800469 414.216000
   5104   5111   5113     1   109.8800469 414.216000
   5105   5117   5118     1   109.8000471 387.438400
   5105   5117   5119     1   109.8000471 387.438400
   5106   5105   5117     1   109.5600471 388.275200
   5106   5105   5107     1   108.4600466 328.025600
   5107   5105   5117     1   109.5600471 388.275200
   5108   5120   5121     1   109.8000471 387.438400
   5108   5120   5122     1   109.8000471 387.438400
   5109   5108   5120     1   109.5600471 388.275200
   5109   5108   5110     1   108.4600466 328.025600
   5110   5108   5120     1   109.5600471 388.275200
   5111   5114   5115     1   109.8000471 387.438400
   5111   5114   5116     1   109.8000471 387.438400
   5112   5111   5114     1   109.5600471 388.275200
   5112   5111   5113     1   108.4600466 328.025600
   5113   5111   5114     1   109.5600471 388.275200
   5114   5123   5124     1   109.5600471 388.275200
   5114   5123   5125     1   109.5600471 388.275200
   5115   5114   5123     1   109.8000471 387.438400
   5115   5114   5116     1   107.5800459 329.699200
   5116   5114   5123     1   109.8000471 387.438400
   5117   5129   5130     1   109.5600471 388.275200
   5117   5129   5131     1   109.5600471 388.275200
   5118   5117   5129     1   109.8000471 387.438400
   5118   5117   5119     1   107.5800459 329.699200
   5119   5117   5129     1   109.8000471 387.438400
   5120   5126   5127     1   109.5600471 388.275200
   5120   5126   5128     1   109.5600471 388.275200
   5121   5120   5126     1   109.8000471 387.438400
   5121   5120   5122     1   107.5800459 329.699200
   5122   5120   5126     1   109.8000471 387.438400
   5124   5123   5132     1   109.7800468 425.094400
   5124   5123   5125     1   108.4600466 328.025600
   5125   5123   5132     1   109.7800468 425.094400
   5127   5126   9292     1   109.7800468 425.094400
   5127   5126   5128     1   108.4600466 328.025600
   5128   5126   9292     1   109.7800468 425.094400
   5130   5129   9315     1   109.7800468 425.094400
   5130   5129   5131     1   108.4600466 328.025600
   5131   5129   9315     1   109.7800468 425.094400
   5133   5134   5135     1   109.8800469 414.216000
   5133   5134   5136     1   109.8800469 414.216000
   5133   5137   5138     1   109.8800469 414.216000
   5133   5137   5139     1   109.8800469 414.216000
   5133   5140   5141     1   109.8800469 414.216000
   5133   5140   5142     1   109.8800469 414.216000
   5134   5146   5147     1   109.8000471 387.438400
   5134   5146   5148     1   109.8000471 387.438400
   5135   5134   5146     1   109.5600471 388.275200
   5135   5134   5136     1   108.4600466 328.025600
   5136   5134   5146     1   109.5600471 388.275200
   5137   5149   5150     1   109.8000471 387.438400
   5137   5149   5151     1   109.8000471 387.438400
   5138   5137   5149     1   109.5600471 388.275200
   5138   5137   5139     1   108.4600466 328.025600
   5139   5137   5149     1   109.5600471 388.275200
   5140   5143   5144     1   109.8000471 387.438400
   5140   5143   5145     1   109.8000471 387.438400
   5141   5140   5143     1   109.5600471 388.275200
   5141   5140   5142     1   108.4600466 328.025600
   5142   5140   5143     1   109.5600471 388.275200
   5143   5152   5153     1   109.5600471 388.275200
   5143   5152   5154     1   109.5600471 388.275200
   5144   5143   5152     1   109.8000471 387.438400
   5144   5143   5145     1   107.5800459 329.699200
   5145   5143   5152     1   109.8000471 387.438400
   5146   5158   5159     1   109.5600471 388.275200
   5146   5158   5160     1   109.5600471 388.275200
   5147   5146   5158     1   109.8000471 387.438400
   5147   5146   5148     1   107.5800459 329.699200
   5148   5146   5158     1   109.8000471 387.438400
   5149   5155   5156     1   109.5600471 388.275200
   5149   5155   5157     1   109.5600471 388.275200
   5150   5149   5155     1   109.8000471 387.438400
   5150   5149   5151     1   107.5800459 329.699200
   5151   5149   5155     1   109.8000471 387.438400
   5153   5152   5161     1   109.7800468 425.094400
   5153   5152   5154     1   108.4600466 328.025600
   5154   5152   5161     1   109.7800468 425.094400
   5156   5155   9338     1   109.7800468 425.094400
   5156   5155   5157     1   108.4600466 328.025600
   5157   5155   9338     1   109.7800468 425.094400
   5159   5158   9361     1   109.7800468 425.094400
   5159   5158   5160     1   108.4600466 328.025600
   5160   5158   9361     1   109.7800468 425.094400
   5162   5163   5164     1   109.8800469 414.216000
   5162   5163   5165     1   109.8800469 414.216000
   5162   5166   5167     1   109.8800469 414.216000
   5162   5166   5168     1   109.8800469 414.216000
   5162   5169   5170     1   109.8800469 414.216000
   5162   5169   5171     1   109.8800469 414.216000
   5163   5175   5176     1   109.8000471 387.438400
   5163   5175   5177     1   109.8000471 387.438400
   5164   5163   5175     1   109.5600471 388.275200
   5164   5163   5165     1   108.4600466 328.025600
   5165   5163   5175     1   109.5600471 388.275200
   5166   5178   5179     1   109.8000471 387.438400
   5166   5178   5180     1   109.8000471 387.438400
   5167   5166   5178     1   109.5600471 388.275200
   5167   5166   5168     1   108.4600466 328.025600
   5168   5166   5178     1   109.5600471 388.275200
   5169   5172   5173     1   109.8000471 387.438400
   5169   5172   5174     1   109.8000471 387.438400
   5170   5169   5172     1   109.5600471 388.275200
   5170   5169   5171     1   108.4600466 328.025600
   5171   5169   5172     1   109.5600471 388.275200
   5172   5181   5182     1   109.5600471 388.275200
   5172   5181   5183     1   109.5600471 388.275200
   5173   5172   5181     1   109.8000471 387.438400
   5173   5172   5174     1   107.5800459 329.699200
   5174   5172   5181     1   109.8000471 387.438400
   5175   5187   5188     1   109.5600471 388.275200
   5175   5187   5189     1   109.5600471 388.275200
   5176   5175   5187     1   109.8000471 387.438400
   5176   5175   5177     1   107.5800459 329.699200
   5177   5175   5187     1   109.8000471 387.438400
   5178   5184   5185     1   109.5600471 388.275200
   5178   5184   5186     1   109.5600471 388.275200
   5179   5178   5184     1   109.8000471 387.438400
   5179   5178   5180     1   107.5800459 329.699200
   5180   5178   5184     1   109.8000471 387.438400
   5182   5181   5190     1   109.7800468 425.094400
   5182   5181   5183     1   108.4600466 328.025600
   5183   5181   5190     1   109.7800468 425.094400
   5185   5184   9384     1   109.7800468 425.094400
   5185   5184   5186     1   108.4600466 328.025600
   5186   5184   9384     1   109.7800468 425.094400
   5188   5187   9407     1   109.7800468 425.094400
   5188   5187   5189     1   108.4600466 328.025600
   5189   5187   9407     1   109.7800468 425.094400
   5191   5192   5193     1   109.8800469 414.216000
   5191   5192   5194     1   109.8800469 414.216000
   5191   5195   5196     1   109.8800469 414.216000
   5191   5195   5197     1   109.8800469 414.216000
   5191   5198   5199     1   109.8800469 414.216000
   5191   5198   5200     1   109.8800469 414.216000
   5192   5204   5205     1   109.8000471 387.438400
   5192   5204   5206     1   109.8000471 387.438400
   5193   5192   5204     1   109.5600471 388.275200
   5193   5192   5194     1   108.4600466 328.025600
   5194   5192   5204     1   109.5600471 388.275200
   5195   5207   5208     1   109.8000471 387.438400
   5195   5207   5209     1   109.8000471 387.438400
   5196   5195   5207     1   109.5600471 388.275200
   5196   5195   5197     1   108.4600466 328.025600
   5197   5195   5207     1   109.5600471 388.275200
   5198   5201   5202     1   109.8000471 387.438400
   5198   5201   5203     1   109.8000471 387.438400
   5199   5198   5201     1   109.5600471 388.275200
   5199   5198   5200     1   108.4600466 328.025600
   5200   5198   5201     1   109.5600471 388.275200
   5201   5210   5211     1   109.5600471 388.275200
   5201   5210   5212     1   109.5600471 388.275200
   5202   5201   5210     1   109.8000471 387.438400
   5202   5201   5203     1   107.5800459 329.699200
   5203   5201   5210     1   109.8000471 387.438400
   5204   5216   5217     1   109.5600471 388.275200
   5204   5216   5218     1   109.5600471 388.275200
   5205   5204   5216     1   109.8000471 387.438400
   5205   5204   5206     1   107.5800459 329.699200
   5206   5204   5216     1   109.8000471 387.438400
   5207   5213   5214     1   109.5600471 388.275200
   5207   5213   5215     1   109.5600471 388.275200
   5208   5207   5213     1   109.8000471 387.438400
   5208   5207   5209     1   107.5800459 329.699200
   5209   5207   5213     1   109.8000471 387.438400
   5211   5210   5219     1   109.7800468 425.094400
   5211   5210   5212     1   108.4600466 328.025600
   5212   5210   5219     1   109.7800468 425.094400
   5214   5213   9430     1   109.7800468 425.094400
   5214   5213   5215     1   108.4600466 328.025600
   5215   5213   9430     1   109.7800468 425.094400
   5217   5216   9453     1   109.7800468 425.094400
   5217   5216   5218     1   108.4600466 328.025600
   5218   5216   9453     1   109.7800468 425.094400
   5220   5221   5222     1   109.8800469 414.216000
   5220   5221   5223     1   109.8800469 414.216000
   5220   5224   5225     1   109.8800469 414.216000
   5220   5224   5226     1   109.8800469 414.216000
   5220   5227   5228     1   109.8800469 414.216000
   5220   5227   5229     1   109.8800469 414.216000
   5221   5233   5234     1   109.8000471 387.438400
   5221   5233   5235     1   109.8000471 387.438400
   5222   5221   5233     1   109.5600471 388.275200
   5222   5221   5223     1   108.4600466 328.025600
   5223   5221   5233     1   109.5600471 388.275200
   5224   5236   5237     1   109.8000471 387.438400
   5224   5236   5238     1   109.8000471 387.438400
   5225   5224   5236     1   109.5600471 388.275200
   5225   5224   5226     1   108.4600466 328.025600
   5226   5224   5236     1   109.5600471 388.275200
   5227   5230   5231     1   109.8000471 387.438400
   5227   5230   5232     1   109.8000471 387.438400
   5228   5227   5230     1   109.5600471 388.275200
   5228   5227   5229     1   108.4600466 328.025600
   5229   5227   5230     1   109.5600471 388.275200
   5230   5239   5240     1   109.5600471 388.275200
   5230   5239   5241     1   109.5600471 388.275200
   5231   5230   5239     1   109.8000471 387.438400
   5231   5230   5232     1   107.5800459 329.699200
   5232   5230   5239     1   109.8000471 387.438400
   5233   5245   5246     1   109.5600471 388.275200
   5233   5245   5247     1   109.5600471 388.275200
   5234   5233   5245     1   109.8000471 387.438400
   5234   5233   5235     1   107.5800459 329.699200
   5235   5233   5245     1   109.8000471 387.438400
   5236   5242   5243     1   109.5600471 388.275200
   5236   5242   5244     1   109.5600471 388.275200
   5237   5236   5242     1   109.8000471 387.438400
   5237   5236   5238     1   107.5800459 329.699200
   5238   5236   5242     1   109.8000471 387.438400
   5240   5239   5248     1   109.7800468 425.094400
   5240   5239   5241     1   108.4600466 328.025600
   5241   5239   5248     1   109.7800468 425.094400
   5243   5242   9476     1   109.7800468 425.094400
   5243   5242   5244     1   108.4600466 328.025600
   5244   5242   9476     1   109.7800468 425.094400
   5246   5245   9499     1   109.7800468 425.094400
   5246   5245   5247     1   108.4600466 328.025600
   5247   5245   9499     1   109.7800468 425.094400
   5249   5250   5251     1   109.8800469 414.216000
   5249   5250   5252     1   109.8800469 414.216000
   5249   5253   5254     1   109.8800469 414.216000
   5249   5253   5255     1   109.8800469 414.216000
   5249   5256   5257     1   109.8800469 414.216000
   5249   5256   5258     1   109.8800469 414.216000
   5250   5262   5263     1   109.8000471 387.438400
   5250   5262   5264     1   109.8000471 387.438400
   5251   5250   5262     1   109.5600471 388.275200
   5251   5250   5252     1   108.4600466 328.025600
   5252   5250   5262     1   109.5600471 388.275200
   5253   5265   5266     1   109.8000471 387.438400
   5253   5265   5267     1   109.8000471 387.438400
   5254   5253   5265     1   109.5600471 388.275200
   5254   5253   5255     1   108.4600466 328.025600
   5255   5253   5265     1   109.5600471 388.275200
   5256   5259   5260     1   109.8000471 387.438400
   5256   5259   5261     1   109.8000471 387.438400
   5257   5256   5259     1   109.5600471 388.275200
   5257   5256   5258     1   108.4600466 328.025600
   5258   5256   5259     1   109.5600471 388.275200
   5259   5268   5269     1   109.5600471 388.275200
   5259   5268   5270     1   109.5600471 388.275200
   5260   5259   5268     1   109.8000471 387.438400
   5260   5259   5261     1   107.5800459 329.699200
   5261   5259   5268     1   109.8000471 387.438400
   5262   5274   5275     1   109.5600471 388.275200
   5262   5274   5276     1   109.5600471 388.275200
   5263   5262   5274     1   109.8000471 387.438400
   5263   5262   5264     1   107.5800459 329.699200
   5264   5262   5274     1   109.8000471 387.438400
   5265   5271   5272     1   109.5600471 388.275200
   5265   5271   5273     1   109.5600471 388.275200
   5266   5265   5271     1   109.8000471 387.438400
   5266   5265   5267     1   107.5800459 329.699200
   5267   5265   5271     1   109.8000471 387.438400
   5269   5268   5277     1   109.7800468 425.094400
   5269   5268   5270     1   108.4600466 328.025600
   5270   5268   5277     1   109.7800468 425.094400
   5272   5271   9522     1   109.7800468 425.094400
   5272   5271   5273     1   108.4600466 328.025600
   5273   5271   9522     1   109.7800468 425.094400
   5275   5274   9545     1   109.7800468 425.094400
   5275   5274   5276     1   108.4600466 328.025600
   5276   5274   9545     1   109.7800468 425.094400
   5278   5279   5280     1   109.8800469 414.216000
   5278   5279   5281     1   109.8800469 414.216000
   5278   5282   5283     1   109.8800469 414.216000
   5278   5282   5284     1   109.8800469 414.216000
   5278   5285   5286     1   109.8800469 414.216000
   5278   5285   5287     1   109.8800469 414.216000
   5279   5291   5292     1   109.8000471 387.438400
   5279   5291   5293     1   109.8000471 387.438400
   5280   5279   5291     1   109.5600471 388.275200
   5280   5279   5281     1   108.4600466 328.025600
   5281   5279   5291     1   109.5600471 388.275200
   5282   5294   5295     1   109.8000471 387.438400
   5282   5294   5296     1   109.8000471 387.438400
   5283   5282   5294     1   109.5600471 388.275200
   5283   5282   5284     1   108.4600466 328.025600
   5284   5282   5294     1   109.5600471 388.275200
   5285   5288   5289     1   109.8000471 387.438400
   5285   5288   5290     1   109.8000471 387.438400
   5286   5285   5288     1   109.5600471 388.275200
   5286   5285   5287     1   108.4600466 328.025600
   5287   5285   5288     1   109.5600471 388.275200
   5288   5297   5298     1   109.5600471 388.275200
   5288   5297   5299     1   109.5600471 388.275200
   5289   5288   5297     1   109.8000471 387.438400
   5289   5288   5290     1   107.5800459 329.699200
   5290   5288   5297     1   109.8000471 387.438400
   5291   5303   5304     1   109.5600471 388.275200
   5291   5303   5305     1   109.5600471 388.275200
   5292   5291   5303     1   109.8000471 387.438400
   5292   5291   5293     1   107.5800459 329.699200
   5293   5291   5303     1   109.8000471 387.438400
   5294   5300   5301     1   109.5600471 388.275200
   5294   5300   5302     1   109.5600471 388.275200
   5295   5294   5300     1   109.8000471 387.438400
   5295   5294   5296     1   107.5800459 329.699200
   5296   5294   5300     1   109.8000471 387.438400
   5298   5297   5306     1   109.7800468 425.094400
   5298   5297   5299     1   108.4600466 328.025600
   5299   5297   5306     1   109.7800468 425.094400
   5301   5300   9568     1   109.7800468 425.094400
   5301   5300   5302     1   108.4600466 328.025600
   5302   5300   9568     1   109.7800468 425.094400
   5304   5303   9591     1   109.7800468 425.094400
   5304   5303   5305     1   108.4600466 328.025600
   5305   5303   9591     1   109.7800468 425.094400
   5307   5308   5309     1   109.8800469 414.216000
   5307   5308   5310     1   109.8800469 414.216000
   5307   5311   5312     1   109.8800469 414.216000
   5307   5311   5313     1   109.8800469 414.216000
   5307   5314   5315     1   109.8800469 414.216000
   5307   5314   5316     1   109.8800469 414.216000
   5308   5320   5321     1   109.8000471 387.438400
   5308   5320   5322     1   109.8000471 387.438400
   5309   5308   5320     1   109.5600471 388.275200
   5309   5308   5310     1   108.4600466 328.025600
   5310   5308   5320     1   109.5600471 388.275200
   5311   5323   5324     1   109.8000471 387.438400
   5311   5323   5325     1   109.8000471 387.438400
   5312   5311   5323     1   109.5600471 388.275200
   5312   5311   5313     1   108.4600466 328.025600
   5313   5311   5323     1   109.5600471 388.275200
   5314   5317   5318     1   109.8000471 387.438400
   5314   5317   5319     1   109.8000471 387.438400
   5315   5314   5317     1   109.5600471 388.275200
   5315   5314   5316     1   108.4600466 328.025600
   5316   5314   5317     1   109.5600471 388.275200
   5317   5326   5327     1   109.5600471 388.275200
   5317   5326   5328     1   109.5600471 388.275200
   5318   5317   5326     1   109.8000471 387.438400
   5318   5317   5319     1   107.5800459 329.699200
   5319   5317   5326     1   109.8000471 387.438400
   5320   5332   5333     1   109.5600471 388.275200
   5320   5332   5334     1   109.5600471 388.275200
   5321   5320   5332     1   109.8000471 387.438400
   5321   5320   5322     1   107.5800459 329.699200
   5322   5320   5332     1   109.8000471 387.438400
   5323   5329   5330     1   109.5600471 388.275200
   5323   5329   5331     1   109.5600471 388.275200
   5324   5323   5329     1   109.8000471 387.438400
   5324   5323   5325     1   107.5800459 329.699200
   5325   5323   5329     1   109.8000471 387.438400
   5327   5326   5335     1   109.7800468 425.094400
   5327   5326   5328     1   108.4600466 328.025600
   5328   5326   5335     1   109.7800468 425.094400
   5330   5329   9614     1   109.7800468 425.094400
   5330   5329   5331     1   108.4600466 328.025600
   5331   5329   9614     1   109.7800468 425.094400
   5333   5332   9637     1   109.7800468 425.094400
   5333   5332   5334     1   108.4600466 328.025600
   5334   5332   9637     1   109.7800468 425.094400
   5336   5337   5338     1   109.8800469 414.216000
   5336   5337   5339     1   109.8800469 414.216000
   5336   5340   5341     1   109.8800469 414.216000
   5336   5340   5342     1   109.8800469 414.216000
   5336   5343   5344     1   109.8800469 414.216000
   5336   5343   5345     1   109.8800469 414.216000
   5337   5349   5350     1   109.8000471 387.438400
   5337   5349   5351     1   109.8000471 387.438400
   5338   5337   5349     1   109.5600471 388.275200
   5338   5337   5339     1   108.4600466 328.025600
   5339   5337   5349     1   109.5600471 388.275200
   5340   5352   5353     1   109.8000471 387.438400
   5340   5352   5354     1   109.8000471 387.438400
   5341   5340   5352     1   109.5600471 388.275200
   5341   5340   5342     1   108.4600466 328.025600
   5342   5340   5352     1   109.5600471 388.275200
   5343   5346   5347     1   109.8000471 387.438400
   5343   5346   5348     1   109.8000471 387.438400
   5344   5343   5346     1   109.5600471 388.275200
   5344   5343   5345     1   108.4600466 328.025600
   5345   5343   5346     1   109.5600471 388.275200
   5346   5355   5356     1   109.5600471 388.275200
   5346   5355   5357     1   109.5600471 388.275200
   5347   5346   5355     1   109.8000471 387.438400
   5347   5346   5348     1   107.5800459 329.699200
   5348   5346   5355     1   109.8000471 387.438400
   5349   5361   5362     1   109.5600471 388.275200
   5349   5361   5363     1   109.5600471 388.275200
   5350   5349   5361     1   109.8000471 387.438400
   5350   5349   5351     1   107.5800459 329.699200
   5351   5349   5361     1   109.8000471 387.438400
   5352   5358   5359     1   109.5600471 388.275200
   5352   5358   5360     1   109.5600471 388.275200
   5353   5352   5358     1   109.8000471 387.438400
   5353   5352   5354     1   107.5800459 329.699200
   5354   5352   5358     1   109.8000471 387.438400
   5356   5355   5364     1   109.7800468 425.094400
   5356   5355   5357     1   108.4600466 328.025600
   5357   5355   5364     1   109.7800468 425.094400
   5359   5358   9660     1   109.7800468 425.094400
   5359   5358   5360     1   108.4600466 328.025600
   5360   5358   9660     1   109.7800468 425.094400
   5362   5361   9683     1   109.7800468 425.094400
   5362   5361   5363     1   108.4600466 328.025600
   5363   5361   9683     1   109.7800468 425.094400
   5365   5366   5367     1   109.8800469 414.216000
   5365   5366   5368     1   109.8800469 414.216000
   5365   5369   5370     1   109.8800469 414.216000
   5365   5369   5371     1   109.8800469 414.216000
   5365   5372   5373     1   109.8800469 414.216000
   5365   5372   5374     1   109.8800469 414.216000
   5366   5378   5379     1   109.8000471 387.438400
   5366   5378   5380     1   109.8000471 387.438400
   5367   5366   5378     1   109.5600471 388.275200
   5367   5366   5368     1   108.4600466 328.025600
   5368   5366   5378     1   109.5600471 388.275200
   5369   5381   5382     1   109.8000471 387.438400
   5369   5381   5383     1   109.8000471 387.438400
   5370   5369   5381     1   109.5600471 388.275200
   5370   5369   5371     1   108.4600466 328.025600
   5371   5369   5381     1   109.5600471 388.275200
   5372   5375   5376     1   109.8000471 387.438400
   5372   5375   5377     1   109.8000471 387.438400
   5373   5372   5375     1   109.5600471 388.275200
   5373   5372   5374     1   108.4600466 328.025600
   5374   5372   5375     1   109.5600471 388.275200
   5375   5384   5385     1   109.5600471 388.275200
   5375   5384   5386     1   109.5600471 388.275200
   5376   5375   5384     1   109.8000471 387.438400
   5376   5375   5377     1   107.5800459 329.699200
   5377   5375   5384     1   109.8000471 387.438400
   5378   5390   5391     1   109.5600471 388.275200
   5378   5390   5392     1   109.5600471 388.275200
   5379   5378   5390     1   109.8000471 387.438400
   5379   5378   5380     1   107.5800459 329.699200
   5380   5378   5390     1   109.8000471 387.438400
   5381   5387   5388     1   109.5600471 388.275200
   5381   5387   5389     1   109.5600471 388.275200
   5382   5381   5387     1   109.8000471 387.438400
   5382   5381   5383     1   107.5800459 329.699200
   5383   5381   5387     1   109.8000471 387.438400
   5385   5384   5393     1   109.7800468 425.094400
   5385   5384   5386     1   108.4600466 328.025600
   5386   5384   5393     1   109.7800468 425.094400
   5388   5387   9706     1   109.7800468 425.094400
   5388   5387   5389     1   108.4600466 328.025600
   5389   5387   9706     1   109.7800468 425.094400
   5391   5390   9729     1   109.7800468 425.094400
   5391   5390   5392     1   108.4600466 328.025600
   5392   5390   9729     1   109.7800468 425.094400
   5394   5395   5396     1   109.8800469 414.216000
   5394   5395   5397     1   109.8800469 414.216000
   5394   5398   5399     1   109.8800469 414.216000
   5394   5398   5400     1   109.8800469 414.216000
   5394   5401   5402     1   109.8800469 414.216000
   5394   5401   5403     1   109.8800469 414.216000
   5395   5407   5408     1   109.8000471 387.438400
   5395   5407   5409     1   109.8000471 387.438400
   5396   5395   5407     1   109.5600471 388.275200
   5396   5395   5397     1   108.4600466 328.025600
   5397   5395   5407     1   109.5600471 388.275200
   5398   5410   5411     1   109.8000471 387.438400
   5398   5410   5412     1   109.8000471 387.438400
   5399   5398   5410     1   109.5600471 388.275200
   5399   5398   5400     1   108.4600466 328.025600
   5400   5398   5410     1   109.5600471 388.275200
   5401   5404   5405     1   109.8000471 387.438400
   5401   5404   5406     1   109.8000471 387.438400
   5402   5401   5404     1   109.5600471 388.275200
   5402   5401   5403     1   108.4600466 328.025600
   5403   5401   5404     1   109.5600471 388.275200
   5404   5413   5414     1   109.5600471 388.275200
   5404   5413   5415     1   109.5600471 388.275200
   5405   5404   5413     1   109.8000471 387.438400
   5405   5404   5406     1   107.5800459 329.699200
   5406   5404   5413     1   109.8000471 387.438400
   5407   5419   5420     1   109.5600471 388.275200
   5407   5419   5421     1   109.5600471 388.275200
   5408   5407   5419     1   109.8000471 387.438400
   5408   5407   5409     1   107.5800459 329.699200
   5409   5407   5419     1   109.8000471 387.438400
   5410   5416   5417     1   109.5600471 388.275200
   5410   5416   5418     1   109.5600471 388.275200
   5411   5410   5416     1   109.8000471 387.438400
   5411   5410   5412     1   107.5800459 329.699200
   5412   5410   5416     1   109.8000471 387.438400
   5414   5413   5422     1   109.7800468 425.094400
   5414   5413   5415     1   108.4600466 328.025600
   5415   5413   5422     1   109.7800468 425.094400
   5417   5416   9752     1   109.7800468 425.094400
   5417   5416   5418     1   108.4600466 328.025600
   5418   5416   9752     1   109.7800468 425.094400
   5420   5419   9775     1   109.7800468 425.094400
   5420   5419   5421     1   108.4600466 328.025600
   5421   5419   9775     1   109.7800468 425.094400
   5423   5424   5425     1   109.8800469 414.216000
   5423   5424   5426     1   109.8800469 414.216000
   5423   5427   5428     1   109.8800469 414.216000
   5423   5427   5429     1   109.8800469 414.216000
   5423   5430   5431     1   109.8800469 414.216000
   5423   5430   5432     1   109.8800469 414.216000
   5424   5436   5437     1   109.8000471 387.438400
   5424   5436   5438     1   109.8000471 387.438400
   5425   5424   5436     1   109.5600471 388.275200
   5425   5424   5426     1   108.4600466 328.025600
   5426   5424   5436     1   109.5600471 388.275200
   5427   5439   5440     1   109.8000471 387.438400
   5427   5439   5441     1   109.8000471 387.438400
   5428   5427   5439     1   109.5600471 388.275200
   5428   5427   5429     1   108.4600466 328.025600
   5429   5427   5439     1   109.5600471 388.275200
   5430   5433   5434     1   109.8000471 387.438400
   5430   5433   5435     1   109.8000471 387.438400
   5431   5430   5433     1   109.5600471 388.275200
   5431   5430   5432     1   108.4600466 328.025600
   5432   5430   5433     1   109.5600471 388.275200
   5433   5442   5443     1   109.5600471 388.275200
   5433   5442   5444     1   109.5600471 388.275200
   5434   5433   5442     1   109.8000471 387.438400
   5434   5433   5435     1   107.5800459 329.699200
   5435   5433   5442     1   109.8000471 387.438400
   5436   5448   5449     1   109.5600471 388.275200
   5436   5448   5450     1   109.5600471 388.275200
   5437   5436   5448     1   109.8000471 387.438400
   5437   5436   5438     1   107.5800459 329.699200
   5438   5436   5448     1   109.8000471 387.438400
   5439   5445   5446     1   109.5600471 388.275200
   5439   5445   5447     1   109.5600471 388.275200
   5440   5439   5445     1   109.8000471 387.438400
   5440   5439   5441     1   107.5800459 329.699200
   5441   5439   5445     1   109.8000471 387.438400
   5443   5442   5451     1   109.7800468 425.094400
   5443   5442   5444     1   108.4600466 328.025600
   5444   5442   5451     1   109.7800468 425.094400
   5446   5445   9798     1   109.7800468 425.094400
   5446   5445   5447     1   108.4600466 328.025600
   5447   5445   9798     1   109.7800468 425.094400
   5449   5448   9821     1   109.7800468 425.094400
   5449   5448   5450     1   108.4600466 328.025600
   5450   5448   9821     1   109.7800468 425.094400
   5452   5453   5454     1   109.8800469 414.216000
   5452   5453   5455     1   109.8800469 414.216000
   5452   5456   5457     1   109.8800469 414.216000
   5452   5456   5458     1   109.8800469 414.216000
   5452   5459   5460     1   109.8800469 414.216000
   5452   5459   5461     1   109.8800469 414.216000
   5453   5465   5466     1   109.8000471 387.438400
   5453   5465   5467     1   109.8000471 387.438400
   5454   5453   5465     1   109.5600471 388.275200
   5454   5453   5455     1   108.4600466 328.025600
   5455   5453   5465     1   109.5600471 388.275200
   5456   5468   5469     1   109.8000471 387.438400
   5456   5468   5470     1   109.8000471 387.438400
   5457   5456   5468     1   109.5600471 388.275200
   5457   5456   5458     1   108.4600466 328.025600
   5458   5456   5468     1   109.5600471 388.275200
   5459   5462   5463     1   109.8000471 387.438400
   5459   5462   5464     1   109.8000471 387.438400
   5460   5459   5462     1   109.5600471 388.275200
   5460   5459   5461     1   108.4600466 328.025600
   5461   5459   5462     1   109.5600471 388.275200
   5462   5471   5472     1   109.5600471 388.275200
   5462   5471   5473     1   109.5600471 388.275200
   5463   5462   5471     1   109.8000471 387.438400
   5463   5462   5464     1   107.5800459 329.699200
   5464   5462   5471     1   109.8000471 387.438400
   5465   5477   5478     1   109.5600471 388.275200
   5465   5477   5479     1   109.5600471 388.275200
   5466   5465   5477     1   109.8000471 387.438400
   5466   5465   5467     1   107.5800459 329.699200
   5467   5465   5477     1   109.8000471 387.438400
   5468   5474   5475     1   109.5600471 388.275200
   5468   5474   5476     1   109.5600471 388.275200
   5469   5468   5474     1   109.8000471 387.438400
   5469   5468   5470     1   107.5800459 329.699200
   5470   5468   5474     1   109.8000471 387.438400
   5472   5471   5480     1   109.7800468 425.094400
   5472   5471   5473     1   108.4600466 328.025600
   5473   5471   5480     1   109.7800468 425.094400
   5475   5474   9844     1   109.7800468 425.094400
   5475   5474   5476     1   108.4600466 328.025600
   5476   5474   9844     1   109.7800468 425.094400
   5478   5477   9867     1   109.7800468 425.094400
   5478   5477   5479     1   108.4600466 328.025600
   5479   5477   9867     1   109.7800468 425.094400
   5481   5482   5483     1   109.8800469 414.216000
   5481   5482   5484     1   109.8800469 414.216000
   5481   5485   5486     1   109.8800469 414.216000
   5481   5485   5487     1   109.8800469 414.216000
   5481   5488   5489     1   109.8800469 414.216000
   5481   5488   5490     1   109.8800469 414.216000
   5482   5494   5495     1   109.8000471 387.438400
   5482   5494   5496     1   109.8000471 387.438400
   5483   5482   5494     1   109.5600471 388.275200
   5483   5482   5484     1   108.4600466 328.025600
   5484   5482   5494     1   109.5600471 388.275200
   5485   5497   5498     1   109.8000471 387.438400
   5485   5497   5499     1   109.8000471 387.438400
   5486   5485   5497     1   109.5600471 388.275200
   5486   5485   5487     1   108.4600466 328.025600
   5487   5485   5497     1   109.5600471 388.275200
   5488   5491   5492     1   109.8000471 387.438400
   5488   5491   5493     1   109.8000471 387.438400
   5489   5488   5491     1   109.5600471 388.275200
   5489   5488   5490     1   108.4600466 328.025600
   5490   5488   5491     1   109.5600471 388.275200
   5491   5500   5501     1   109.5600471 388.275200
   5491   5500   5502     1   109.5600471 388.275200
   5492   5491   5500     1   109.8000471 387.438400
   5492   5491   5493     1   107.5800459 329.699200
   5493   5491   5500     1   109.8000471 387.438400
   5494   5506   5507     1   109.5600471 388.275200
   5494   5506   5508     1   109.5600471 388.275200
   5495   5494   5506     1   109.8000471 387.438400
   5495   5494   5496     1   107.5800459 329.699200
   5496   5494   5506     1   109.8000471 387.438400
   5497   5503   5504     1   109.5600471 388.275200
   5497   5503   5505     1   109.5600471 388.275200
   5498   5497   5503     1   109.8000471 387.438400
   5498   5497   5499     1   107.5800459 329.699200
   5499   5497   5503     1   109.8000471 387.438400
   5501   5500   5509     1   109.7800468 425.094400
   5501   5500   5502     1   108.4600466 328.025600
   5502   5500   5509     1   109.7800468 425.094400
   5504   5503   9890     1   109.7800468 425.094400
   5504   5503   5505     1   108.4600466 328.025600
   5505   5503   9890     1   109.7800468 425.094400
   5507   5506   9913     1   109.7800468 425.094400
   5507   5506   5508     1   108.4600466 328.025600
   5508   5506   9913     1   109.7800468 425.094400
   5510   5511   5513     1   109.5600471 388.275200
   5510   5524   5528     1   109.5600471 388.275200
   5510   5524   5529     1   109.5600471 388.275200
   5511   5510   5512     1   109.5600471 388.275200
   5511   5514   5518     1   109.5600471 388.275200
   5511   5523   5526     1   107.2600461 396.643200
   5512   5510   5524     1   109.5600471 388.275200
   5512   5510   5532     1   109.7800468 425.094400
   5513   5511   5514     1   109.5600471 388.275200
   5513   5511   5523     1   110.2600474 425.931200
   5514   5515   5517     1   109.5600471 388.275200
   5514   5522   5525     1   107.2600461 396.643200
   5515   5514   5518     1   109.5600471 388.275200
   5515   5516   5519     1   110.2200475 386.601600
   5515   5521   5527     1   107.2600461 396.643200
   5516   5515   5517     1   109.5600471 388.275200
   5517   5515   5521     1   110.2600474 425.931200
   5518   5514   5522     1   110.2600474 425.931200
   5519   5516   5520     1   109.5800467 425.931200
   5519   5516   5532     1   109.5800467 425.931200
   5524   5530   5531     1   107.2600461 396.643200
   5528   5524   5530     1   110.2600474 425.931200
   5528   5524   5529     1   108.4600466 328.025600
   5529   5524   5530     1   110.2600474 425.931200
   5533   5534   5536     1   109.5600471 388.275200
   5533   5547   5551     1   109.5600471 388.275200
   5533   5547   5552     1   109.5600471 388.275200
   5534   5537   5541     1   109.5600471 388.275200
   5534   5546   5549     1   107.2600461 396.643200
   5534   5533   5535     1   109.5600471 388.275200
   5535   5533   5547     1   109.5600471 388.275200
   5535   5533   5555     1   109.7800468 425.094400
   5536   5534   5537     1   109.5600471 388.275200
   5536   5534   5546     1   110.2600474 425.931200
   5537   5538   5540     1   109.5600471 388.275200
   5537   5545   5548     1   107.2600461 396.643200
   5538   5539   5542     1   110.2200475 386.601600
   5538   5544   5550     1   107.2600461 396.643200
   5538   5537   5541     1   109.5600471 388.275200
   5539   5538   5540     1   109.5600471 388.275200
   5540   5538   5544     1   110.2600474 425.931200
   5541   5537   5545     1   110.2600474 425.931200
   5542   5539   5543     1   109.5800467 425.931200
   5542   5539   5555     1   109.5800467 425.931200
   5547   5553   5554     1   107.2600461 396.643200
   5551   5547   5553     1   110.2600474 425.931200
   5551   5547   5552     1   108.4600466 328.025600
   5552   5547   5553     1   110.2600474 425.931200
   5556   5557   5559     1   109.5600471 388.275200
   5556   5570   5574     1   109.5600471 388.275200
   5556   5570   5575     1   109.5600471 388.275200
   5557   5556   5558     1   109.5600471 388.275200
   5557   5560   5564     1   109.5600471 388.275200
   5557   5569   5572     1   107.2600461 396.643200
   5558   5556   5570     1   109.5600471 388.275200
   5558   5556   5578     1   109.7800468 425.094400
   5559   5557   5560     1   109.5600471 388.275200
   5559   5557   5569     1   110.2600474 425.931200
   5560   5561   5563     1   109.5600471 388.275200
   5560   5568   5571     1   107.2600461 396.643200
   5561   5560   5564     1   109.5600471 388.275200
   5561   5562   5565     1   110.2200475 386.601600
   5561   5567   5573     1   107.2600461 396.643200
   5562   5561   5563     1   109.5600471 388.275200
   5563   5561   5567     1   110.2600474 425.931200
   5564   5560   5568     1   110.2600474 425.931200
   5565   5562   5566     1   109.5800467 425.931200
   5565   5562   5578     1   109.5800467 425.931200
   5570   5576   5577     1   107.2600461 396.643200
   5574   5570   5576     1   110.2600474 425.931200
   5574   5570   5575     1   108.4600466 328.025600
   5575   5570   5576     1   110.2600474 425.931200
   5579   5580   5582     1   109.5600471 388.275200
   5579   5593   5597     1   109.5600471 388.275200
   5579   5593   5598     1   109.5600471 388.275200
   5580   5583   5587     1   109.5600471 388.275200
   5580   5592   5595     1   107.2600461 396.643200
   5580   5579   5581     1   109.5600471 388.275200
   5581   5579   5593     1   109.5600471 388.275200
   5581   5579   5601     1   109.7800468 425.094400
   5582   5580   5583     1   109.5600471 388.275200
   5582   5580   5592     1   110.2600474 425.931200
   5583   5584   5586     1   109.5600471 388.275200
   5583   5591   5594     1   107.2600461 396.643200
   5584   5585   5588     1   110.2200475 386.601600
   5584   5590   5596     1   107.2600461 396.643200
   5584   5583   5587     1   109.5600471 388.275200
   5585   5584   5586     1   109.5600471 388.275200
   5586   5584   5590     1   110.2600474 425.931200
   5587   5583   5591     1   110.2600474 425.931200
   5588   5585   5589     1   109.5800467 425.931200
   5588   5585   5601     1   109.5800467 425.931200
   5593   5599   5600     1   107.2600461 396.643200
   5597   5593   5599     1   110.2600474 425.931200
   5597   5593   5598     1   108.4600466 328.025600
   5598   5593   5599     1   110.2600474 425.931200
   5602   5603   5605     1   109.5600471 388.275200
   5602   5616   5620     1   109.5600471 388.275200
   5602   5616   5621     1   109.5600471 388.275200
   5603   5602   5604     1   109.5600471 388.275200
   5603   5606   5610     1   109.5600471 388.275200
   5603   5615   5618     1   107.2600461 396.643200
   5604   5602   5616     1   109.5600471 388.275200
   5604   5602   5624     1   109.7800468 425.094400
   5605   5603   5606     1   109.5600471 388.275200
   5605   5603   5615     1   110.2600474 425.931200
   5606   5607   5609     1   109.5600471 388.275200
   5606   5614   5617     1   107.2600461 396.643200
   5607   5606   5610     1   109.5600471 388.275200
   5607   5608   5611     1   110.2200475 386.601600
   5607   5613   5619     1   107.2600461 396.643200
   5608   5607   5609     1   109.5600471 388.275200
   5609   5607   5613     1   110.2600474 425.931200
   5610   5606   5614     1   110.2600474 425.931200
   5611   5608   5612     1   109.5800467 425.931200
   5611   5608   5624     1   109.5800467 425.931200
   5616   5622   5623     1   107.2600461 396.643200
   5620   5616   5622     1   110.2600474 425.931200
   5620   5616   5621     1   108.4600466 328.025600
   5621   5616   5622     1   110.2600474 425.931200
   5625   5626   5628     1   109.5600471 388.275200
   5625   5639   5643     1   109.5600471 388.275200
   5625   5639   5644     1   109.5600471 388.275200
   5626   5629   5633     1   109.5600471 388.275200
   5626   5638   5641     1   107.2600461 396.643200
   5626   5625   5627     1   109.5600471 388.275200
   5627   5625   5639     1   109.5600471 388.275200
   5627   5625   5647     1   109.7800468 425.094400
   5628   5626   5629     1   109.5600471 388.275200
   5628   5626   5638     1   110.2600474 425.931200
   5629   5630   5632     1   109.5600471 388.275200
   5629   5637   5640     1   107.2600461 396.643200
   5630   5631   5634     1   110.2200475 386.601600
   5630   5636   5642     1   107.2600461 396.643200
   5630   5629   5633     1   109.5600471 388.275200
   5631   5630   5632     1   109.5600471 388.275200
   5632   5630   5636     1   110.2600474 425.931200
   5633   5629   5637     1   110.2600474 425.931200
   5634   5631   5635     1   109.5800467 425.931200
   5634   5631   5647     1   109.5800467 425.931200
   5639   5645   5646     1   107.2600461 396.643200
   5643   5639   5645     1   110.2600474 425.931200
   5643   5639   5644     1   108.4600466 328.025600
   5644   5639   5645     1   110.2600474 425.931200
   5648   5649   5651     1   109.5600471 388.275200
   5648   5662   5666     1   109.5600471 388.275200
   5648   5662   5667     1   109.5600471 388.275200
   5649   5648   5650     1   109.5600471 388.275200
   5649   5652   5656     1   109.5600471 388.275200
   5649   5661   5664     1   107.2600461 396.643200
   5650   5648   5662     1   109.5600471 388.275200
   5650   5648   5670     1   109.7800468 425.094400
   5651   5649   5652     1   109.5600471 388.275200
   5651   5649   5661     1   110.2600474 425.931200
   5652   5653   5655     1   109.5600471 388.275200
   5652   5660   5663     1   107.2600461 396.643200
   5653   5652   5656     1   109.5600471 388.275200
   5653   5654   5657     1   110.2200475 386.601600
   5653   5659   5665     1   107.2600461 396.643200
   5654   5653   5655     1   109.5600471 388.275200
   5655   5653   5659     1   110.2600474 425.931200
   5656   5652   5660     1   110.2600474 425.931200
   5657   5654   5658     1   109.5800467 425.931200
   5657   5654   5670     1   109.5800467 425.931200
   5662   5668   5669     1   107.2600461 396.643200
   5666   5662   5668     1   110.2600474 425.931200
   5666   5662   5667     1   108.4600466 328.025600
   5667   5662   5668     1   110.2600474 425.931200
   5671   5672   5674     1   109.5600471 388.275200
   5671   5685   5689     1   109.5600471 388.275200
   5671   5685   5690     1   109.5600471 388.275200
   5672   5675   5679     1   109.5600471 388.275200
   5672   5684   5687     1   107.2600461 396.643200
   5672   5671   5673     1   109.5600471 388.275200
   5673   5671   5685     1   109.5600471 388.275200
   5673   5671   5693     1   109.7800468 425.094400
   5674   5672   5675     1   109.5600471 388.275200
   5674   5672   5684     1   110.2600474 425.931200
   5675   5676   5678     1   109.5600471 388.275200
   5675   5683   5686     1   107.2600461 396.643200
   5676   5677   5680     1   110.2200475 386.601600
   5676   5682   5688     1   107.2600461 396.643200
   5676   5675   5679     1   109.5600471 388.275200
   5677   5676   5678     1   109.5600471 388.275200
   5678   5676   5682     1   110.2600474 425.931200
   5679   5675   5683     1   110.2600474 425.931200
   5680   5677   5681     1   109.5800467 425.931200
   5680   5677   5693     1   109.5800467 425.931200
   5685   5691   5692     1   107.2600461 396.643200
   5689   5685   5691     1   110.2600474 425.931200
   5689   5685   5690     1   108.4600466 328.025600
   5690   5685   5691     1   110.2600474 425.931200
   5694   5695   5697     1   109.5600471 388.275200
   5694   5708   5712     1   109.5600471 388.275200
   5694   5708   5713     1   109.5600471 388.275200
   5695   5694   5696     1   109.5600471 388.275200
   5695   5698   5702     1   109.5600471 388.275200
   5695   5707   5710     1   107.2600461 396.643200
   5696   5694   5708     1   109.5600471 388.275200
   5696   5694   5716     1   109.7800468 425.094400
   5697   5695   5698     1   109.5600471 388.275200
   5697   5695   5707     1   110.2600474 425.931200
   5698   5699   5701     1   109.5600471 388.275200
   5698   5706   5709     1   107.2600461 396.643200
   5699   5698   5702     1   109.5600471 388.275200
   5699   5700   5703     1   110.2200475 386.601600
   5699   5705   5711     1   107.2600461 396.643200
   5700   5699   5701     1   109.5600471 388.275200
   5701   5699   5705     1   110.2600474 425.931200
   5702   5698   5706     1   110.2600474 425.931200
   5703   5700   5704     1   109.5800467 425.931200
   5703   5700   5716     1   109.5800467 425.931200
   5708   5714   5715     1   107.2600461 396.643200
   5712   5708   5714     1   110.2600474 425.931200
   5712   5708   5713     1   108.4600466 328.025600
   5713   5708   5714     1   110.2600474 425.931200
   5717   5718   5720     1   109.5600471 388.275200
   5717   5731   5735     1   109.5600471 388.275200
   5717   5731   5736     1   109.5600471 388.275200
   5718   5721   5725     1   109.5600471 388.275200
   5718   5730   5733     1   107.2600461 396.643200
   5718   5717   5719     1   109.5600471 388.275200
   5719   5717   5731     1   109.5600471 388.275200
   5719   5717   5739     1   109.7800468 425.094400
   5720   5718   5721     1   109.5600471 388.275200
   5720   5718   5730     1   110.2600474 425.931200
   5721   5722   5724     1   109.5600471 388.275200
   5721   5729   5732     1   107.2600461 396.643200
   5722   5723   5726     1   110.2200475 386.601600
   5722   5728   5734     1   107.2600461 396.643200
   5722   5721   5725     1   109.5600471 388.275200
   5723   5722   5724     1   109.5600471 388.275200
   5724   5722   5728     1   110.2600474 425.931200
   5725   5721   5729     1   110.2600474 425.931200
   5726   5723   5727     1   109.5800467 425.931200
   5726   5723   5739     1   109.5800467 425.931200
   5731   5737   5738     1   107.2600461 396.643200
   5735   5731   5737     1   110.2600474 425.931200
   5735   5731   5736     1   108.4600466 328.025600
   5736   5731   5737     1   110.2600474 425.931200
   5740   5741   5743     1   109.5600471 388.275200
   5740   5754   5758     1   109.5600471 388.275200
   5740   5754   5759     1   109.5600471 388.275200
   5741   5740   5742     1   109.5600471 388.275200
   5741   5744   5748     1   109.5600471 388.275200
   5741   5753   5756     1   107.2600461 396.643200
   5742   5740   5754     1   109.5600471 388.275200
   5742   5740   5762     1   109.7800468 425.094400
   5743   5741   5744     1   109.5600471 388.275200
   5743   5741   5753     1   110.2600474 425.931200
   5744   5745   5747     1   109.5600471 388.275200
   5744   5752   5755     1   107.2600461 396.643200
   5745   5744   5748     1   109.5600471 388.275200
   5745   5746   5749     1   110.2200475 386.601600
   5745   5751   5757     1   107.2600461 396.643200
   5746   5745   5747     1   109.5600471 388.275200
   5747   5745   5751     1   110.2600474 425.931200
   5748   5744   5752     1   110.2600474 425.931200
   5749   5746   5750     1   109.5800467 425.931200
   5749   5746   5762     1   109.5800467 425.931200
   5754   5760   5761     1   107.2600461 396.643200
   5758   5754   5760     1   110.2600474 425.931200
   5758   5754   5759     1   108.4600466 328.025600
   5759   5754   5760     1   110.2600474 425.931200
   5763   5764   5766     1   109.5600471 388.275200
   5763   5777   5781     1   109.5600471 388.275200
   5763   5777   5782     1   109.5600471 388.275200
   5764   5767   5771     1   109.5600471 388.275200
   5764   5776   5779     1   107.2600461 396.643200
   5764   5763   5765     1   109.5600471 388.275200
   5765   5763   5777     1   109.5600471 388.275200
   5765   5763   5785     1   109.7800468 425.094400
   5766   5764   5767     1   109.5600471 388.275200
   5766   5764   5776     1   110.2600474 425.931200
   5767   5768   5770     1   109.5600471 388.275200
   5767   5775   5778     1   107.2600461 396.643200
   5768   5769   5772     1   110.2200475 386.601600
   5768   5774   5780     1   107.2600461 396.643200
   5768   5767   5771     1   109.5600471 388.275200
   5769   5768   5770     1   109.5600471 388.275200
   5770   5768   5774     1   110.2600474 425.931200
   5771   5767   5775     1   110.2600474 425.931200
   5772   5769   5773     1   109.5800467 425.931200
   5772   5769   5785     1   109.5800467 425.931200
   5777   5783   5784     1   107.2600461 396.643200
   5781   5777   5783     1   110.2600474 425.931200
   5781   5777   5782     1   108.4600466 328.025600
   5782   5777   5783     1   110.2600474 425.931200
   5786   5787   5789     1   109.5600471 388.275200
   5786   5800   5804     1   109.5600471 388.275200
   5786   5800   5805     1   109.5600471 388.275200
   5787   5786   5788     1   109.5600471 388.275200
   5787   5790   5794     1   109.5600471 388.275200
   5787   5799   5802     1   107.2600461 396.643200
   5788   5786   5800     1   109.5600471 388.275200
   5788   5786   5808     1   109.7800468 425.094400
   5789   5787   5790     1   109.5600471 388.275200
   5789   5787   5799     1   110.2600474 425.931200
   5790   5791   5793     1   109.5600471 388.275200
   5790   5798   5801     1   107.2600461 396.643200
   5791   5790   5794     1   109.5600471 388.275200
   5791   5792   5795     1   110.2200475 386.601600
   5791   5797   5803     1   107.2600461 396.643200
   5792   5791   5793     1   109.5600471 388.275200
   5793   5791   5797     1   110.2600474 425.931200
   5794   5790   5798     1   110.2600474 425.931200
   5795   5792   5796     1   109.5800467 425.931200
   5795   5792   5808     1   109.5800467 425.931200
   5800   5806   5807     1   107.2600461 396.643200
   5804   5800   5806     1   110.2600474 425.931200
   5804   5800   5805     1   108.4600466 328.025600
   5805   5800   5806     1   110.2600474 425.931200
   5809   5810   5812     1   109.5600471 388.275200
   5809   5823   5827     1   109.5600471 388.275200
   5809   5823   5828     1   109.5600471 388.275200
   5810   5813   5817     1   109.5600471 388.275200
   5810   5822   5825     1   107.2600461 396.643200
   5810   5809   5811     1   109.5600471 388.275200
   5811   5809   5823     1   109.5600471 388.275200
   5811   5809   5831     1   109.7800468 425.094400
   5812   5810   5813     1   109.5600471 388.275200
   5812   5810   5822     1   110.2600474 425.931200
   5813   5814   5816     1   109.5600471 388.275200
   5813   5821   5824     1   107.2600461 396.643200
   5814   5815   5818     1   110.2200475 386.601600
   5814   5820   5826     1   107.2600461 396.643200
   5814   5813   5817     1   109.5600471 388.275200
   5815   5814   5816     1   109.5600471 388.275200
   5816   5814   5820     1   110.2600474 425.931200
   5817   5813   5821     1   110.2600474 425.931200
   5818   5815   5819     1   109.5800467 425.931200
   5818   5815   5831     1   109.5800467 425.931200
   5823   5829   5830     1   107.2600461 396.643200
   5827   5823   5829     1   110.2600474 425.931200
   5827   5823   5828     1   108.4600466 328.025600
   5828   5823   5829     1   110.2600474 425.931200
   5832   5833   5835     1   109.5600471 388.275200
   5832   5846   5850     1   109.5600471 388.275200
   5832   5846   5851     1   109.5600471 388.275200
   5833   5832   5834     1   109.5600471 388.275200
   5833   5836   5840     1   109.5600471 388.275200
   5833   5845   5848     1   107.2600461 396.643200
   5834   5832   5846     1   109.5600471 388.275200
   5834   5832   5854     1   109.7800468 425.094400
   5835   5833   5836     1   109.5600471 388.275200
   5835   5833   5845     1   110.2600474 425.931200
   5836   5837   5839     1   109.5600471 388.275200
   5836   5844   5847     1   107.2600461 396.643200
   5837   5836   5840     1   109.5600471 388.275200
   5837   5838   5841     1   110.2200475 386.601600
   5837   5843   5849     1   107.2600461 396.643200
   5838   5837   5839     1   109.5600471 388.275200
   5839   5837   5843     1   110.2600474 425.931200
   5840   5836   5844     1   110.2600474 425.931200
   5841   5838   5842     1   109.5800467 425.931200
   5841   5838   5854     1   109.5800467 425.931200
   5846   5852   5853     1   107.2600461 396.643200
   5850   5846   5852     1   110.2600474 425.931200
   5850   5846   5851     1   108.4600466 328.025600
   5851   5846   5852     1   110.2600474 425.931200
   5855   5856   5858     1   109.5600471 388.275200
   5855   5869   5873     1   109.5600471 388.275200
   5855   5869   5874     1   109.5600471 388.275200
   5856   5859   5863     1   109.5600471 388.275200
   5856   5868   5871     1   107.2600461 396.643200
   5856   5855   5857     1   109.5600471 388.275200
   5857   5855   5869     1   109.5600471 388.275200
   5857   5855   5877     1   109.7800468 425.094400
   5858   5856   5859     1   109.5600471 388.275200
   5858   5856   5868     1   110.2600474 425.931200
   5859   5860   5862     1   109.5600471 388.275200
   5859   5867   5870     1   107.2600461 396.643200
   5860   5861   5864     1   110.2200475 386.601600
   5860   5866   5872     1   107.2600461 396.643200
   5860   5859   5863     1   109.5600471 388.275200
   5861   5860   5862     1   109.5600471 388.275200
   5862   5860   5866     1   110.2600474 425.931200
   5863   5859   5867     1   110.2600474 425.931200
   5864   5861   5865     1   109.5800467 425.931200
   5864   5861   5877     1   109.5800467 425.931200
   5869   5875   5876     1   107.2600461 396.643200
   5873   5869   5875     1   110.2600474 425.931200
   5873   5869   5874     1   108.4600466 328.025600
   5874   5869   5875     1   110.2600474 425.931200
   5878   5879   5881     1   109.5600471 388.275200
   5878   5892   5896     1   109.5600471 388.275200
   5878   5892   5897     1   109.5600471 388.275200
   5879   5878   5880     1   109.5600471 388.275200
   5879   5882   5886     1   109.5600471 388.275200
   5879   5891   5894     1   107.2600461 396.643200
   5880   5878   5892     1   109.5600471 388.275200
   5880   5878   5900     1   109.7800468 425.094400
   5881   5879   5882     1   109.5600471 388.275200
   5881   5879   5891     1   110.2600474 425.931200
   5882   5883   5885     1   109.5600471 388.275200
   5882   5890   5893     1   107.2600461 396.643200
   5883   5882   5886     1   109.5600471 388.275200
   5883   5884   5887     1   110.2200475 386.601600
   5883   5889   5895     1   107.2600461 396.643200
   5884   5883   5885     1   109.5600471 388.275200
   5885   5883   5889     1   110.2600474 425.931200
   5886   5882   5890     1   110.2600474 425.931200
   5887   5884   5888     1   109.5800467 425.931200
   5887   5884   5900     1   109.5800467 425.931200
   5892   5898   5899     1   107.2600461 396.643200
   5896   5892   5898     1   110.2600474 425.931200
   5896   5892   5897     1   108.4600466 328.025600
   5897   5892   5898     1   110.2600474 425.931200
   5901   5902   5904     1   109.5600471 388.275200
   5901   5915   5919     1   109.5600471 388.275200
   5901   5915   5920     1   109.5600471 388.275200
   5902   5905   5909     1   109.5600471 388.275200
   5902   5914   5917     1   107.2600461 396.643200
   5902   5901   5903     1   109.5600471 388.275200
   5903   5901   5915     1   109.5600471 388.275200
   5903   5901   5923     1   109.7800468 425.094400
   5904   5902   5905     1   109.5600471 388.275200
   5904   5902   5914     1   110.2600474 425.931200
   5905   5906   5908     1   109.5600471 388.275200
   5905   5913   5916     1   107.2600461 396.643200
   5906   5907   5910     1   110.2200475 386.601600
   5906   5912   5918     1   107.2600461 396.643200
   5906   5905   5909     1   109.5600471 388.275200
   5907   5906   5908     1   109.5600471 388.275200
   5908   5906   5912     1   110.2600474 425.931200
   5909   5905   5913     1   110.2600474 425.931200
   5910   5907   5911     1   109.5800467 425.931200
   5910   5907   5923     1   109.5800467 425.931200
   5915   5921   5922     1   107.2600461 396.643200
   5919   5915   5921     1   110.2600474 425.931200
   5919   5915   5920     1   108.4600466 328.025600
   5920   5915   5921     1   110.2600474 425.931200
   5924   5925   5927     1   109.5600471 388.275200
   5924   5938   5942     1   109.5600471 388.275200
   5924   5938   5943     1   109.5600471 388.275200
   5925   5924   5926     1   109.5600471 388.275200
   5925   5928   5932     1   109.5600471 388.275200
   5925   5937   5940     1   107.2600461 396.643200
   5926   5924   5938     1   109.5600471 388.275200
   5926   5924   5946     1   109.7800468 425.094400
   5927   5925   5928     1   109.5600471 388.275200
   5927   5925   5937     1   110.2600474 425.931200
   5928   5929   5931     1   109.5600471 388.275200
   5928   5936   5939     1   107.2600461 396.643200
   5929   5928   5932     1   109.5600471 388.275200
   5929   5930   5933     1   110.2200475 386.601600
   5929   5935   5941     1   107.2600461 396.643200
   5930   5929   5931     1   109.5600471 388.275200
   5931   5929   5935     1   110.2600474 425.931200
   5932   5928   5936     1   110.2600474 425.931200
   5933   5930   5934     1   109.5800467 425.931200
   5933   5930   5946     1   109.5800467 425.931200
   5938   5944   5945     1   107.2600461 396.643200
   5942   5938   5944     1   110.2600474 425.931200
   5942   5938   5943     1   108.4600466 328.025600
   5943   5938   5944     1   110.2600474 425.931200
   5947   5948   5950     1   109.5600471 388.275200
   5947   5961   5965     1   109.5600471 388.275200
   5947   5961   5966     1   109.5600471 388.275200
   5948   5951   5955     1   109.5600471 388.275200
   5948   5960   5963     1   107.2600461 396.643200
   5948   5947   5949     1   109.5600471 388.275200
   5949   5947   5961     1   109.5600471 388.275200
   5949   5947   5969     1   109.7800468 425.094400
   5950   5948   5951     1   109.5600471 388.275200
   5950   5948   5960     1   110.2600474 425.931200
   5951   5952   5954     1   109.5600471 388.275200
   5951   5959   5962     1   107.2600461 396.643200
   5952   5953   5956     1   110.2200475 386.601600
   5952   5958   5964     1   107.2600461 396.643200
   5952   5951   5955     1   109.5600471 388.275200
   5953   5952   5954     1   109.5600471 388.275200
   5954   5952   5958     1   110.2600474 425.931200
   5955   5951   5959     1   110.2600474 425.931200
   5956   5953   5957     1   109.5800467 425.931200
   5956   5953   5969     1   109.5800467 425.931200
   5961   5967   5968     1   107.2600461 396.643200
   5965   5961   5967     1   110.2600474 425.931200
   5965   5961   5966     1   108.4600466 328.025600
   5966   5961   5967     1   110.2600474 425.931200
   5970   5971   5973     1   109.5600471 388.275200
   5970   5984   5988     1   109.5600471 388.275200
   5970   5984   5989     1   109.5600471 388.275200
   5971   5970   5972     1   109.5600471 388.275200
   5971   5974   5978     1   109.5600471 388.275200
   5971   5983   5986     1   107.2600461 396.643200
   5972   5970   5984     1   109.5600471 388.275200
   5972   5970   5992     1   109.7800468 425.094400
   5973   5971   5974     1   109.5600471 388.275200
   5973   5971   5983     1   110.2600474 425.931200
   5974   5975   5977     1   109.5600471 388.275200
   5974   5982   5985     1   107.2600461 396.643200
   5975   5974   5978     1   109.5600471 388.275200
   5975   5976   5979     1   110.2200475 386.601600
   5975   5981   5987     1   107.2600461 396.643200
   5976   5975   5977     1   109.5600471 388.275200
   5977   5975   5981     1   110.2600474 425.931200
   5978   5974   5982     1   110.2600474 425.931200
   5979   5976   5980     1   109.5800467 425.931200
   5979   5976   5992     1   109.5800467 425.931200
   5984   5990   5991     1   107.2600461 396.643200
   5988   5984   5990     1   110.2600474 425.931200
   5988   5984   5989     1   108.4600466 328.025600
   5989   5984   5990     1   110.2600474 425.931200
   5993   5994   5996     1   109.5600471 388.275200
   5993   6007   6011     1   109.5600471 388.275200
   5993   6007   6012     1   109.5600471 388.275200
   5994   5997   6001     1   109.5600471 388.275200
   5994   6006   6009     1   107.2600461 396.643200
   5994   5993   5995     1   109.5600471 388.275200
   5995   5993   6007     1   109.5600471 388.275200
   5995   5993   6015     1   109.7800468 425.094400
   5996   5994   5997     1   109.5600471 388.275200
   5996   5994   6006     1   110.2600474 425.931200
   5997   5998   6000     1   109.5600471 388.275200
   5997   6005   6008     1   107.2600461 396.643200
   5998   5999   6002     1   110.2200475 386.601600
   5998   6004   6010     1   107.2600461 396.643200
   5998   5997   6001     1   109.5600471 388.275200
   5999   5998   6000     1   109.5600471 388.275200
   6000   5998   6004     1   110.2600474 425.931200
   6001   5997   6005     1   110.2600474 425.931200
   6002   5999   6003     1   109.5800467 425.931200
   6002   5999   6015     1   109.5800467 425.931200
   6007   6013   6014     1   107.2600461 396.643200
   6011   6007   6013     1   110.2600474 425.931200
   6011   6007   6012     1   108.4600466 328.025600
   6012   6007   6013     1   110.2600474 425.931200
   6016   6017   6019     1   109.5600471 388.275200
   6016   6030   6034     1   109.5600471 388.275200
   6016   6030   6035     1   109.5600471 388.275200
   6017   6016   6018     1   109.5600471 388.275200
   6017   6020   6024     1   109.5600471 388.275200
   6017   6029   6032     1   107.2600461 396.643200
   6018   6016   6030     1   109.5600471 388.275200
   6018   6016   6038     1   109.7800468 425.094400
   6019   6017   6020     1   109.5600471 388.275200
   6019   6017   6029     1   110.2600474 425.931200
   6020   6021   6023     1   109.5600471 388.275200
   6020   6028   6031     1   107.2600461 396.643200
   6021   6020   6024     1   109.5600471 388.275200
   6021   6022   6025     1   110.2200475 386.601600
   6021   6027   6033     1   107.2600461 396.643200
   6022   6021   6023     1   109.5600471 388.275200
   6023   6021   6027     1   110.2600474 425.931200
   6024   6020   6028     1   110.2600474 425.931200
   6025   6022   6026     1   109.5800467 425.931200
   6025   6022   6038     1   109.5800467 425.931200
   6030   6036   6037     1   107.2600461 396.643200
   6034   6030   6036     1   110.2600474 425.931200
   6034   6030   6035     1   108.4600466 328.025600
   6035   6030   6036     1   110.2600474 425.931200
   6039   6040   6042     1   109.5600471 388.275200
   6039   6053   6057     1   109.5600471 388.275200
   6039   6053   6058     1   109.5600471 388.275200
   6040   6043   6047     1   109.5600471 388.275200
   6040   6052   6055     1   107.2600461 396.643200
   6040   6039   6041     1   109.5600471 388.275200
   6041   6039   6053     1   109.5600471 388.275200
   6041   6039   6061     1   109.7800468 425.094400
   6042   6040   6043     1   109.5600471 388.275200
   6042   6040   6052     1   110.2600474 425.931200
   6043   6044   6046     1   109.5600471 388.275200
   6043   6051   6054     1   107.2600461 396.643200
   6044   6045   6048     1   110.2200475 386.601600
   6044   6050   6056     1   107.2600461 396.643200
   6044   6043   6047     1   109.5600471 388.275200
   6045   6044   6046     1   109.5600471 388.275200
   6046   6044   6050     1   110.2600474 425.931200
   6047   6043   6051     1   110.2600474 425.931200
   6048   6045   6049     1   109.5800467 425.931200
   6048   6045   6061     1   109.5800467 425.931200
   6053   6059   6060     1   107.2600461 396.643200
   6057   6053   6059     1   110.2600474 425.931200
   6057   6053   6058     1   108.4600466 328.025600
   6058   6053   6059     1   110.2600474 425.931200
   6062   6063   6065     1   109.5600471 388.275200
   6062   6076   6080     1   109.5600471 388.275200
   6062   6076   6081     1   109.5600471 388.275200
   6063   6062   6064     1   109.5600471 388.275200
   6063   6066   6070     1   109.5600471 388.275200
   6063   6075   6078     1   107.2600461 396.643200
   6064   6062   6076     1   109.5600471 388.275200
   6064   6062   6084     1   109.7800468 425.094400
   6065   6063   6066     1   109.5600471 388.275200
   6065   6063   6075     1   110.2600474 425.931200
   6066   6067   6069     1   109.5600471 388.275200
   6066   6074   6077     1   107.2600461 396.643200
   6067   6066   6070     1   109.5600471 388.275200
   6067   6068   6071     1   110.2200475 386.601600
   6067   6073   6079     1   107.2600461 396.643200
   6068   6067   6069     1   109.5600471 388.275200
   6069   6067   6073     1   110.2600474 425.931200
   6070   6066   6074     1   110.2600474 425.931200
   6071   6068   6072     1   109.5800467 425.931200
   6071   6068   6084     1   109.5800467 425.931200
   6076   6082   6083     1   107.2600461 396.643200
   6080   6076   6082     1   110.2600474 425.931200
   6080   6076   6081     1   108.4600466 328.025600
   6081   6076   6082     1   110.2600474 425.931200
   6085   6086   6088     1   109.5600471 388.275200
   6085   6099   6103     1   109.5600471 388.275200
   6085   6099   6104     1   109.5600471 388.275200
   6086   6089   6093     1   109.5600471 388.275200
   6086   6098   6101     1   107.2600461 396.643200
   6086   6085   6087     1   109.5600471 388.275200
   6087   6085   6099     1   109.5600471 388.275200
   6087   6085   6107     1   109.7800468 425.094400
   6088   6086   6089     1   109.5600471 388.275200
   6088   6086   6098     1   110.2600474 425.931200
   6089   6090   6092     1   109.5600471 388.275200
   6089   6097   6100     1   107.2600461 396.643200
   6090   6091   6094     1   110.2200475 386.601600
   6090   6096   6102     1   107.2600461 396.643200
   6090   6089   6093     1   109.5600471 388.275200
   6091   6090   6092     1   109.5600471 388.275200
   6092   6090   6096     1   110.2600474 425.931200
   6093   6089   6097     1   110.2600474 425.931200
   6094   6091   6095     1   109.5800467 425.931200
   6094   6091   6107     1   109.5800467 425.931200
   6099   6105   6106     1   107.2600461 396.643200
   6103   6099   6105     1   110.2600474 425.931200
   6103   6099   6104     1   108.4600466 328.025600
   6104   6099   6105     1   110.2600474 425.931200
   6108   6109   6111     1   109.5600471 388.275200
   6108   6122   6126     1   109.5600471 388.275200
   6108   6122   6127     1   109.5600471 388.275200
   6109   6108   6110     1   109.5600471 388.275200
   6109   6112   6116     1   109.5600471 388.275200
   6109   6121   6124     1   107.2600461 396.643200
   6110   6108   6122     1   109.5600471 388.275200
   6110   6108   6130     1   109.7800468 425.094400
   6111   6109   6112     1   109.5600471 388.275200
   6111   6109   6121     1   110.2600474 425.931200
   6112   6113   6115     1   109.5600471 388.275200
   6112   6120   6123     1   107.2600461 396.643200
   6113   6112   6116     1   109.5600471 388.275200
   6113   6114   6117     1   110.2200475 386.601600
   6113   6119   6125     1   107.2600461 396.643200
   6114   6113   6115     1   109.5600471 388.275200
   6115   6113   6119     1   110.2600474 425.931200
   6116   6112   6120     1   110.2600474 425.931200
   6117   6114   6118     1   109.5800467 425.931200
   6117   6114   6130     1   109.5800467 425.931200
   6122   6128   6129     1   107.2600461 396.643200
   6126   6122   6128     1   110.2600474 425.931200
   6126   6122   6127     1   108.4600466 328.025600
   6127   6122   6128     1   110.2600474 425.931200
   6131   6132   6134     1   109.5600471 388.275200
   6131   6145   6149     1   109.5600471 388.275200
   6131   6145   6150     1   109.5600471 388.275200
   6132   6135   6139     1   109.5600471 388.275200
   6132   6144   6147     1   107.2600461 396.643200
   6132   6131   6133     1   109.5600471 388.275200
   6133   6131   6145     1   109.5600471 388.275200
   6133   6131   6153     1   109.7800468 425.094400
   6134   6132   6135     1   109.5600471 388.275200
   6134   6132   6144     1   110.2600474 425.931200
   6135   6136   6138     1   109.5600471 388.275200
   6135   6143   6146     1   107.2600461 396.643200
   6136   6137   6140     1   110.2200475 386.601600
   6136   6142   6148     1   107.2600461 396.643200
   6136   6135   6139     1   109.5600471 388.275200
   6137   6136   6138     1   109.5600471 388.275200
   6138   6136   6142     1   110.2600474 425.931200
   6139   6135   6143     1   110.2600474 425.931200
   6140   6137   6141     1   109.5800467 425.931200
   6140   6137   6153     1   109.5800467 425.931200
   6145   6151   6152     1   107.2600461 396.643200
   6149   6145   6151     1   110.2600474 425.931200
   6149   6145   6150     1   108.4600466 328.025600
   6150   6145   6151     1   110.2600474 425.931200
   6154   6155   6157     1   109.5600471 388.275200
   6154   6168   6172     1   109.5600471 388.275200
   6154   6168   6173     1   109.5600471 388.275200
   6155   6154   6156     1   109.5600471 388.275200
   6155   6158   6162     1   109.5600471 388.275200
   6155   6167   6170     1   107.2600461 396.643200
   6156   6154   6168     1   109.5600471 388.275200
   6156   6154   6176     1   109.7800468 425.094400
   6157   6155   6158     1   109.5600471 388.275200
   6157   6155   6167     1   110.2600474 425.931200
   6158   6159   6161     1   109.5600471 388.275200
   6158   6166   6169     1   107.2600461 396.643200
   6159   6158   6162     1   109.5600471 388.275200
   6159   6160   6163     1   110.2200475 386.601600
   6159   6165   6171     1   107.2600461 396.643200
   6160   6159   6161     1   109.5600471 388.275200
   6161   6159   6165     1   110.2600474 425.931200
   6162   6158   6166     1   110.2600474 425.931200
   6163   6160   6164     1   109.5800467 425.931200
   6163   6160   6176     1   109.5800467 425.931200
   6168   6174   6175     1   107.2600461 396.643200
   6172   6168   6174     1   110.2600474 425.931200
   6172   6168   6173     1   108.4600466 328.025600
   6173   6168   6174     1   110.2600474 425.931200
   6177   6178   6180     1   109.5600471 388.275200
   6177   6191   6195     1   109.5600471 388.275200
   6177   6191   6196     1   109.5600471 388.275200
   6178   6181   6185     1   109.5600471 388.275200
   6178   6190   6193     1   107.2600461 396.643200
   6178   6177   6179     1   109.5600471 388.275200
   6179   6177   6191     1   109.5600471 388.275200
   6179   6177   6199     1   109.7800468 425.094400
   6180   6178   6181     1   109.5600471 388.275200
   6180   6178   6190     1   110.2600474 425.931200
   6181   6182   6184     1   109.5600471 388.275200
   6181   6189   6192     1   107.2600461 396.643200
   6182   6183   6186     1   110.2200475 386.601600
   6182   6188   6194     1   107.2600461 396.643200
   6182   6181   6185     1   109.5600471 388.275200
   6183   6182   6184     1   109.5600471 388.275200
   6184   6182   6188     1   110.2600474 425.931200
   6185   6181   6189     1   110.2600474 425.931200
   6186   6183   6187     1   109.5800467 425.931200
   6186   6183   6199     1   109.5800467 425.931200
   6191   6197   6198     1   107.2600461 396.643200
   6195   6191   6197     1   110.2600474 425.931200
   6195   6191   6196     1   108.4600466 328.025600
   6196   6191   6197     1   110.2600474 425.931200
   6200   6201   6203     1   109.5600471 388.275200
   6200   6214   6218     1   109.5600471 388.275200
   6200   6214   6219     1   109.5600471 388.275200
   6201   6200   6202     1   109.5600471 388.275200
   6201   6204   6208     1   109.5600471 388.275200
   6201   6213   6216     1   107.2600461 396.643200
   6202   6200   6214     1   109.5600471 388.275200
   6202   6200   6222     1   109.7800468 425.094400
   6203   6201   6204     1   109.5600471 388.275200
   6203   6201   6213     1   110.2600474 425.931200
   6204   6205   6207     1   109.5600471 388.275200
   6204   6212   6215     1   107.2600461 396.643200
   6205   6204   6208     1   109.5600471 388.275200
   6205   6206   6209     1   110.2200475 386.601600
   6205   6211   6217     1   107.2600461 396.643200
   6206   6205   6207     1   109.5600471 388.275200
   6207   6205   6211     1   110.2600474 425.931200
   6208   6204   6212     1   110.2600474 425.931200
   6209   6206   6210     1   109.5800467 425.931200
   6209   6206   6222     1   109.5800467 425.931200
   6214   6220   6221     1   107.2600461 396.643200
   6218   6214   6220     1   110.2600474 425.931200
   6218   6214   6219     1   108.4600466 328.025600
   6219   6214   6220     1   110.2600474 425.931200
   6223   6224   6226     1   109.5600471 388.275200
   6223   6237   6241     1   109.5600471 388.275200
   6223   6237   6242     1   109.5600471 388.275200
   6224   6227   6231     1   109.5600471 388.275200
   6224   6236   6239     1   107.2600461 396.643200
   6224   6223   6225     1   109.5600471 388.275200
   6225   6223   6237     1   109.5600471 388.275200
   6225   6223   6245     1   109.7800468 425.094400
   6226   6224   6227     1   109.5600471 388.275200
   6226   6224   6236     1   110.2600474 425.931200
   6227   6228   6230     1   109.5600471 388.275200
   6227   6235   6238     1   107.2600461 396.643200
   6228   6229   6232     1   110.2200475 386.601600
   6228   6234   6240     1   107.2600461 396.643200
   6228   6227   6231     1   109.5600471 388.275200
   6229   6228   6230     1   109.5600471 388.275200
   6230   6228   6234     1   110.2600474 425.931200
   6231   6227   6235     1   110.2600474 425.931200
   6232   6229   6233     1   109.5800467 425.931200
   6232   6229   6245     1   109.5800467 425.931200
   6237   6243   6244     1   107.2600461 396.643200
   6241   6237   6243     1   110.2600474 425.931200
   6241   6237   6242     1   108.4600466 328.025600
   6242   6237   6243     1   110.2600474 425.931200
   6246   6247   6249     1   109.5600471 388.275200
   6246   6260   6264     1   109.5600471 388.275200
   6246   6260   6265     1   109.5600471 388.275200
   6247   6246   6248     1   109.5600471 388.275200
   6247   6250   6254     1   109.5600471 388.275200
   6247   6259   6262     1   107.2600461 396.643200
   6248   6246   6260     1   109.5600471 388.275200
   6248   6246   6268     1   109.7800468 425.094400
   6249   6247   6250     1   109.5600471 388.275200
   6249   6247   6259     1   110.2600474 425.931200
   6250   6251   6253     1   109.5600471 388.275200
   6250   6258   6261     1   107.2600461 396.643200
   6251   6250   6254     1   109.5600471 388.275200
   6251   6252   6255     1   110.2200475 386.601600
   6251   6257   6263     1   107.2600461 396.643200
   6252   6251   6253     1   109.5600471 388.275200
   6253   6251   6257     1   110.2600474 425.931200
   6254   6250   6258     1   110.2600474 425.931200
   6255   6252   6256     1   109.5800467 425.931200
   6255   6252   6268     1   109.5800467 425.931200
   6260   6266   6267     1   107.2600461 396.643200
   6264   6260   6266     1   110.2600474 425.931200
   6264   6260   6265     1   108.4600466 328.025600
   6265   6260   6266     1   110.2600474 425.931200
   6269   6270   6272     1   109.5600471 388.275200
   6269   6283   6287     1   109.5600471 388.275200
   6269   6283   6288     1   109.5600471 388.275200
   6270   6273   6277     1   109.5600471 388.275200
   6270   6282   6285     1   107.2600461 396.643200
   6270   6269   6271     1   109.5600471 388.275200
   6271   6269   6283     1   109.5600471 388.275200
   6271   6269   6291     1   109.7800468 425.094400
   6272   6270   6273     1   109.5600471 388.275200
   6272   6270   6282     1   110.2600474 425.931200
   6273   6274   6276     1   109.5600471 388.275200
   6273   6281   6284     1   107.2600461 396.643200
   6274   6275   6278     1   110.2200475 386.601600
   6274   6280   6286     1   107.2600461 396.643200
   6274   6273   6277     1   109.5600471 388.275200
   6275   6274   6276     1   109.5600471 388.275200
   6276   6274   6280     1   110.2600474 425.931200
   6277   6273   6281     1   110.2600474 425.931200
   6278   6275   6279     1   109.5800467 425.931200
   6278   6275   6291     1   109.5800467 425.931200
   6283   6289   6290     1   107.2600461 396.643200
   6287   6283   6289     1   110.2600474 425.931200
   6287   6283   6288     1   108.4600466 328.025600
   6288   6283   6289     1   110.2600474 425.931200
   6292   6293   6295     1   109.5600471 388.275200
   6292   6306   6310     1   109.5600471 388.275200
   6292   6306   6311     1   109.5600471 388.275200
   6293   6292   6294     1   109.5600471 388.275200
   6293   6296   6300     1   109.5600471 388.275200
   6293   6305   6308     1   107.2600461 396.643200
   6294   6292   6306     1   109.5600471 388.275200
   6294   6292   6314     1   109.7800468 425.094400
   6295   6293   6296     1   109.5600471 388.275200
   6295   6293   6305     1   110.2600474 425.931200
   6296   6297   6299     1   109.5600471 388.275200
   6296   6304   6307     1   107.2600461 396.643200
   6297   6296   6300     1   109.5600471 388.275200
   6297   6298   6301     1   110.2200475 386.601600
   6297   6303   6309     1   107.2600461 396.643200
   6298   6297   6299     1   109.5600471 388.275200
   6299   6297   6303     1   110.2600474 425.931200
   6300   6296   6304     1   110.2600474 425.931200
   6301   6298   6302     1   109.5800467 425.931200
   6301   6298   6314     1   109.5800467 425.931200
   6306   6312   6313     1   107.2600461 396.643200
   6310   6306   6312     1   110.2600474 425.931200
   6310   6306   6311     1   108.4600466 328.025600
   6311   6306   6312     1   110.2600474 425.931200
   6315   6316   6318     1   109.5600471 388.275200
   6315   6329   6333     1   109.5600471 388.275200
   6315   6329   6334     1   109.5600471 388.275200
   6316   6319   6323     1   109.5600471 388.275200
   6316   6328   6331     1   107.2600461 396.643200
   6316   6315   6317     1   109.5600471 388.275200
   6317   6315   6329     1   109.5600471 388.275200
   6317   6315   6337     1   109.7800468 425.094400
   6318   6316   6319     1   109.5600471 388.275200
   6318   6316   6328     1   110.2600474 425.931200
   6319   6320   6322     1   109.5600471 388.275200
   6319   6327   6330     1   107.2600461 396.643200
   6320   6321   6324     1   110.2200475 386.601600
   6320   6326   6332     1   107.2600461 396.643200
   6320   6319   6323     1   109.5600471 388.275200
   6321   6320   6322     1   109.5600471 388.275200
   6322   6320   6326     1   110.2600474 425.931200
   6323   6319   6327     1   110.2600474 425.931200
   6324   6321   6325     1   109.5800467 425.931200
   6324   6321   6337     1   109.5800467 425.931200
   6329   6335   6336     1   107.2600461 396.643200
   6333   6329   6335     1   110.2600474 425.931200
   6333   6329   6334     1   108.4600466 328.025600
   6334   6329   6335     1   110.2600474 425.931200
   6338   6339   6341     1   109.5600471 388.275200
   6338   6352   6356     1   109.5600471 388.275200
   6338   6352   6357     1   109.5600471 388.275200
   6339   6338   6340     1   109.5600471 388.275200
   6339   6342   6346     1   109.5600471 388.275200
   6339   6351   6354     1   107.2600461 396.643200
   6340   6338   6352     1   109.5600471 388.275200
   6340   6338   6360     1   109.7800468 425.094400
   6341   6339   6342     1   109.5600471 388.275200
   6341   6339   6351     1   110.2600474 425.931200
   6342   6343   6345     1   109.5600471 388.275200
   6342   6350   6353     1   107.2600461 396.643200
   6343   6342   6346     1   109.5600471 388.275200
   6343   6344   6347     1   110.2200475 386.601600
   6343   6349   6355     1   107.2600461 396.643200
   6344   6343   6345     1   109.5600471 388.275200
   6345   6343   6349     1   110.2600474 425.931200
   6346   6342   6350     1   110.2600474 425.931200
   6347   6344   6348     1   109.5800467 425.931200
   6347   6344   6360     1   109.5800467 425.931200
   6352   6358   6359     1   107.2600461 396.643200
   6356   6352   6358     1   110.2600474 425.931200
   6356   6352   6357     1   108.4600466 328.025600
   6357   6352   6358     1   110.2600474 425.931200
   6361   6362   6364     1   109.5600471 388.275200
   6361   6375   6379     1   109.5600471 388.275200
   6361   6375   6380     1   109.5600471 388.275200
   6362   6365   6369     1   109.5600471 388.275200
   6362   6374   6377     1   107.2600461 396.643200
   6362   6361   6363     1   109.5600471 388.275200
   6363   6361   6375     1   109.5600471 388.275200
   6363   6361   6383     1   109.7800468 425.094400
   6364   6362   6365     1   109.5600471 388.275200
   6364   6362   6374     1   110.2600474 425.931200
   6365   6366   6368     1   109.5600471 388.275200
   6365   6373   6376     1   107.2600461 396.643200
   6366   6367   6370     1   110.2200475 386.601600
   6366   6372   6378     1   107.2600461 396.643200
   6366   6365   6369     1   109.5600471 388.275200
   6367   6366   6368     1   109.5600471 388.275200
   6368   6366   6372     1   110.2600474 425.931200
   6369   6365   6373     1   110.2600474 425.931200
   6370   6367   6371     1   109.5800467 425.931200
   6370   6367   6383     1   109.5800467 425.931200
   6375   6381   6382     1   107.2600461 396.643200
   6379   6375   6381     1   110.2600474 425.931200
   6379   6375   6380     1   108.4600466 328.025600
   6380   6375   6381     1   110.2600474 425.931200
   6384   6385   6387     1   109.5600471 388.275200
   6384   6398   6402     1   109.5600471 388.275200
   6384   6398   6403     1   109.5600471 388.275200
   6385   6384   6386     1   109.5600471 388.275200
   6385   6388   6392     1   109.5600471 388.275200
   6385   6397   6400     1   107.2600461 396.643200
   6386   6384   6398     1   109.5600471 388.275200
   6386   6384   6406     1   109.7800468 425.094400
   6387   6385   6388     1   109.5600471 388.275200
   6387   6385   6397     1   110.2600474 425.931200
   6388   6389   6391     1   109.5600471 388.275200
   6388   6396   6399     1   107.2600461 396.643200
   6389   6388   6392     1   109.5600471 388.275200
   6389   6390   6393     1   110.2200475 386.601600
   6389   6395   6401     1   107.2600461 396.643200
   6390   6389   6391     1   109.5600471 388.275200
   6391   6389   6395     1   110.2600474 425.931200
   6392   6388   6396     1   110.2600474 425.931200
   6393   6390   6394     1   109.5800467 425.931200
   6393   6390   6406     1   109.5800467 425.931200
   6398   6404   6405     1   107.2600461 396.643200
   6402   6398   6404     1   110.2600474 425.931200
   6402   6398   6403     1   108.4600466 328.025600
   6403   6398   6404     1   110.2600474 425.931200
   6407   6408   6410     1   109.5600471 388.275200
   6407   6421   6425     1   109.5600471 388.275200
   6407   6421   6426     1   109.5600471 388.275200
   6408   6411   6415     1   109.5600471 388.275200
   6408   6420   6423     1   107.2600461 396.643200
   6408   6407   6409     1   109.5600471 388.275200
   6409   6407   6421     1   109.5600471 388.275200
   6409   6407   6429     1   109.7800468 425.094400
   6410   6408   6411     1   109.5600471 388.275200
   6410   6408   6420     1   110.2600474 425.931200
   6411   6412   6414     1   109.5600471 388.275200
   6411   6419   6422     1   107.2600461 396.643200
   6412   6413   6416     1   110.2200475 386.601600
   6412   6418   6424     1   107.2600461 396.643200
   6412   6411   6415     1   109.5600471 388.275200
   6413   6412   6414     1   109.5600471 388.275200
   6414   6412   6418     1   110.2600474 425.931200
   6415   6411   6419     1   110.2600474 425.931200
   6416   6413   6417     1   109.5800467 425.931200
   6416   6413   6429     1   109.5800467 425.931200
   6421   6427   6428     1   107.2600461 396.643200
   6425   6421   6427     1   110.2600474 425.931200
   6425   6421   6426     1   108.4600466 328.025600
   6426   6421   6427     1   110.2600474 425.931200
   6430   6431   6433     1   109.5600471 388.275200
   6430   6444   6448     1   109.5600471 388.275200
   6430   6444   6449     1   109.5600471 388.275200
   6431   6430   6432     1   109.5600471 388.275200
   6431   6434   6438     1   109.5600471 388.275200
   6431   6443   6446     1   107.2600461 396.643200
   6432   6430   6444     1   109.5600471 388.275200
   6432   6430   6452     1   109.7800468 425.094400
   6433   6431   6434     1   109.5600471 388.275200
   6433   6431   6443     1   110.2600474 425.931200
   6434   6435   6437     1   109.5600471 388.275200
   6434   6442   6445     1   107.2600461 396.643200
   6435   6434   6438     1   109.5600471 388.275200
   6435   6436   6439     1   110.2200475 386.601600
   6435   6441   6447     1   107.2600461 396.643200
   6436   6435   6437     1   109.5600471 388.275200
   6437   6435   6441     1   110.2600474 425.931200
   6438   6434   6442     1   110.2600474 425.931200
   6439   6436   6440     1   109.5800467 425.931200
   6439   6436   6452     1   109.5800467 425.931200
   6444   6450   6451     1   107.2600461 396.643200
   6448   6444   6450     1   110.2600474 425.931200
   6448   6444   6449     1   108.4600466 328.025600
   6449   6444   6450     1   110.2600474 425.931200
   6453   6454   6456     1   109.5600471 388.275200
   6453   6467   6471     1   109.5600471 388.275200
   6453   6467   6472     1   109.5600471 388.275200
   6454   6457   6461     1   109.5600471 388.275200
   6454   6466   6469     1   107.2600461 396.643200
   6454   6453   6455     1   109.5600471 388.275200
   6455   6453   6467     1   109.5600471 388.275200
   6455   6453   6475     1   109.7800468 425.094400
   6456   6454   6457     1   109.5600471 388.275200
   6456   6454   6466     1   110.2600474 425.931200
   6457   6458   6460     1   109.5600471 388.275200
   6457   6465   6468     1   107.2600461 396.643200
   6458   6459   6462     1   110.2200475 386.601600
   6458   6464   6470     1   107.2600461 396.643200
   6458   6457   6461     1   109.5600471 388.275200
   6459   6458   6460     1   109.5600471 388.275200
   6460   6458   6464     1   110.2600474 425.931200
   6461   6457   6465     1   110.2600474 425.931200
   6462   6459   6463     1   109.5800467 425.931200
   6462   6459   6475     1   109.5800467 425.931200
   6467   6473   6474     1   107.2600461 396.643200
   6471   6467   6473     1   110.2600474 425.931200
   6471   6467   6472     1   108.4600466 328.025600
   6472   6467   6473     1   110.2600474 425.931200
   6476   6477   6479     1   109.5600471 388.275200
   6476   6490   6494     1   109.5600471 388.275200
   6476   6490   6495     1   109.5600471 388.275200
   6477   6476   6478     1   109.5600471 388.275200
   6477   6480   6484     1   109.5600471 388.275200
   6477   6489   6492     1   107.2600461 396.643200
   6478   6476   6490     1   109.5600471 388.275200
   6478   6476   6498     1   109.7800468 425.094400
   6479   6477   6480     1   109.5600471 388.275200
   6479   6477   6489     1   110.2600474 425.931200
   6480   6481   6483     1   109.5600471 388.275200
   6480   6488   6491     1   107.2600461 396.643200
   6481   6480   6484     1   109.5600471 388.275200
   6481   6482   6485     1   110.2200475 386.601600
   6481   6487   6493     1   107.2600461 396.643200
   6482   6481   6483     1   109.5600471 388.275200
   6483   6481   6487     1   110.2600474 425.931200
   6484   6480   6488     1   110.2600474 425.931200
   6485   6482   6486     1   109.5800467 425.931200
   6485   6482   6498     1   109.5800467 425.931200
   6490   6496   6497     1   107.2600461 396.643200
   6494   6490   6496     1   110.2600474 425.931200
   6494   6490   6495     1   108.4600466 328.025600
   6495   6490   6496     1   110.2600474 425.931200
   6499   6500   6502     1   109.5600471 388.275200
   6499   6513   6517     1   109.5600471 388.275200
   6499   6513   6518     1   109.5600471 388.275200
   6500   6503   6507     1   109.5600471 388.275200
   6500   6512   6515     1   107.2600461 396.643200
   6500   6499   6501     1   109.5600471 388.275200
   6501   6499   6513     1   109.5600471 388.275200
   6501   6499   6521     1   109.7800468 425.094400
   6502   6500   6503     1   109.5600471 388.275200
   6502   6500   6512     1   110.2600474 425.931200
   6503   6504   6506     1   109.5600471 388.275200
   6503   6511   6514     1   107.2600461 396.643200
   6504   6505   6508     1   110.2200475 386.601600
   6504   6510   6516     1   107.2600461 396.643200
   6504   6503   6507     1   109.5600471 388.275200
   6505   6504   6506     1   109.5600471 388.275200
   6506   6504   6510     1   110.2600474 425.931200
   6507   6503   6511     1   110.2600474 425.931200
   6508   6505   6509     1   109.5800467 425.931200
   6508   6505   6521     1   109.5800467 425.931200
   6513   6519   6520     1   107.2600461 396.643200
   6517   6513   6519     1   110.2600474 425.931200
   6517   6513   6518     1   108.4600466 328.025600
   6518   6513   6519     1   110.2600474 425.931200
   6522   6523   6525     1   109.5600471 388.275200
   6522   6536   6540     1   109.5600471 388.275200
   6522   6536   6541     1   109.5600471 388.275200
   6523   6522   6524     1   109.5600471 388.275200
   6523   6526   6530     1   109.5600471 388.275200
   6523   6535   6538     1   107.2600461 396.643200
   6524   6522   6536     1   109.5600471 388.275200
   6524   6522   6544     1   109.7800468 425.094400
   6525   6523   6526     1   109.5600471 388.275200
   6525   6523   6535     1   110.2600474 425.931200
   6526   6527   6529     1   109.5600471 388.275200
   6526   6534   6537     1   107.2600461 396.643200
   6527   6526   6530     1   109.5600471 388.275200
   6527   6528   6531     1   110.2200475 386.601600
   6527   6533   6539     1   107.2600461 396.643200
   6528   6527   6529     1   109.5600471 388.275200
   6529   6527   6533     1   110.2600474 425.931200
   6530   6526   6534     1   110.2600474 425.931200
   6531   6528   6532     1   109.5800467 425.931200
   6531   6528   6544     1   109.5800467 425.931200
   6536   6542   6543     1   107.2600461 396.643200
   6540   6536   6542     1   110.2600474 425.931200
   6540   6536   6541     1   108.4600466 328.025600
   6541   6536   6542     1   110.2600474 425.931200
   6545   6546   6548     1   109.5600471 388.275200
   6545   6559   6563     1   109.5600471 388.275200
   6545   6559   6564     1   109.5600471 388.275200
   6546   6549   6553     1   109.5600471 388.275200
   6546   6558   6561     1   107.2600461 396.643200
   6546   6545   6547     1   109.5600471 388.275200
   6547   6545   6559     1   109.5600471 388.275200
   6547   6545   6567     1   109.7800468 425.094400
   6548   6546   6549     1   109.5600471 388.275200
   6548   6546   6558     1   110.2600474 425.931200
   6549   6550   6552     1   109.5600471 388.275200
   6549   6557   6560     1   107.2600461 396.643200
   6550   6551   6554     1   110.2200475 386.601600
   6550   6556   6562     1   107.2600461 396.643200
   6550   6549   6553     1   109.5600471 388.275200
   6551   6550   6552     1   109.5600471 388.275200
   6552   6550   6556     1   110.2600474 425.931200
   6553   6549   6557     1   110.2600474 425.931200
   6554   6551   6555     1   109.5800467 425.931200
   6554   6551   6567     1   109.5800467 425.931200
   6559   6565   6566     1   107.2600461 396.643200
   6563   6559   6565     1   110.2600474 425.931200
   6563   6559   6564     1   108.4600466 328.025600
   6564   6559   6565     1   110.2600474 425.931200
   6568   6569   6571     1   109.5600471 388.275200
   6568   6582   6586     1   109.5600471 388.275200
   6568   6582   6587     1   109.5600471 388.275200
   6569   6568   6570     1   109.5600471 388.275200
   6569   6572   6576     1   109.5600471 388.275200
   6569   6581   6584     1   107.2600461 396.643200
   6570   6568   6582     1   109.5600471 388.275200
   6570   6568   6590     1   109.7800468 425.094400
   6571   6569   6572     1   109.5600471 388.275200
   6571   6569   6581     1   110.2600474 425.931200
   6572   6573   6575     1   109.5600471 388.275200
   6572   6580   6583     1   107.2600461 396.643200
   6573   6572   6576     1   109.5600471 388.275200
   6573   6574   6577     1   110.2200475 386.601600
   6573   6579   6585     1   107.2600461 396.643200
   6574   6573   6575     1   109.5600471 388.275200
   6575   6573   6579     1   110.2600474 425.931200
   6576   6572   6580     1   110.2600474 425.931200
   6577   6574   6578     1   109.5800467 425.931200
   6577   6574   6590     1   109.5800467 425.931200
   6582   6588   6589     1   107.2600461 396.643200
   6586   6582   6588     1   110.2600474 425.931200
   6586   6582   6587     1   108.4600466 328.025600
   6587   6582   6588     1   110.2600474 425.931200
   6591   6592   6594     1   109.5600471 388.275200
   6591   6605   6609     1   109.5600471 388.275200
   6591   6605   6610     1   109.5600471 388.275200
   6592   6595   6599     1   109.5600471 388.275200
   6592   6604   6607     1   107.2600461 396.643200
   6592   6591   6593     1   109.5600471 388.275200
   6593   6591   6605     1   109.5600471 388.275200
   6593   6591   6613     1   109.7800468 425.094400
   6594   6592   6595     1   109.5600471 388.275200
   6594   6592   6604     1   110.2600474 425.931200
   6595   6596   6598     1   109.5600471 388.275200
   6595   6603   6606     1   107.2600461 396.643200
   6596   6597   6600     1   110.2200475 386.601600
   6596   6602   6608     1   107.2600461 396.643200
   6596   6595   6599     1   109.5600471 388.275200
   6597   6596   6598     1   109.5600471 388.275200
   6598   6596   6602     1   110.2600474 425.931200
   6599   6595   6603     1   110.2600474 425.931200
   6600   6597   6601     1   109.5800467 425.931200
   6600   6597   6613     1   109.5800467 425.931200
   6605   6611   6612     1   107.2600461 396.643200
   6609   6605   6611     1   110.2600474 425.931200
   6609   6605   6610     1   108.4600466 328.025600
   6610   6605   6611     1   110.2600474 425.931200
   6614   6615   6617     1   109.5600471 388.275200
   6614   6628   6632     1   109.5600471 388.275200
   6614   6628   6633     1   109.5600471 388.275200
   6615   6614   6616     1   109.5600471 388.275200
   6615   6618   6622     1   109.5600471 388.275200
   6615   6627   6630     1   107.2600461 396.643200
   6616   6614   6628     1   109.5600471 388.275200
   6616   6614   6636     1   109.7800468 425.094400
   6617   6615   6618     1   109.5600471 388.275200
   6617   6615   6627     1   110.2600474 425.931200
   6618   6619   6621     1   109.5600471 388.275200
   6618   6626   6629     1   107.2600461 396.643200
   6619   6618   6622     1   109.5600471 388.275200
   6619   6620   6623     1   110.2200475 386.601600
   6619   6625   6631     1   107.2600461 396.643200
   6620   6619   6621     1   109.5600471 388.275200
   6621   6619   6625     1   110.2600474 425.931200
   6622   6618   6626     1   110.2600474 425.931200
   6623   6620   6624     1   109.5800467 425.931200
   6623   6620   6636     1   109.5800467 425.931200
   6628   6634   6635     1   107.2600461 396.643200
   6632   6628   6634     1   110.2600474 425.931200
   6632   6628   6633     1   108.4600466 328.025600
   6633   6628   6634     1   110.2600474 425.931200
   6637   6638   6640     1   109.5600471 388.275200
   6637   6651   6655     1   109.5600471 388.275200
   6637   6651   6656     1   109.5600471 388.275200
   6638   6641   6645     1   109.5600471 388.275200
   6638   6650   6653     1   107.2600461 396.643200
   6638   6637   6639     1   109.5600471 388.275200
   6639   6637   6651     1   109.5600471 388.275200
   6639   6637   6659     1   109.7800468 425.094400
   6640   6638   6641     1   109.5600471 388.275200
   6640   6638   6650     1   110.2600474 425.931200
   6641   6642   6644     1   109.5600471 388.275200
   6641   6649   6652     1   107.2600461 396.643200
   6642   6643   6646     1   110.2200475 386.601600
   6642   6648   6654     1   107.2600461 396.643200
   6642   6641   6645     1   109.5600471 388.275200
   6643   6642   6644     1   109.5600471 388.275200
   6644   6642   6648     1   110.2600474 425.931200
   6645   6641   6649     1   110.2600474 425.931200
   6646   6643   6647     1   109.5800467 425.931200
   6646   6643   6659     1   109.5800467 425.931200
   6651   6657   6658     1   107.2600461 396.643200
   6655   6651   6657     1   110.2600474 425.931200
   6655   6651   6656     1   108.4600466 328.025600
   6656   6651   6657     1   110.2600474 425.931200
   6660   6661   6663     1   109.5600471 388.275200
   6660   6674   6678     1   109.5600471 388.275200
   6660   6674   6679     1   109.5600471 388.275200
   6661   6660   6662     1   109.5600471 388.275200
   6661   6664   6668     1   109.5600471 388.275200
   6661   6673   6676     1   107.2600461 396.643200
   6662   6660   6674     1   109.5600471 388.275200
   6662   6660   6682     1   109.7800468 425.094400
   6663   6661   6664     1   109.5600471 388.275200
   6663   6661   6673     1   110.2600474 425.931200
   6664   6665   6667     1   109.5600471 388.275200
   6664   6672   6675     1   107.2600461 396.643200
   6665   6664   6668     1   109.5600471 388.275200
   6665   6666   6669     1   110.2200475 386.601600
   6665   6671   6677     1   107.2600461 396.643200
   6666   6665   6667     1   109.5600471 388.275200
   6667   6665   6671     1   110.2600474 425.931200
   6668   6664   6672     1   110.2600474 425.931200
   6669   6666   6670     1   109.5800467 425.931200
   6669   6666   6682     1   109.5800467 425.931200
   6674   6680   6681     1   107.2600461 396.643200
   6678   6674   6680     1   110.2600474 425.931200
   6678   6674   6679     1   108.4600466 328.025600
   6679   6674   6680     1   110.2600474 425.931200
   6683   6684   6686     1   109.5600471 388.275200
   6683   6697   6701     1   109.5600471 388.275200
   6683   6697   6702     1   109.5600471 388.275200
   6684   6687   6691     1   109.5600471 388.275200
   6684   6696   6699     1   107.2600461 396.643200
   6684   6683   6685     1   109.5600471 388.275200
   6685   6683   6697     1   109.5600471 388.275200
   6685   6683   6705     1   109.7800468 425.094400
   6686   6684   6687     1   109.5600471 388.275200
   6686   6684   6696     1   110.2600474 425.931200
   6687   6688   6690     1   109.5600471 388.275200
   6687   6695   6698     1   107.2600461 396.643200
   6688   6689   6692     1   110.2200475 386.601600
   6688   6694   6700     1   107.2600461 396.643200
   6688   6687   6691     1   109.5600471 388.275200
   6689   6688   6690     1   109.5600471 388.275200
   6690   6688   6694     1   110.2600474 425.931200
   6691   6687   6695     1   110.2600474 425.931200
   6692   6689   6693     1   109.5800467 425.931200
   6692   6689   6705     1   109.5800467 425.931200
   6697   6703   6704     1   107.2600461 396.643200
   6701   6697   6703     1   110.2600474 425.931200
   6701   6697   6702     1   108.4600466 328.025600
   6702   6697   6703     1   110.2600474 425.931200
   6706   6707   6709     1   109.5600471 388.275200
   6706   6720   6724     1   109.5600471 388.275200
   6706   6720   6725     1   109.5600471 388.275200
   6707   6706   6708     1   109.5600471 388.275200
   6707   6710   6714     1   109.5600471 388.275200
   6707   6719   6722     1   107.2600461 396.643200
   6708   6706   6720     1   109.5600471 388.275200
   6708   6706   6728     1   109.7800468 425.094400
   6709   6707   6710     1   109.5600471 388.275200
   6709   6707   6719     1   110.2600474 425.931200
   6710   6711   6713     1   109.5600471 388.275200
   6710   6718   6721     1   107.2600461 396.643200
   6711   6710   6714     1   109.5600471 388.275200
   6711   6712   6715     1   110.2200475 386.601600
   6711   6717   6723     1   107.2600461 396.643200
   6712   6711   6713     1   109.5600471 388.275200
   6713   6711   6717     1   110.2600474 425.931200
   6714   6710   6718     1   110.2600474 425.931200
   6715   6712   6716     1   109.5800467 425.931200
   6715   6712   6728     1   109.5800467 425.931200
   6720   6726   6727     1   107.2600461 396.643200
   6724   6720   6726     1   110.2600474 425.931200
   6724   6720   6725     1   108.4600466 328.025600
   6725   6720   6726     1   110.2600474 425.931200
   6729   6730   6732     1   109.5600471 388.275200
   6729   6743   6747     1   109.5600471 388.275200
   6729   6743   6748     1   109.5600471 388.275200
   6730   6733   6737     1   109.5600471 388.275200
   6730   6742   6745     1   107.2600461 396.643200
   6730   6729   6731     1   109.5600471 388.275200
   6731   6729   6743     1   109.5600471 388.275200
   6731   6729   6751     1   109.7800468 425.094400
   6732   6730   6733     1   109.5600471 388.275200
   6732   6730   6742     1   110.2600474 425.931200
   6733   6734   6736     1   109.5600471 388.275200
   6733   6741   6744     1   107.2600461 396.643200
   6734   6735   6738     1   110.2200475 386.601600
   6734   6740   6746     1   107.2600461 396.643200
   6734   6733   6737     1   109.5600471 388.275200
   6735   6734   6736     1   109.5600471 388.275200
   6736   6734   6740     1   110.2600474 425.931200
   6737   6733   6741     1   110.2600474 425.931200
   6738   6735   6739     1   109.5800467 425.931200
   6738   6735   6751     1   109.5800467 425.931200
   6743   6749   6750     1   107.2600461 396.643200
   6747   6743   6749     1   110.2600474 425.931200
   6747   6743   6748     1   108.4600466 328.025600
   6748   6743   6749     1   110.2600474 425.931200
   6752   6753   6755     1   109.5600471 388.275200
   6752   6766   6770     1   109.5600471 388.275200
   6752   6766   6771     1   109.5600471 388.275200
   6753   6752   6754     1   109.5600471 388.275200
   6753   6756   6760     1   109.5600471 388.275200
   6753   6765   6768     1   107.2600461 396.643200
   6754   6752   6766     1   109.5600471 388.275200
   6754   6752   6774     1   109.7800468 425.094400
   6755   6753   6756     1   109.5600471 388.275200
   6755   6753   6765     1   110.2600474 425.931200
   6756   6757   6759     1   109.5600471 388.275200
   6756   6764   6767     1   107.2600461 396.643200
   6757   6756   6760     1   109.5600471 388.275200
   6757   6758   6761     1   110.2200475 386.601600
   6757   6763   6769     1   107.2600461 396.643200
   6758   6757   6759     1   109.5600471 388.275200
   6759   6757   6763     1   110.2600474 425.931200
   6760   6756   6764     1   110.2600474 425.931200
   6761   6758   6762     1   109.5800467 425.931200
   6761   6758   6774     1   109.5800467 425.931200
   6766   6772   6773     1   107.2600461 396.643200
   6770   6766   6772     1   110.2600474 425.931200
   6770   6766   6771     1   108.4600466 328.025600
   6771   6766   6772     1   110.2600474 425.931200
   6775   6776   6778     1   109.5600471 388.275200
   6775   6789   6793     1   109.5600471 388.275200
   6775   6789   6794     1   109.5600471 388.275200
   6776   6779   6783     1   109.5600471 388.275200
   6776   6788   6791     1   107.2600461 396.643200
   6776   6775   6777     1   109.5600471 388.275200
   6777   6775   6789     1   109.5600471 388.275200
   6777   6775   6797     1   109.7800468 425.094400
   6778   6776   6779     1   109.5600471 388.275200
   6778   6776   6788     1   110.2600474 425.931200
   6779   6780   6782     1   109.5600471 388.275200
   6779   6787   6790     1   107.2600461 396.643200
   6780   6781   6784     1   110.2200475 386.601600
   6780   6786   6792     1   107.2600461 396.643200
   6780   6779   6783     1   109.5600471 388.275200
   6781   6780   6782     1   109.5600471 388.275200
   6782   6780   6786     1   110.2600474 425.931200
   6783   6779   6787     1   110.2600474 425.931200
   6784   6781   6785     1   109.5800467 425.931200
   6784   6781   6797     1   109.5800467 425.931200
   6789   6795   6796     1   107.2600461 396.643200
   6793   6789   6795     1   110.2600474 425.931200
   6793   6789   6794     1   108.4600466 328.025600
   6794   6789   6795     1   110.2600474 425.931200
   6798   6799   6801     1   109.5600471 388.275200
   6798   6812   6816     1   109.5600471 388.275200
   6798   6812   6817     1   109.5600471 388.275200
   6799   6798   6800     1   109.5600471 388.275200
   6799   6802   6806     1   109.5600471 388.275200
   6799   6811   6814     1   107.2600461 396.643200
   6800   6798   6812     1   109.5600471 388.275200
   6800   6798   6820     1   109.7800468 425.094400
   6801   6799   6802     1   109.5600471 388.275200
   6801   6799   6811     1   110.2600474 425.931200
   6802   6803   6805     1   109.5600471 388.275200
   6802   6810   6813     1   107.2600461 396.643200
   6803   6802   6806     1   109.5600471 388.275200
   6803   6804   6807     1   110.2200475 386.601600
   6803   6809   6815     1   107.2600461 396.643200
   6804   6803   6805     1   109.5600471 388.275200
   6805   6803   6809     1   110.2600474 425.931200
   6806   6802   6810     1   110.2600474 425.931200
   6807   6804   6808     1   109.5800467 425.931200
   6807   6804   6820     1   109.5800467 425.931200
   6812   6818   6819     1   107.2600461 396.643200
   6816   6812   6818     1   110.2600474 425.931200
   6816   6812   6817     1   108.4600466 328.025600
   6817   6812   6818     1   110.2600474 425.931200
   6821   6822   6824     1   109.5600471 388.275200
   6821   6835   6839     1   109.5600471 388.275200
   6821   6835   6840     1   109.5600471 388.275200
   6822   6825   6829     1   109.5600471 388.275200
   6822   6834   6837     1   107.2600461 396.643200
   6822   6821   6823     1   109.5600471 388.275200
   6823   6821   6835     1   109.5600471 388.275200
   6823   6821   6843     1   109.7800468 425.094400
   6824   6822   6825     1   109.5600471 388.275200
   6824   6822   6834     1   110.2600474 425.931200
   6825   6826   6828     1   109.5600471 388.275200
   6825   6833   6836     1   107.2600461 396.643200
   6826   6827   6830     1   110.2200475 386.601600
   6826   6832   6838     1   107.2600461 396.643200
   6826   6825   6829     1   109.5600471 388.275200
   6827   6826   6828     1   109.5600471 388.275200
   6828   6826   6832     1   110.2600474 425.931200
   6829   6825   6833     1   110.2600474 425.931200
   6830   6827   6831     1   109.5800467 425.931200
   6830   6827   6843     1   109.5800467 425.931200
   6835   6841   6842     1   107.2600461 396.643200
   6839   6835   6841     1   110.2600474 425.931200
   6839   6835   6840     1   108.4600466 328.025600
   6840   6835   6841     1   110.2600474 425.931200
   6844   6845   6847     1   109.5600471 388.275200
   6844   6858   6862     1   109.5600471 388.275200
   6844   6858   6863     1   109.5600471 388.275200
   6845   6844   6846     1   109.5600471 388.275200
   6845   6848   6852     1   109.5600471 388.275200
   6845   6857   6860     1   107.2600461 396.643200
   6846   6844   6858     1   109.5600471 388.275200
   6846   6844   6866     1   109.7800468 425.094400
   6847   6845   6848     1   109.5600471 388.275200
   6847   6845   6857     1   110.2600474 425.931200
   6848   6849   6851     1   109.5600471 388.275200
   6848   6856   6859     1   107.2600461 396.643200
   6849   6848   6852     1   109.5600471 388.275200
   6849   6850   6853     1   110.2200475 386.601600
   6849   6855   6861     1   107.2600461 396.643200
   6850   6849   6851     1   109.5600471 388.275200
   6851   6849   6855     1   110.2600474 425.931200
   6852   6848   6856     1   110.2600474 425.931200
   6853   6850   6854     1   109.5800467 425.931200
   6853   6850   6866     1   109.5800467 425.931200
   6858   6864   6865     1   107.2600461 396.643200
   6862   6858   6864     1   110.2600474 425.931200
   6862   6858   6863     1   108.4600466 328.025600
   6863   6858   6864     1   110.2600474 425.931200
   6867   6868   6870     1   109.5600471 388.275200
   6867   6881   6885     1   109.5600471 388.275200
   6867   6881   6886     1   109.5600471 388.275200
   6868   6871   6875     1   109.5600471 388.275200
   6868   6880   6883     1   107.2600461 396.643200
   6868   6867   6869     1   109.5600471 388.275200
   6869   6867   6881     1   109.5600471 388.275200
   6869   6867   6889     1   109.7800468 425.094400
   6870   6868   6871     1   109.5600471 388.275200
   6870   6868   6880     1   110.2600474 425.931200
   6871   6872   6874     1   109.5600471 388.275200
   6871   6879   6882     1   107.2600461 396.643200
   6872   6873   6876     1   110.2200475 386.601600
   6872   6878   6884     1   107.2600461 396.643200
   6872   6871   6875     1   109.5600471 388.275200
   6873   6872   6874     1   109.5600471 388.275200
   6874   6872   6878     1   110.2600474 425.931200
   6875   6871   6879     1   110.2600474 425.931200
   6876   6873   6877     1   109.5800467 425.931200
   6876   6873   6889     1   109.5800467 425.931200
   6881   6887   6888     1   107.2600461 396.643200
   6885   6881   6887     1   110.2600474 425.931200
   6885   6881   6886     1   108.4600466 328.025600
   6886   6881   6887     1   110.2600474 425.931200
   6890   6891   6893     1   109.5600471 388.275200
   6890   6904   6908     1   109.5600471 388.275200
   6890   6904   6909     1   109.5600471 388.275200
   6891   6890   6892     1   109.5600471 388.275200
   6891   6894   6898     1   109.5600471 388.275200
   6891   6903   6906     1   107.2600461 396.643200
   6892   6890   6904     1   109.5600471 388.275200
   6892   6890   6912     1   109.7800468 425.094400
   6893   6891   6894     1   109.5600471 388.275200
   6893   6891   6903     1   110.2600474 425.931200
   6894   6895   6897     1   109.5600471 388.275200
   6894   6902   6905     1   107.2600461 396.643200
   6895   6894   6898     1   109.5600471 388.275200
   6895   6896   6899     1   110.2200475 386.601600
   6895   6901   6907     1   107.2600461 396.643200
   6896   6895   6897     1   109.5600471 388.275200
   6897   6895   6901     1   110.2600474 425.931200
   6898   6894   6902     1   110.2600474 425.931200
   6899   6896   6900     1   109.5800467 425.931200
   6899   6896   6912     1   109.5800467 425.931200
   6904   6910   6911     1   107.2600461 396.643200
   6908   6904   6910     1   110.2600474 425.931200
   6908   6904   6909     1   108.4600466 328.025600
   6909   6904   6910     1   110.2600474 425.931200
   6913   6914   6916     1   109.5600471 388.275200
   6913   6927   6931     1   109.5600471 388.275200
   6913   6927   6932     1   109.5600471 388.275200
   6914   6917   6921     1   109.5600471 388.275200
   6914   6926   6929     1   107.2600461 396.643200
   6914   6913   6915     1   109.5600471 388.275200
   6915   6913   6927     1   109.5600471 388.275200
   6915   6913   6935     1   109.7800468 425.094400
   6916   6914   6917     1   109.5600471 388.275200
   6916   6914   6926     1   110.2600474 425.931200
   6917   6918   6920     1   109.5600471 388.275200
   6917   6925   6928     1   107.2600461 396.643200
   6918   6919   6922     1   110.2200475 386.601600
   6918   6924   6930     1   107.2600461 396.643200
   6918   6917   6921     1   109.5600471 388.275200
   6919   6918   6920     1   109.5600471 388.275200
   6920   6918   6924     1   110.2600474 425.931200
   6921   6917   6925     1   110.2600474 425.931200
   6922   6919   6923     1   109.5800467 425.931200
   6922   6919   6935     1   109.5800467 425.931200
   6927   6933   6934     1   107.2600461 396.643200
   6931   6927   6933     1   110.2600474 425.931200
   6931   6927   6932     1   108.4600466 328.025600
   6932   6927   6933     1   110.2600474 425.931200
   6936   6937   6939     1   109.5600471 388.275200
   6936   6950   6954     1   109.5600471 388.275200
   6936   6950   6955     1   109.5600471 388.275200
   6937   6936   6938     1   109.5600471 388.275200
   6937   6940   6944     1   109.5600471 388.275200
   6937   6949   6952     1   107.2600461 396.643200
   6938   6936   6950     1   109.5600471 388.275200
   6938   6936   6958     1   109.7800468 425.094400
   6939   6937   6940     1   109.5600471 388.275200
   6939   6937   6949     1   110.2600474 425.931200
   6940   6941   6943     1   109.5600471 388.275200
   6940   6948   6951     1   107.2600461 396.643200
   6941   6940   6944     1   109.5600471 388.275200
   6941   6942   6945     1   110.2200475 386.601600
   6941   6947   6953     1   107.2600461 396.643200
   6942   6941   6943     1   109.5600471 388.275200
   6943   6941   6947     1   110.2600474 425.931200
   6944   6940   6948     1   110.2600474 425.931200
   6945   6942   6946     1   109.5800467 425.931200
   6945   6942   6958     1   109.5800467 425.931200
   6950   6956   6957     1   107.2600461 396.643200
   6954   6950   6956     1   110.2600474 425.931200
   6954   6950   6955     1   108.4600466 328.025600
   6955   6950   6956     1   110.2600474 425.931200
   6959   6960   6962     1   109.5600471 388.275200
   6959   6973   6977     1   109.5600471 388.275200
   6959   6973   6978     1   109.5600471 388.275200
   6960   6963   6967     1   109.5600471 388.275200
   6960   6972   6975     1   107.2600461 396.643200
   6960   6959   6961     1   109.5600471 388.275200
   6961   6959   6973     1   109.5600471 388.275200
   6961   6959   6981     1   109.7800468 425.094400
   6962   6960   6963     1   109.5600471 388.275200
   6962   6960   6972     1   110.2600474 425.931200
   6963   6964   6966     1   109.5600471 388.275200
   6963   6971   6974     1   107.2600461 396.643200
   6964   6965   6968     1   110.2200475 386.601600
   6964   6970   6976     1   107.2600461 396.643200
   6964   6963   6967     1   109.5600471 388.275200
   6965   6964   6966     1   109.5600471 388.275200
   6966   6964   6970     1   110.2600474 425.931200
   6967   6963   6971     1   110.2600474 425.931200
   6968   6965   6969     1   109.5800467 425.931200
   6968   6965   6981     1   109.5800467 425.931200
   6973   6979   6980     1   107.2600461 396.643200
   6977   6973   6979     1   110.2600474 425.931200
   6977   6973   6978     1   108.4600466 328.025600
   6978   6973   6979     1   110.2600474 425.931200
   6982   6983   6985     1   109.5600471 388.275200
   6982   6996   7000     1   109.5600471 388.275200
   6982   6996   7001     1   109.5600471 388.275200
   6983   6982   6984     1   109.5600471 388.275200
   6983   6986   6990     1   109.5600471 388.275200
   6983   6995   6998     1   107.2600461 396.643200
   6984   6982   6996     1   109.5600471 388.275200
   6984   6982   7004     1   109.7800468 425.094400
   6985   6983   6986     1   109.5600471 388.275200
   6985   6983   6995     1   110.2600474 425.931200
   6986   6987   6989     1   109.5600471 388.275200
   6986   6994   6997     1   107.2600461 396.643200
   6987   6986   6990     1   109.5600471 388.275200
   6987   6988   6991     1   110.2200475 386.601600
   6987   6993   6999     1   107.2600461 396.643200
   6988   6987   6989     1   109.5600471 388.275200
   6989   6987   6993     1   110.2600474 425.931200
   6990   6986   6994     1   110.2600474 425.931200
   6991   6988   6992     1   109.5800467 425.931200
   6991   6988   7004     1   109.5800467 425.931200
   6996   7002   7003     1   107.2600461 396.643200
   7000   6996   7002     1   110.2600474 425.931200
   7000   6996   7001     1   108.4600466 328.025600
   7001   6996   7002     1   110.2600474 425.931200
   7005   7006   7008     1   109.5600471 388.275200
   7005   7019   7023     1   109.5600471 388.275200
   7005   7019   7024     1   109.5600471 388.275200
   7006   7009   7013     1   109.5600471 388.275200
   7006   7018   7021     1   107.2600461 396.643200
   7006   7005   7007     1   109.5600471 388.275200
   7007   7005   7019     1   109.5600471 388.275200
   7007   7005   7027     1   109.7800468 425.094400
   7008   7006   7009     1   109.5600471 388.275200
   7008   7006   7018     1   110.2600474 425.931200
   7009   7010   7012     1   109.5600471 388.275200
   7009   7017   7020     1   107.2600461 396.643200
   7010   7011   7014     1   110.2200475 386.601600
   7010   7016   7022     1   107.2600461 396.643200
   7010   7009   7013     1   109.5600471 388.275200
   7011   7010   7012     1   109.5600471 388.275200
   7012   7010   7016     1   110.2600474 425.931200
   7013   7009   7017     1   110.2600474 425.931200
   7014   7011   7015     1   109.5800467 425.931200
   7014   7011   7027     1   109.5800467 425.931200
   7019   7025   7026     1   107.2600461 396.643200
   7023   7019   7025     1   110.2600474 425.931200
   7023   7019   7024     1   108.4600466 328.025600
   7024   7019   7025     1   110.2600474 425.931200
   7028   7029   7031     1   109.5600471 388.275200
   7028   7042   7046     1   109.5600471 388.275200
   7028   7042   7047     1   109.5600471 388.275200
   7029   7028   7030     1   109.5600471 388.275200
   7029   7032   7036     1   109.5600471 388.275200
   7029   7041   7044     1   107.2600461 396.643200
   7030   7028   7042     1   109.5600471 388.275200
   7030   7028   7050     1   109.7800468 425.094400
   7031   7029   7032     1   109.5600471 388.275200
   7031   7029   7041     1   110.2600474 425.931200
   7032   7033   7035     1   109.5600471 388.275200
   7032   7040   7043     1   107.2600461 396.643200
   7033   7032   7036     1   109.5600471 388.275200
   7033   7034   7037     1   110.2200475 386.601600
   7033   7039   7045     1   107.2600461 396.643200
   7034   7033   7035     1   109.5600471 388.275200
   7035   7033   7039     1   110.2600474 425.931200
   7036   7032   7040     1   110.2600474 425.931200
   7037   7034   7038     1   109.5800467 425.931200
   7037   7034   7050     1   109.5800467 425.931200
   7042   7048   7049     1   107.2600461 396.643200
   7046   7042   7048     1   110.2600474 425.931200
   7046   7042   7047     1   108.4600466 328.025600
   7047   7042   7048     1   110.2600474 425.931200
   7051   7052   7054     1   109.5600471 388.275200
   7051   7065   7069     1   109.5600471 388.275200
   7051   7065   7070     1   109.5600471 388.275200
   7052   7055   7059     1   109.5600471 388.275200
   7052   7064   7067     1   107.2600461 396.643200
   7052   7051   7053     1   109.5600471 388.275200
   7053   7051   7065     1   109.5600471 388.275200
   7053   7051   7073     1   109.7800468 425.094400
   7054   7052   7055     1   109.5600471 388.275200
   7054   7052   7064     1   110.2600474 425.931200
   7055   7056   7058     1   109.5600471 388.275200
   7055   7063   7066     1   107.2600461 396.643200
   7056   7057   7060     1   110.2200475 386.601600
   7056   7062   7068     1   107.2600461 396.643200
   7056   7055   7059     1   109.5600471 388.275200
   7057   7056   7058     1   109.5600471 388.275200
   7058   7056   7062     1   110.2600474 425.931200
   7059   7055   7063     1   110.2600474 425.931200
   7060   7057   7061     1   109.5800467 425.931200
   7060   7057   7073     1   109.5800467 425.931200
   7065   7071   7072     1   107.2600461 396.643200
   7069   7065   7071     1   110.2600474 425.931200
   7069   7065   7070     1   108.4600466 328.025600
   7070   7065   7071     1   110.2600474 425.931200
   7074   7075   7077     1   109.5600471 388.275200
   7074   7088   7092     1   109.5600471 388.275200
   7074   7088   7093     1   109.5600471 388.275200
   7075   7074   7076     1   109.5600471 388.275200
   7075   7078   7082     1   109.5600471 388.275200
   7075   7087   7090     1   107.2600461 396.643200
   7076   7074   7088     1   109.5600471 388.275200
   7076   7074   7096     1   109.7800468 425.094400
   7077   7075   7078     1   109.5600471 388.275200
   7077   7075   7087     1   110.2600474 425.931200
   7078   7079   7081     1   109.5600471 388.275200
   7078   7086   7089     1   107.2600461 396.643200
   7079   7078   7082     1   109.5600471 388.275200
   7079   7080   7083     1   110.2200475 386.601600
   7079   7085   7091     1   107.2600461 396.643200
   7080   7079   7081     1   109.5600471 388.275200
   7081   7079   7085     1   110.2600474 425.931200
   7082   7078   7086     1   110.2600474 425.931200
   7083   7080   7084     1   109.5800467 425.931200
   7083   7080   7096     1   109.5800467 425.931200
   7088   7094   7095     1   107.2600461 396.643200
   7092   7088   7094     1   110.2600474 425.931200
   7092   7088   7093     1   108.4600466 328.025600
   7093   7088   7094     1   110.2600474 425.931200
   7097   7098   7100     1   109.5600471 388.275200
   7097   7111   7115     1   109.5600471 388.275200
   7097   7111   7116     1   109.5600471 388.275200
   7098   7101   7105     1   109.5600471 388.275200
   7098   7110   7113     1   107.2600461 396.643200
   7098   7097   7099     1   109.5600471 388.275200
   7099   7097   7111     1   109.5600471 388.275200
   7099   7097   7119     1   109.7800468 425.094400
   7100   7098   7101     1   109.5600471 388.275200
   7100   7098   7110     1   110.2600474 425.931200
   7101   7102   7104     1   109.5600471 388.275200
   7101   7109   7112     1   107.2600461 396.643200
   7102   7103   7106     1   110.2200475 386.601600
   7102   7108   7114     1   107.2600461 396.643200
   7102   7101   7105     1   109.5600471 388.275200
   7103   7102   7104     1   109.5600471 388.275200
   7104   7102   7108     1   110.2600474 425.931200
   7105   7101   7109     1   110.2600474 425.931200
   7106   7103   7107     1   109.5800467 425.931200
   7106   7103   7119     1   109.5800467 425.931200
   7111   7117   7118     1   107.2600461 396.643200
   7115   7111   7117     1   110.2600474 425.931200
   7115   7111   7116     1   108.4600466 328.025600
   7116   7111   7117     1   110.2600474 425.931200
   7120   7121   7123     1   109.5600471 388.275200
   7120   7134   7138     1   109.5600471 388.275200
   7120   7134   7139     1   109.5600471 388.275200
   7121   7120   7122     1   109.5600471 388.275200
   7121   7124   7128     1   109.5600471 388.275200
   7121   7133   7136     1   107.2600461 396.643200
   7122   7120   7134     1   109.5600471 388.275200
   7122   7120   7142     1   109.7800468 425.094400
   7123   7121   7124     1   109.5600471 388.275200
   7123   7121   7133     1   110.2600474 425.931200
   7124   7125   7127     1   109.5600471 388.275200
   7124   7132   7135     1   107.2600461 396.643200
   7125   7124   7128     1   109.5600471 388.275200
   7125   7126   7129     1   110.2200475 386.601600
   7125   7131   7137     1   107.2600461 396.643200
   7126   7125   7127     1   109.5600471 388.275200
   7127   7125   7131     1   110.2600474 425.931200
   7128   7124   7132     1   110.2600474 425.931200
   7129   7126   7130     1   109.5800467 425.931200
   7129   7126   7142     1   109.5800467 425.931200
   7134   7140   7141     1   107.2600461 396.643200
   7138   7134   7140     1   110.2600474 425.931200
   7138   7134   7139     1   108.4600466 328.025600
   7139   7134   7140     1   110.2600474 425.931200
   7143   7144   7146     1   109.5600471 388.275200
   7143   7157   7161     1   109.5600471 388.275200
   7143   7157   7162     1   109.5600471 388.275200
   7144   7147   7151     1   109.5600471 388.275200
   7144   7156   7159     1   107.2600461 396.643200
   7144   7143   7145     1   109.5600471 388.275200
   7145   7143   7157     1   109.5600471 388.275200
   7145   7143   7165     1   109.7800468 425.094400
   7146   7144   7147     1   109.5600471 388.275200
   7146   7144   7156     1   110.2600474 425.931200
   7147   7148   7150     1   109.5600471 388.275200
   7147   7155   7158     1   107.2600461 396.643200
   7148   7149   7152     1   110.2200475 386.601600
   7148   7154   7160     1   107.2600461 396.643200
   7148   7147   7151     1   109.5600471 388.275200
   7149   7148   7150     1   109.5600471 388.275200
   7150   7148   7154     1   110.2600474 425.931200
   7151   7147   7155     1   110.2600474 425.931200
   7152   7149   7153     1   109.5800467 425.931200
   7152   7149   7165     1   109.5800467 425.931200
   7157   7163   7164     1   107.2600461 396.643200
   7161   7157   7163     1   110.2600474 425.931200
   7161   7157   7162     1   108.4600466 328.025600
   7162   7157   7163     1   110.2600474 425.931200
   7166   7167   7169     1   109.5600471 388.275200
   7166   7180   7184     1   109.5600471 388.275200
   7166   7180   7185     1   109.5600471 388.275200
   7167   7166   7168     1   109.5600471 388.275200
   7167   7170   7174     1   109.5600471 388.275200
   7167   7179   7182     1   107.2600461 396.643200
   7168   7166   7180     1   109.5600471 388.275200
   7168   7166   7188     1   109.7800468 425.094400
   7169   7167   7170     1   109.5600471 388.275200
   7169   7167   7179     1   110.2600474 425.931200
   7170   7171   7173     1   109.5600471 388.275200
   7170   7178   7181     1   107.2600461 396.643200
   7171   7170   7174     1   109.5600471 388.275200
   7171   7172   7175     1   110.2200475 386.601600
   7171   7177   7183     1   107.2600461 396.643200
   7172   7171   7173     1   109.5600471 388.275200
   7173   7171   7177     1   110.2600474 425.931200
   7174   7170   7178     1   110.2600474 425.931200
   7175   7172   7176     1   109.5800467 425.931200
   7175   7172   7188     1   109.5800467 425.931200
   7180   7186   7187     1   107.2600461 396.643200
   7184   7180   7186     1   110.2600474 425.931200
   7184   7180   7185     1   108.4600466 328.025600
   7185   7180   7186     1   110.2600474 425.931200
   7189   7190   7192     1   109.5600471 388.275200
   7189   7203   7207     1   109.5600471 388.275200
   7189   7203   7208     1   109.5600471 388.275200
   7190   7193   7197     1   109.5600471 388.275200
   7190   7202   7205     1   107.2600461 396.643200
   7190   7189   7191     1   109.5600471 388.275200
   7191   7189   7203     1   109.5600471 388.275200
   7191   7189   7211     1   109.7800468 425.094400
   7192   7190   7193     1   109.5600471 388.275200
   7192   7190   7202     1   110.2600474 425.931200
   7193   7194   7196     1   109.5600471 388.275200
   7193   7201   7204     1   107.2600461 396.643200
   7194   7195   7198     1   110.2200475 386.601600
   7194   7200   7206     1   107.2600461 396.643200
   7194   7193   7197     1   109.5600471 388.275200
   7195   7194   7196     1   109.5600471 388.275200
   7196   7194   7200     1   110.2600474 425.931200
   7197   7193   7201     1   110.2600474 425.931200
   7198   7195   7199     1   109.5800467 425.931200
   7198   7195   7211     1   109.5800467 425.931200
   7203   7209   7210     1   107.2600461 396.643200
   7207   7203   7209     1   110.2600474 425.931200
   7207   7203   7208     1   108.4600466 328.025600
   7208   7203   7209     1   110.2600474 425.931200
   7212   7213   7215     1   109.5600471 388.275200
   7212   7226   7230     1   109.5600471 388.275200
   7212   7226   7231     1   109.5600471 388.275200
   7213   7212   7214     1   109.5600471 388.275200
   7213   7216   7220     1   109.5600471 388.275200
   7213   7225   7228     1   107.2600461 396.643200
   7214   7212   7226     1   109.5600471 388.275200
   7214   7212   7234     1   109.7800468 425.094400
   7215   7213   7216     1   109.5600471 388.275200
   7215   7213   7225     1   110.2600474 425.931200
   7216   7217   7219     1   109.5600471 388.275200
   7216   7224   7227     1   107.2600461 396.643200
   7217   7216   7220     1   109.5600471 388.275200
   7217   7218   7221     1   110.2200475 386.601600
   7217   7223   7229     1   107.2600461 396.643200
   7218   7217   7219     1   109.5600471 388.275200
   7219   7217   7223     1   110.2600474 425.931200
   7220   7216   7224     1   110.2600474 425.931200
   7221   7218   7222     1   109.5800467 425.931200
   7221   7218   7234     1   109.5800467 425.931200
   7226   7232   7233     1   107.2600461 396.643200
   7230   7226   7232     1   110.2600474 425.931200
   7230   7226   7231     1   108.4600466 328.025600
   7231   7226   7232     1   110.2600474 425.931200
   7235   7236   7238     1   109.5600471 388.275200
   7235   7249   7253     1   109.5600471 388.275200
   7235   7249   7254     1   109.5600471 388.275200
   7236   7239   7243     1   109.5600471 388.275200
   7236   7248   7251     1   107.2600461 396.643200
   7236   7235   7237     1   109.5600471 388.275200
   7237   7235   7249     1   109.5600471 388.275200
   7237   7235   7257     1   109.7800468 425.094400
   7238   7236   7239     1   109.5600471 388.275200
   7238   7236   7248     1   110.2600474 425.931200
   7239   7240   7242     1   109.5600471 388.275200
   7239   7247   7250     1   107.2600461 396.643200
   7240   7241   7244     1   110.2200475 386.601600
   7240   7246   7252     1   107.2600461 396.643200
   7240   7239   7243     1   109.5600471 388.275200
   7241   7240   7242     1   109.5600471 388.275200
   7242   7240   7246     1   110.2600474 425.931200
   7243   7239   7247     1   110.2600474 425.931200
   7244   7241   7245     1   109.5800467 425.931200
   7244   7241   7257     1   109.5800467 425.931200
   7249   7255   7256     1   107.2600461 396.643200
   7253   7249   7255     1   110.2600474 425.931200
   7253   7249   7254     1   108.4600466 328.025600
   7254   7249   7255     1   110.2600474 425.931200
   7258   7259   7261     1   109.5600471 388.275200
   7258   7272   7276     1   109.5600471 388.275200
   7258   7272   7277     1   109.5600471 388.275200
   7259   7258   7260     1   109.5600471 388.275200
   7259   7262   7266     1   109.5600471 388.275200
   7259   7271   7274     1   107.2600461 396.643200
   7260   7258   7272     1   109.5600471 388.275200
   7260   7258   7280     1   109.7800468 425.094400
   7261   7259   7262     1   109.5600471 388.275200
   7261   7259   7271     1   110.2600474 425.931200
   7262   7263   7265     1   109.5600471 388.275200
   7262   7270   7273     1   107.2600461 396.643200
   7263   7262   7266     1   109.5600471 388.275200
   7263   7264   7267     1   110.2200475 386.601600
   7263   7269   7275     1   107.2600461 396.643200
   7264   7263   7265     1   109.5600471 388.275200
   7265   7263   7269     1   110.2600474 425.931200
   7266   7262   7270     1   110.2600474 425.931200
   7267   7264   7268     1   109.5800467 425.931200
   7267   7264   7280     1   109.5800467 425.931200
   7272   7278   7279     1   107.2600461 396.643200
   7276   7272   7278     1   110.2600474 425.931200
   7276   7272   7277     1   108.4600466 328.025600
   7277   7272   7278     1   110.2600474 425.931200
   7281   7282   7284     1   109.5600471 388.275200
   7281   7295   7299     1   109.5600471 388.275200
   7281   7295   7300     1   109.5600471 388.275200
   7282   7285   7289     1   109.5600471 388.275200
   7282   7294   7297     1   107.2600461 396.643200
   7282   7281   7283     1   109.5600471 388.275200
   7283   7281   7295     1   109.5600471 388.275200
   7283   7281   7303     1   109.7800468 425.094400
   7284   7282   7285     1   109.5600471 388.275200
   7284   7282   7294     1   110.2600474 425.931200
   7285   7286   7288     1   109.5600471 388.275200
   7285   7293   7296     1   107.2600461 396.643200
   7286   7287   7290     1   110.2200475 386.601600
   7286   7292   7298     1   107.2600461 396.643200
   7286   7285   7289     1   109.5600471 388.275200
   7287   7286   7288     1   109.5600471 388.275200
   7288   7286   7292     1   110.2600474 425.931200
   7289   7285   7293     1   110.2600474 425.931200
   7290   7287   7291     1   109.5800467 425.931200
   7290   7287   7303     1   109.5800467 425.931200
   7295   7301   7302     1   107.2600461 396.643200
   7299   7295   7301     1   110.2600474 425.931200
   7299   7295   7300     1   108.4600466 328.025600
   7300   7295   7301     1   110.2600474 425.931200
   7304   7305   7307     1   109.5600471 388.275200
   7304   7318   7322     1   109.5600471 388.275200
   7304   7318   7323     1   109.5600471 388.275200
   7305   7304   7306     1   109.5600471 388.275200
   7305   7308   7312     1   109.5600471 388.275200
   7305   7317   7320     1   107.2600461 396.643200
   7306   7304   7318     1   109.5600471 388.275200
   7306   7304   7326     1   109.7800468 425.094400
   7307   7305   7308     1   109.5600471 388.275200
   7307   7305   7317     1   110.2600474 425.931200
   7308   7309   7311     1   109.5600471 388.275200
   7308   7316   7319     1   107.2600461 396.643200
   7309   7308   7312     1   109.5600471 388.275200
   7309   7310   7313     1   110.2200475 386.601600
   7309   7315   7321     1   107.2600461 396.643200
   7310   7309   7311     1   109.5600471 388.275200
   7311   7309   7315     1   110.2600474 425.931200
   7312   7308   7316     1   110.2600474 425.931200
   7313   7310   7314     1   109.5800467 425.931200
   7313   7310   7326     1   109.5800467 425.931200
   7318   7324   7325     1   107.2600461 396.643200
   7322   7318   7324     1   110.2600474 425.931200
   7322   7318   7323     1   108.4600466 328.025600
   7323   7318   7324     1   110.2600474 425.931200
   7327   7328   7330     1   109.5600471 388.275200
   7327   7341   7345     1   109.5600471 388.275200
   7327   7341   7346     1   109.5600471 388.275200
   7328   7331   7335     1   109.5600471 388.275200
   7328   7340   7343     1   107.2600461 396.643200
   7328   7327   7329     1   109.5600471 388.275200
   7329   7327   7341     1   109.5600471 388.275200
   7329   7327   7349     1   109.7800468 425.094400
   7330   7328   7331     1   109.5600471 388.275200
   7330   7328   7340     1   110.2600474 425.931200
   7331   7332   7334     1   109.5600471 388.275200
   7331   7339   7342     1   107.2600461 396.643200
   7332   7333   7336     1   110.2200475 386.601600
   7332   7338   7344     1   107.2600461 396.643200
   7332   7331   7335     1   109.5600471 388.275200
   7333   7332   7334     1   109.5600471 388.275200
   7334   7332   7338     1   110.2600474 425.931200
   7335   7331   7339     1   110.2600474 425.931200
   7336   7333   7337     1   109.5800467 425.931200
   7336   7333   7349     1   109.5800467 425.931200
   7341   7347   7348     1   107.2600461 396.643200
   7345   7341   7347     1   110.2600474 425.931200
   7345   7341   7346     1   108.4600466 328.025600
   7346   7341   7347     1   110.2600474 425.931200
   7350   7351   7353     1   109.5600471 388.275200
   7350   7364   7368     1   109.5600471 388.275200
   7350   7364   7369     1   109.5600471 388.275200
   7351   7350   7352     1   109.5600471 388.275200
   7351   7354   7358     1   109.5600471 388.275200
   7351   7363   7366     1   107.2600461 396.643200
   7352   7350   7364     1   109.5600471 388.275200
   7352   7350   7372     1   109.7800468 425.094400
   7353   7351   7354     1   109.5600471 388.275200
   7353   7351   7363     1   110.2600474 425.931200
   7354   7355   7357     1   109.5600471 388.275200
   7354   7362   7365     1   107.2600461 396.643200
   7355   7354   7358     1   109.5600471 388.275200
   7355   7356   7359     1   110.2200475 386.601600
   7355   7361   7367     1   107.2600461 396.643200
   7356   7355   7357     1   109.5600471 388.275200
   7357   7355   7361     1   110.2600474 425.931200
   7358   7354   7362     1   110.2600474 425.931200
   7359   7356   7360     1   109.5800467 425.931200
   7359   7356   7372     1   109.5800467 425.931200
   7364   7370   7371     1   107.2600461 396.643200
   7368   7364   7370     1   110.2600474 425.931200
   7368   7364   7369     1   108.4600466 328.025600
   7369   7364   7370     1   110.2600474 425.931200
   7373   7374   7376     1   109.5600471 388.275200
   7373   7387   7391     1   109.5600471 388.275200
   7373   7387   7392     1   109.5600471 388.275200
   7374   7377   7381     1   109.5600471 388.275200
   7374   7386   7389     1   107.2600461 396.643200
   7374   7373   7375     1   109.5600471 388.275200
   7375   7373   7387     1   109.5600471 388.275200
   7375   7373   7395     1   109.7800468 425.094400
   7376   7374   7377     1   109.5600471 388.275200
   7376   7374   7386     1   110.2600474 425.931200
   7377   7378   7380     1   109.5600471 388.275200
   7377   7385   7388     1   107.2600461 396.643200
   7378   7379   7382     1   110.2200475 386.601600
   7378   7384   7390     1   107.2600461 396.643200
   7378   7377   7381     1   109.5600471 388.275200
   7379   7378   7380     1   109.5600471 388.275200
   7380   7378   7384     1   110.2600474 425.931200
   7381   7377   7385     1   110.2600474 425.931200
   7382   7379   7383     1   109.5800467 425.931200
   7382   7379   7395     1   109.5800467 425.931200
   7387   7393   7394     1   107.2600461 396.643200
   7391   7387   7393     1   110.2600474 425.931200
   7391   7387   7392     1   108.4600466 328.025600
   7392   7387   7393     1   110.2600474 425.931200
   7396   7397   7399     1   109.5600471 388.275200
   7396   7410   7414     1   109.5600471 388.275200
   7396   7410   7415     1   109.5600471 388.275200
   7397   7396   7398     1   109.5600471 388.275200
   7397   7400   7404     1   109.5600471 388.275200
   7397   7409   7412     1   107.2600461 396.643200
   7398   7396   7410     1   109.5600471 388.275200
   7398   7396   7418     1   109.7800468 425.094400
   7399   7397   7400     1   109.5600471 388.275200
   7399   7397   7409     1   110.2600474 425.931200
   7400   7401   7403     1   109.5600471 388.275200
   7400   7408   7411     1   107.2600461 396.643200
   7401   7400   7404     1   109.5600471 388.275200
   7401   7402   7405     1   110.2200475 386.601600
   7401   7407   7413     1   107.2600461 396.643200
   7402   7401   7403     1   109.5600471 388.275200
   7403   7401   7407     1   110.2600474 425.931200
   7404   7400   7408     1   110.2600474 425.931200
   7405   7402   7406     1   109.5800467 425.931200
   7405   7402   7418     1   109.5800467 425.931200
   7410   7416   7417     1   107.2600461 396.643200
   7414   7410   7416     1   110.2600474 425.931200
   7414   7410   7415     1   108.4600466 328.025600
   7415   7410   7416     1   110.2600474 425.931200
   7419   7420   7422     1   109.5600471 388.275200
   7419   7433   7437     1   109.5600471 388.275200
   7419   7433   7438     1   109.5600471 388.275200
   7420   7423   7427     1   109.5600471 388.275200
   7420   7432   7435     1   107.2600461 396.643200
   7420   7419   7421     1   109.5600471 388.275200
   7421   7419   7433     1   109.5600471 388.275200
   7421   7419   7441     1   109.7800468 425.094400
   7422   7420   7423     1   109.5600471 388.275200
   7422   7420   7432     1   110.2600474 425.931200
   7423   7424   7426     1   109.5600471 388.275200
   7423   7431   7434     1   107.2600461 396.643200
   7424   7425   7428     1   110.2200475 386.601600
   7424   7430   7436     1   107.2600461 396.643200
   7424   7423   7427     1   109.5600471 388.275200
   7425   7424   7426     1   109.5600471 388.275200
   7426   7424   7430     1   110.2600474 425.931200
   7427   7423   7431     1   110.2600474 425.931200
   7428   7425   7429     1   109.5800467 425.931200
   7428   7425   7441     1   109.5800467 425.931200
   7433   7439   7440     1   107.2600461 396.643200
   7437   7433   7439     1   110.2600474 425.931200
   7437   7433   7438     1   108.4600466 328.025600
   7438   7433   7439     1   110.2600474 425.931200
   7442   7443   7445     1   109.5600471 388.275200
   7442   7456   7460     1   109.5600471 388.275200
   7442   7456   7461     1   109.5600471 388.275200
   7443   7442   7444     1   109.5600471 388.275200
   7443   7446   7450     1   109.5600471 388.275200
   7443   7455   7458     1   107.2600461 396.643200
   7444   7442   7456     1   109.5600471 388.275200
   7444   7442   7464     1   109.7800468 425.094400
   7445   7443   7446     1   109.5600471 388.275200
   7445   7443   7455     1   110.2600474 425.931200
   7446   7447   7449     1   109.5600471 388.275200
   7446   7454   7457     1   107.2600461 396.643200
   7447   7446   7450     1   109.5600471 388.275200
   7447   7448   7451     1   110.2200475 386.601600
   7447   7453   7459     1   107.2600461 396.643200
   7448   7447   7449     1   109.5600471 388.275200
   7449   7447   7453     1   110.2600474 425.931200
   7450   7446   7454     1   110.2600474 425.931200
   7451   7448   7452     1   109.5800467 425.931200
   7451   7448   7464     1   109.5800467 425.931200
   7456   7462   7463     1   107.2600461 396.643200
   7460   7456   7462     1   110.2600474 425.931200
   7460   7456   7461     1   108.4600466 328.025600
   7461   7456   7462     1   110.2600474 425.931200
   7465   7466   7468     1   109.5600471 388.275200
   7465   7479   7483     1   109.5600471 388.275200
   7465   7479   7484     1   109.5600471 388.275200
   7466   7469   7473     1   109.5600471 388.275200
   7466   7478   7481     1   107.2600461 396.643200
   7466   7465   7467     1   109.5600471 388.275200
   7467   7465   7479     1   109.5600471 388.275200
   7467   7465   7487     1   109.7800468 425.094400
   7468   7466   7469     1   109.5600471 388.275200
   7468   7466   7478     1   110.2600474 425.931200
   7469   7470   7472     1   109.5600471 388.275200
   7469   7477   7480     1   107.2600461 396.643200
   7470   7471   7474     1   110.2200475 386.601600
   7470   7476   7482     1   107.2600461 396.643200
   7470   7469   7473     1   109.5600471 388.275200
   7471   7470   7472     1   109.5600471 388.275200
   7472   7470   7476     1   110.2600474 425.931200
   7473   7469   7477     1   110.2600474 425.931200
   7474   7471   7475     1   109.5800467 425.931200
   7474   7471   7487     1   109.5800467 425.931200
   7479   7485   7486     1   107.2600461 396.643200
   7483   7479   7485     1   110.2600474 425.931200
   7483   7479   7484     1   108.4600466 328.025600
   7484   7479   7485     1   110.2600474 425.931200
   7488   7489   7491     1   109.5600471 388.275200
   7488   7502   7506     1   109.5600471 388.275200
   7488   7502   7507     1   109.5600471 388.275200
   7489   7488   7490     1   109.5600471 388.275200
   7489   7492   7496     1   109.5600471 388.275200
   7489   7501   7504     1   107.2600461 396.643200
   7490   7488   7502     1   109.5600471 388.275200
   7490   7488   7510     1   109.7800468 425.094400
   7491   7489   7492     1   109.5600471 388.275200
   7491   7489   7501     1   110.2600474 425.931200
   7492   7493   7495     1   109.5600471 388.275200
   7492   7500   7503     1   107.2600461 396.643200
   7493   7492   7496     1   109.5600471 388.275200
   7493   7494   7497     1   110.2200475 386.601600
   7493   7499   7505     1   107.2600461 396.643200
   7494   7493   7495     1   109.5600471 388.275200
   7495   7493   7499     1   110.2600474 425.931200
   7496   7492   7500     1   110.2600474 425.931200
   7497   7494   7498     1   109.5800467 425.931200
   7497   7494   7510     1   109.5800467 425.931200
   7502   7508   7509     1   107.2600461 396.643200
   7506   7502   7508     1   110.2600474 425.931200
   7506   7502   7507     1   108.4600466 328.025600
   7507   7502   7508     1   110.2600474 425.931200
   7511   7512   7514     1   109.5600471 388.275200
   7511   7525   7529     1   109.5600471 388.275200
   7511   7525   7530     1   109.5600471 388.275200
   7512   7515   7519     1   109.5600471 388.275200
   7512   7524   7527     1   107.2600461 396.643200
   7512   7511   7513     1   109.5600471 388.275200
   7513   7511   7525     1   109.5600471 388.275200
   7513   7511   7533     1   109.7800468 425.094400
   7514   7512   7515     1   109.5600471 388.275200
   7514   7512   7524     1   110.2600474 425.931200
   7515   7516   7518     1   109.5600471 388.275200
   7515   7523   7526     1   107.2600461 396.643200
   7516   7517   7520     1   110.2200475 386.601600
   7516   7522   7528     1   107.2600461 396.643200
   7516   7515   7519     1   109.5600471 388.275200
   7517   7516   7518     1   109.5600471 388.275200
   7518   7516   7522     1   110.2600474 425.931200
   7519   7515   7523     1   110.2600474 425.931200
   7520   7517   7521     1   109.5800467 425.931200
   7520   7517   7533     1   109.5800467 425.931200
   7525   7531   7532     1   107.2600461 396.643200
   7529   7525   7531     1   110.2600474 425.931200
   7529   7525   7530     1   108.4600466 328.025600
   7530   7525   7531     1   110.2600474 425.931200
   7534   7535   7537     1   109.5600471 388.275200
   7534   7548   7552     1   109.5600471 388.275200
   7534   7548   7553     1   109.5600471 388.275200
   7535   7534   7536     1   109.5600471 388.275200
   7535   7538   7542     1   109.5600471 388.275200
   7535   7547   7550     1   107.2600461 396.643200
   7536   7534   7548     1   109.5600471 388.275200
   7536   7534   7556     1   109.7800468 425.094400
   7537   7535   7538     1   109.5600471 388.275200
   7537   7535   7547     1   110.2600474 425.931200
   7538   7539   7541     1   109.5600471 388.275200
   7538   7546   7549     1   107.2600461 396.643200
   7539   7538   7542     1   109.5600471 388.275200
   7539   7540   7543     1   110.2200475 386.601600
   7539   7545   7551     1   107.2600461 396.643200
   7540   7539   7541     1   109.5600471 388.275200
   7541   7539   7545     1   110.2600474 425.931200
   7542   7538   7546     1   110.2600474 425.931200
   7543   7540   7544     1   109.5800467 425.931200
   7543   7540   7556     1   109.5800467 425.931200
   7548   7554   7555     1   107.2600461 396.643200
   7552   7548   7554     1   110.2600474 425.931200
   7552   7548   7553     1   108.4600466 328.025600
   7553   7548   7554     1   110.2600474 425.931200
   7557   7558   7560     1   109.5600471 388.275200
   7557   7571   7575     1   109.5600471 388.275200
   7557   7571   7576     1   109.5600471 388.275200
   7558   7561   7565     1   109.5600471 388.275200
   7558   7570   7573     1   107.2600461 396.643200
   7558   7557   7559     1   109.5600471 388.275200
   7559   7557   7571     1   109.5600471 388.275200
   7559   7557   7579     1   109.7800468 425.094400
   7560   7558   7561     1   109.5600471 388.275200
   7560   7558   7570     1   110.2600474 425.931200
   7561   7562   7564     1   109.5600471 388.275200
   7561   7569   7572     1   107.2600461 396.643200
   7562   7563   7566     1   110.2200475 386.601600
   7562   7568   7574     1   107.2600461 396.643200
   7562   7561   7565     1   109.5600471 388.275200
   7563   7562   7564     1   109.5600471 388.275200
   7564   7562   7568     1   110.2600474 425.931200
   7565   7561   7569     1   110.2600474 425.931200
   7566   7563   7567     1   109.5800467 425.931200
   7566   7563   7579     1   109.5800467 425.931200
   7571   7577   7578     1   107.2600461 396.643200
   7575   7571   7577     1   110.2600474 425.931200
   7575   7571   7576     1   108.4600466 328.025600
   7576   7571   7577     1   110.2600474 425.931200
   7580   7581   7583     1   109.5600471 388.275200
   7580   7594   7598     1   109.5600471 388.275200
   7580   7594   7599     1   109.5600471 388.275200
   7581   7580   7582     1   109.5600471 388.275200
   7581   7584   7588     1   109.5600471 388.275200
   7581   7593   7596     1   107.2600461 396.643200
   7582   7580   7594     1   109.5600471 388.275200
   7582   7580   7602     1   109.7800468 425.094400
   7583   7581   7584     1   109.5600471 388.275200
   7583   7581   7593     1   110.2600474 425.931200
   7584   7585   7587     1   109.5600471 388.275200
   7584   7592   7595     1   107.2600461 396.643200
   7585   7584   7588     1   109.5600471 388.275200
   7585   7586   7589     1   110.2200475 386.601600
   7585   7591   7597     1   107.2600461 396.643200
   7586   7585   7587     1   109.5600471 388.275200
   7587   7585   7591     1   110.2600474 425.931200
   7588   7584   7592     1   110.2600474 425.931200
   7589   7586   7590     1   109.5800467 425.931200
   7589   7586   7602     1   109.5800467 425.931200
   7594   7600   7601     1   107.2600461 396.643200
   7598   7594   7600     1   110.2600474 425.931200
   7598   7594   7599     1   108.4600466 328.025600
   7599   7594   7600     1   110.2600474 425.931200
   7603   7604   7606     1   109.5600471 388.275200
   7603   7617   7621     1   109.5600471 388.275200
   7603   7617   7622     1   109.5600471 388.275200
   7604   7607   7611     1   109.5600471 388.275200
   7604   7616   7619     1   107.2600461 396.643200
   7604   7603   7605     1   109.5600471 388.275200
   7605   7603   7617     1   109.5600471 388.275200
   7605   7603   7625     1   109.7800468 425.094400
   7606   7604   7607     1   109.5600471 388.275200
   7606   7604   7616     1   110.2600474 425.931200
   7607   7608   7610     1   109.5600471 388.275200
   7607   7615   7618     1   107.2600461 396.643200
   7608   7609   7612     1   110.2200475 386.601600
   7608   7614   7620     1   107.2600461 396.643200
   7608   7607   7611     1   109.5600471 388.275200
   7609   7608   7610     1   109.5600471 388.275200
   7610   7608   7614     1   110.2600474 425.931200
   7611   7607   7615     1   110.2600474 425.931200
   7612   7609   7613     1   109.5800467 425.931200
   7612   7609   7625     1   109.5800467 425.931200
   7617   7623   7624     1   107.2600461 396.643200
   7621   7617   7623     1   110.2600474 425.931200
   7621   7617   7622     1   108.4600466 328.025600
   7622   7617   7623     1   110.2600474 425.931200
   7626   7627   7629     1   109.5600471 388.275200
   7626   7640   7644     1   109.5600471 388.275200
   7626   7640   7645     1   109.5600471 388.275200
   7627   7626   7628     1   109.5600471 388.275200
   7627   7630   7634     1   109.5600471 388.275200
   7627   7639   7642     1   107.2600461 396.643200
   7628   7626   7640     1   109.5600471 388.275200
   7628   7626   7648     1   109.7800468 425.094400
   7629   7627   7630     1   109.5600471 388.275200
   7629   7627   7639     1   110.2600474 425.931200
   7630   7631   7633     1   109.5600471 388.275200
   7630   7638   7641     1   107.2600461 396.643200
   7631   7630   7634     1   109.5600471 388.275200
   7631   7632   7635     1   110.2200475 386.601600
   7631   7637   7643     1   107.2600461 396.643200
   7632   7631   7633     1   109.5600471 388.275200
   7633   7631   7637     1   110.2600474 425.931200
   7634   7630   7638     1   110.2600474 425.931200
   7635   7632   7636     1   109.5800467 425.931200
   7635   7632   7648     1   109.5800467 425.931200
   7640   7646   7647     1   107.2600461 396.643200
   7644   7640   7646     1   110.2600474 425.931200
   7644   7640   7645     1   108.4600466 328.025600
   7645   7640   7646     1   110.2600474 425.931200
   7649   7650   7652     1   109.5600471 388.275200
   7649   7663   7667     1   109.5600471 388.275200
   7649   7663   7668     1   109.5600471 388.275200
   7650   7653   7657     1   109.5600471 388.275200
   7650   7662   7665     1   107.2600461 396.643200
   7650   7649   7651     1   109.5600471 388.275200
   7651   7649   7663     1   109.5600471 388.275200
   7651   7649   7671     1   109.7800468 425.094400
   7652   7650   7653     1   109.5600471 388.275200
   7652   7650   7662     1   110.2600474 425.931200
   7653   7654   7656     1   109.5600471 388.275200
   7653   7661   7664     1   107.2600461 396.643200
   7654   7655   7658     1   110.2200475 386.601600
   7654   7660   7666     1   107.2600461 396.643200
   7654   7653   7657     1   109.5600471 388.275200
   7655   7654   7656     1   109.5600471 388.275200
   7656   7654   7660     1   110.2600474 425.931200
   7657   7653   7661     1   110.2600474 425.931200
   7658   7655   7659     1   109.5800467 425.931200
   7658   7655   7671     1   109.5800467 425.931200
   7663   7669   7670     1   107.2600461 396.643200
   7667   7663   7669     1   110.2600474 425.931200
   7667   7663   7668     1   108.4600466 328.025600
   7668   7663   7669     1   110.2600474 425.931200
   7672   7673   7675     1   109.5600471 388.275200
   7672   7686   7690     1   109.5600471 388.275200
   7672   7686   7691     1   109.5600471 388.275200
   7673   7672   7674     1   109.5600471 388.275200
   7673   7676   7680     1   109.5600471 388.275200
   7673   7685   7688     1   107.2600461 396.643200
   7674   7672   7686     1   109.5600471 388.275200
   7674   7672   7694     1   109.7800468 425.094400
   7675   7673   7676     1   109.5600471 388.275200
   7675   7673   7685     1   110.2600474 425.931200
   7676   7677   7679     1   109.5600471 388.275200
   7676   7684   7687     1   107.2600461 396.643200
   7677   7676   7680     1   109.5600471 388.275200
   7677   7678   7681     1   110.2200475 386.601600
   7677   7683   7689     1   107.2600461 396.643200
   7678   7677   7679     1   109.5600471 388.275200
   7679   7677   7683     1   110.2600474 425.931200
   7680   7676   7684     1   110.2600474 425.931200
   7681   7678   7682     1   109.5800467 425.931200
   7681   7678   7694     1   109.5800467 425.931200
   7686   7692   7693     1   107.2600461 396.643200
   7690   7686   7692     1   110.2600474 425.931200
   7690   7686   7691     1   108.4600466 328.025600
   7691   7686   7692     1   110.2600474 425.931200
   7695   7696   7698     1   109.5600471 388.275200
   7695   7709   7713     1   109.5600471 388.275200
   7695   7709   7714     1   109.5600471 388.275200
   7696   7699   7703     1   109.5600471 388.275200
   7696   7708   7711     1   107.2600461 396.643200
   7696   7695   7697     1   109.5600471 388.275200
   7697   7695   7709     1   109.5600471 388.275200
   7697   7695   7717     1   109.7800468 425.094400
   7698   7696   7699     1   109.5600471 388.275200
   7698   7696   7708     1   110.2600474 425.931200
   7699   7700   7702     1   109.5600471 388.275200
   7699   7707   7710     1   107.2600461 396.643200
   7700   7701   7704     1   110.2200475 386.601600
   7700   7706   7712     1   107.2600461 396.643200
   7700   7699   7703     1   109.5600471 388.275200
   7701   7700   7702     1   109.5600471 388.275200
   7702   7700   7706     1   110.2600474 425.931200
   7703   7699   7707     1   110.2600474 425.931200
   7704   7701   7705     1   109.5800467 425.931200
   7704   7701   7717     1   109.5800467 425.931200
   7709   7715   7716     1   107.2600461 396.643200
   7713   7709   7715     1   110.2600474 425.931200
   7713   7709   7714     1   108.4600466 328.025600
   7714   7709   7715     1   110.2600474 425.931200
   7718   7719   7721     1   109.5600471 388.275200
   7718   7732   7736     1   109.5600471 388.275200
   7718   7732   7737     1   109.5600471 388.275200
   7719   7718   7720     1   109.5600471 388.275200
   7719   7722   7726     1   109.5600471 388.275200
   7719   7731   7734     1   107.2600461 396.643200
   7720   7718   7732     1   109.5600471 388.275200
   7720   7718   7740     1   109.7800468 425.094400
   7721   7719   7722     1   109.5600471 388.275200
   7721   7719   7731     1   110.2600474 425.931200
   7722   7723   7725     1   109.5600471 388.275200
   7722   7730   7733     1   107.2600461 396.643200
   7723   7722   7726     1   109.5600471 388.275200
   7723   7724   7727     1   110.2200475 386.601600
   7723   7729   7735     1   107.2600461 396.643200
   7724   7723   7725     1   109.5600471 388.275200
   7725   7723   7729     1   110.2600474 425.931200
   7726   7722   7730     1   110.2600474 425.931200
   7727   7724   7728     1   109.5800467 425.931200
   7727   7724   7740     1   109.5800467 425.931200
   7732   7738   7739     1   107.2600461 396.643200
   7736   7732   7738     1   110.2600474 425.931200
   7736   7732   7737     1   108.4600466 328.025600
   7737   7732   7738     1   110.2600474 425.931200
   7741   7742   7744     1   109.5600471 388.275200
   7741   7755   7759     1   109.5600471 388.275200
   7741   7755   7760     1   109.5600471 388.275200
   7742   7745   7749     1   109.5600471 388.275200
   7742   7754   7757     1   107.2600461 396.643200
   7742   7741   7743     1   109.5600471 388.275200
   7743   7741   7755     1   109.5600471 388.275200
   7743   7741   7763     1   109.7800468 425.094400
   7744   7742   7745     1   109.5600471 388.275200
   7744   7742   7754     1   110.2600474 425.931200
   7745   7746   7748     1   109.5600471 388.275200
   7745   7753   7756     1   107.2600461 396.643200
   7746   7747   7750     1   110.2200475 386.601600
   7746   7752   7758     1   107.2600461 396.643200
   7746   7745   7749     1   109.5600471 388.275200
   7747   7746   7748     1   109.5600471 388.275200
   7748   7746   7752     1   110.2600474 425.931200
   7749   7745   7753     1   110.2600474 425.931200
   7750   7747   7751     1   109.5800467 425.931200
   7750   7747   7763     1   109.5800467 425.931200
   7755   7761   7762     1   107.2600461 396.643200
   7759   7755   7761     1   110.2600474 425.931200
   7759   7755   7760     1   108.4600466 328.025600
   7760   7755   7761     1   110.2600474 425.931200
   7764   7765   7767     1   109.5600471 388.275200
   7764   7778   7782     1   109.5600471 388.275200
   7764   7778   7783     1   109.5600471 388.275200
   7765   7764   7766     1   109.5600471 388.275200
   7765   7768   7772     1   109.5600471 388.275200
   7765   7777   7780     1   107.2600461 396.643200
   7766   7764   7778     1   109.5600471 388.275200
   7766   7764   7786     1   109.7800468 425.094400
   7767   7765   7768     1   109.5600471 388.275200
   7767   7765   7777     1   110.2600474 425.931200
   7768   7769   7771     1   109.5600471 388.275200
   7768   7776   7779     1   107.2600461 396.643200
   7769   7768   7772     1   109.5600471 388.275200
   7769   7770   7773     1   110.2200475 386.601600
   7769   7775   7781     1   107.2600461 396.643200
   7770   7769   7771     1   109.5600471 388.275200
   7771   7769   7775     1   110.2600474 425.931200
   7772   7768   7776     1   110.2600474 425.931200
   7773   7770   7774     1   109.5800467 425.931200
   7773   7770   7786     1   109.5800467 425.931200
   7778   7784   7785     1   107.2600461 396.643200
   7782   7778   7784     1   110.2600474 425.931200
   7782   7778   7783     1   108.4600466 328.025600
   7783   7778   7784     1   110.2600474 425.931200
   7787   7788   7790     1   109.5600471 388.275200
   7787   7801   7805     1   109.5600471 388.275200
   7787   7801   7806     1   109.5600471 388.275200
   7788   7791   7795     1   109.5600471 388.275200
   7788   7800   7803     1   107.2600461 396.643200
   7788   7787   7789     1   109.5600471 388.275200
   7789   7787   7801     1   109.5600471 388.275200
   7789   7787   7809     1   109.7800468 425.094400
   7790   7788   7791     1   109.5600471 388.275200
   7790   7788   7800     1   110.2600474 425.931200
   7791   7792   7794     1   109.5600471 388.275200
   7791   7799   7802     1   107.2600461 396.643200
   7792   7793   7796     1   110.2200475 386.601600
   7792   7798   7804     1   107.2600461 396.643200
   7792   7791   7795     1   109.5600471 388.275200
   7793   7792   7794     1   109.5600471 388.275200
   7794   7792   7798     1   110.2600474 425.931200
   7795   7791   7799     1   110.2600474 425.931200
   7796   7793   7797     1   109.5800467 425.931200
   7796   7793   7809     1   109.5800467 425.931200
   7801   7807   7808     1   107.2600461 396.643200
   7805   7801   7807     1   110.2600474 425.931200
   7805   7801   7806     1   108.4600466 328.025600
   7806   7801   7807     1   110.2600474 425.931200
   7810   7811   7813     1   109.5600471 388.275200
   7810   7824   7828     1   109.5600471 388.275200
   7810   7824   7829     1   109.5600471 388.275200
   7811   7810   7812     1   109.5600471 388.275200
   7811   7814   7818     1   109.5600471 388.275200
   7811   7823   7826     1   107.2600461 396.643200
   7812   7810   7824     1   109.5600471 388.275200
   7812   7810   7832     1   109.7800468 425.094400
   7813   7811   7814     1   109.5600471 388.275200
   7813   7811   7823     1   110.2600474 425.931200
   7814   7815   7817     1   109.5600471 388.275200
   7814   7822   7825     1   107.2600461 396.643200
   7815   7814   7818     1   109.5600471 388.275200
   7815   7816   7819     1   110.2200475 386.601600
   7815   7821   7827     1   107.2600461 396.643200
   7816   7815   7817     1   109.5600471 388.275200
   7817   7815   7821     1   110.2600474 425.931200
   7818   7814   7822     1   110.2600474 425.931200
   7819   7816   7820     1   109.5800467 425.931200
   7819   7816   7832     1   109.5800467 425.931200
   7824   7830   7831     1   107.2600461 396.643200
   7828   7824   7830     1   110.2600474 425.931200
   7828   7824   7829     1   108.4600466 328.025600
   7829   7824   7830     1   110.2600474 425.931200
   7833   7834   7836     1   109.5600471 388.275200
   7833   7847   7851     1   109.5600471 388.275200
   7833   7847   7852     1   109.5600471 388.275200
   7834   7837   7841     1   109.5600471 388.275200
   7834   7846   7849     1   107.2600461 396.643200
   7834   7833   7835     1   109.5600471 388.275200
   7835   7833   7847     1   109.5600471 388.275200
   7835   7833   7855     1   109.7800468 425.094400
   7836   7834   7837     1   109.5600471 388.275200
   7836   7834   7846     1   110.2600474 425.931200
   7837   7838   7840     1   109.5600471 388.275200
   7837   7845   7848     1   107.2600461 396.643200
   7838   7839   7842     1   110.2200475 386.601600
   7838   7844   7850     1   107.2600461 396.643200
   7838   7837   7841     1   109.5600471 388.275200
   7839   7838   7840     1   109.5600471 388.275200
   7840   7838   7844     1   110.2600474 425.931200
   7841   7837   7845     1   110.2600474 425.931200
   7842   7839   7843     1   109.5800467 425.931200
   7842   7839   7855     1   109.5800467 425.931200
   7847   7853   7854     1   107.2600461 396.643200
   7851   7847   7853     1   110.2600474 425.931200
   7851   7847   7852     1   108.4600466 328.025600
   7852   7847   7853     1   110.2600474 425.931200
   7856   7857   7859     1   109.5600471 388.275200
   7856   7870   7874     1   109.5600471 388.275200
   7856   7870   7875     1   109.5600471 388.275200
   7857   7856   7858     1   109.5600471 388.275200
   7857   7860   7864     1   109.5600471 388.275200
   7857   7869   7872     1   107.2600461 396.643200
   7858   7856   7870     1   109.5600471 388.275200
   7858   7856   7878     1   109.7800468 425.094400
   7859   7857   7860     1   109.5600471 388.275200
   7859   7857   7869     1   110.2600474 425.931200
   7860   7861   7863     1   109.5600471 388.275200
   7860   7868   7871     1   107.2600461 396.643200
   7861   7860   7864     1   109.5600471 388.275200
   7861   7862   7865     1   110.2200475 386.601600
   7861   7867   7873     1   107.2600461 396.643200
   7862   7861   7863     1   109.5600471 388.275200
   7863   7861   7867     1   110.2600474 425.931200
   7864   7860   7868     1   110.2600474 425.931200
   7865   7862   7866     1   109.5800467 425.931200
   7865   7862   7878     1   109.5800467 425.931200
   7870   7876   7877     1   107.2600461 396.643200
   7874   7870   7876     1   110.2600474 425.931200
   7874   7870   7875     1   108.4600466 328.025600
   7875   7870   7876     1   110.2600474 425.931200
   7879   7880   7882     1   109.5600471 388.275200
   7879   7893   7897     1   109.5600471 388.275200
   7879   7893   7898     1   109.5600471 388.275200
   7880   7883   7887     1   109.5600471 388.275200
   7880   7892   7895     1   107.2600461 396.643200
   7880   7879   7881     1   109.5600471 388.275200
   7881   7879   7893     1   109.5600471 388.275200
   7881   7879   7901     1   109.7800468 425.094400
   7882   7880   7883     1   109.5600471 388.275200
   7882   7880   7892     1   110.2600474 425.931200
   7883   7884   7886     1   109.5600471 388.275200
   7883   7891   7894     1   107.2600461 396.643200
   7884   7885   7888     1   110.2200475 386.601600
   7884   7890   7896     1   107.2600461 396.643200
   7884   7883   7887     1   109.5600471 388.275200
   7885   7884   7886     1   109.5600471 388.275200
   7886   7884   7890     1   110.2600474 425.931200
   7887   7883   7891     1   110.2600474 425.931200
   7888   7885   7889     1   109.5800467 425.931200
   7888   7885   7901     1   109.5800467 425.931200
   7893   7899   7900     1   107.2600461 396.643200
   7897   7893   7899     1   110.2600474 425.931200
   7897   7893   7898     1   108.4600466 328.025600
   7898   7893   7899     1   110.2600474 425.931200
   7902   7903   7905     1   109.5600471 388.275200
   7902   7916   7920     1   109.5600471 388.275200
   7902   7916   7921     1   109.5600471 388.275200
   7903   7902   7904     1   109.5600471 388.275200
   7903   7906   7910     1   109.5600471 388.275200
   7903   7915   7918     1   107.2600461 396.643200
   7904   7902   7916     1   109.5600471 388.275200
   7904   7902   7924     1   109.7800468 425.094400
   7905   7903   7906     1   109.5600471 388.275200
   7905   7903   7915     1   110.2600474 425.931200
   7906   7907   7909     1   109.5600471 388.275200
   7906   7914   7917     1   107.2600461 396.643200
   7907   7906   7910     1   109.5600471 388.275200
   7907   7908   7911     1   110.2200475 386.601600
   7907   7913   7919     1   107.2600461 396.643200
   7908   7907   7909     1   109.5600471 388.275200
   7909   7907   7913     1   110.2600474 425.931200
   7910   7906   7914     1   110.2600474 425.931200
   7911   7908   7912     1   109.5800467 425.931200
   7911   7908   7924     1   109.5800467 425.931200
   7916   7922   7923     1   107.2600461 396.643200
   7920   7916   7922     1   110.2600474 425.931200
   7920   7916   7921     1   108.4600466 328.025600
   7921   7916   7922     1   110.2600474 425.931200
   7925   7926   7928     1   109.5600471 388.275200
   7925   7939   7943     1   109.5600471 388.275200
   7925   7939   7944     1   109.5600471 388.275200
   7926   7929   7933     1   109.5600471 388.275200
   7926   7938   7941     1   107.2600461 396.643200
   7926   7925   7927     1   109.5600471 388.275200
   7927   7925   7939     1   109.5600471 388.275200
   7927   7925   7947     1   109.7800468 425.094400
   7928   7926   7929     1   109.5600471 388.275200
   7928   7926   7938     1   110.2600474 425.931200
   7929   7930   7932     1   109.5600471 388.275200
   7929   7937   7940     1   107.2600461 396.643200
   7930   7931   7934     1   110.2200475 386.601600
   7930   7936   7942     1   107.2600461 396.643200
   7930   7929   7933     1   109.5600471 388.275200
   7931   7930   7932     1   109.5600471 388.275200
   7932   7930   7936     1   110.2600474 425.931200
   7933   7929   7937     1   110.2600474 425.931200
   7934   7931   7935     1   109.5800467 425.931200
   7934   7931   7947     1   109.5800467 425.931200
   7939   7945   7946     1   107.2600461 396.643200
   7943   7939   7945     1   110.2600474 425.931200
   7943   7939   7944     1   108.4600466 328.025600
   7944   7939   7945     1   110.2600474 425.931200
   7948   7949   7951     1   109.5600471 388.275200
   7948   7962   7966     1   109.5600471 388.275200
   7948   7962   7967     1   109.5600471 388.275200
   7949   7948   7950     1   109.5600471 388.275200
   7949   7952   7956     1   109.5600471 388.275200
   7949   7961   7964     1   107.2600461 396.643200
   7950   7948   7962     1   109.5600471 388.275200
   7950   7948   7970     1   109.7800468 425.094400
   7951   7949   7952     1   109.5600471 388.275200
   7951   7949   7961     1   110.2600474 425.931200
   7952   7953   7955     1   109.5600471 388.275200
   7952   7960   7963     1   107.2600461 396.643200
   7953   7952   7956     1   109.5600471 388.275200
   7953   7954   7957     1   110.2200475 386.601600
   7953   7959   7965     1   107.2600461 396.643200
   7954   7953   7955     1   109.5600471 388.275200
   7955   7953   7959     1   110.2600474 425.931200
   7956   7952   7960     1   110.2600474 425.931200
   7957   7954   7958     1   109.5800467 425.931200
   7957   7954   7970     1   109.5800467 425.931200
   7962   7968   7969     1   107.2600461 396.643200
   7966   7962   7968     1   110.2600474 425.931200
   7966   7962   7967     1   108.4600466 328.025600
   7967   7962   7968     1   110.2600474 425.931200
   7971   7972   7974     1   109.5600471 388.275200
   7971   7985   7989     1   109.5600471 388.275200
   7971   7985   7990     1   109.5600471 388.275200
   7972   7975   7979     1   109.5600471 388.275200
   7972   7984   7987     1   107.2600461 396.643200
   7972   7971   7973     1   109.5600471 388.275200
   7973   7971   7985     1   109.5600471 388.275200
   7973   7971   7993     1   109.7800468 425.094400
   7974   7972   7975     1   109.5600471 388.275200
   7974   7972   7984     1   110.2600474 425.931200
   7975   7976   7978     1   109.5600471 388.275200
   7975   7983   7986     1   107.2600461 396.643200
   7976   7977   7980     1   110.2200475 386.601600
   7976   7982   7988     1   107.2600461 396.643200
   7976   7975   7979     1   109.5600471 388.275200
   7977   7976   7978     1   109.5600471 388.275200
   7978   7976   7982     1   110.2600474 425.931200
   7979   7975   7983     1   110.2600474 425.931200
   7980   7977   7981     1   109.5800467 425.931200
   7980   7977   7993     1   109.5800467 425.931200
   7985   7991   7992     1   107.2600461 396.643200
   7989   7985   7991     1   110.2600474 425.931200
   7989   7985   7990     1   108.4600466 328.025600
   7990   7985   7991     1   110.2600474 425.931200
   7994   7995   7997     1   109.5600471 388.275200
   7994   8008   8012     1   109.5600471 388.275200
   7994   8008   8013     1   109.5600471 388.275200
   7995   7994   7996     1   109.5600471 388.275200
   7995   7998   8002     1   109.5600471 388.275200
   7995   8007   8010     1   107.2600461 396.643200
   7996   7994   8008     1   109.5600471 388.275200
   7996   7994   8016     1   109.7800468 425.094400
   7997   7995   7998     1   109.5600471 388.275200
   7997   7995   8007     1   110.2600474 425.931200
   7998   7999   8001     1   109.5600471 388.275200
   7998   8006   8009     1   107.2600461 396.643200
   7999   7998   8002     1   109.5600471 388.275200
   7999   8000   8003     1   110.2200475 386.601600
   7999   8005   8011     1   107.2600461 396.643200
   8000   7999   8001     1   109.5600471 388.275200
   8001   7999   8005     1   110.2600474 425.931200
   8002   7998   8006     1   110.2600474 425.931200
   8003   8000   8004     1   109.5800467 425.931200
   8003   8000   8016     1   109.5800467 425.931200
   8008   8014   8015     1   107.2600461 396.643200
   8012   8008   8014     1   110.2600474 425.931200
   8012   8008   8013     1   108.4600466 328.025600
   8013   8008   8014     1   110.2600474 425.931200
   8017   8018   8020     1   109.5600471 388.275200
   8017   8031   8035     1   109.5600471 388.275200
   8017   8031   8036     1   109.5600471 388.275200
   8018   8021   8025     1   109.5600471 388.275200
   8018   8030   8033     1   107.2600461 396.643200
   8018   8017   8019     1   109.5600471 388.275200
   8019   8017   8031     1   109.5600471 388.275200
   8019   8017   8039     1   109.7800468 425.094400
   8020   8018   8021     1   109.5600471 388.275200
   8020   8018   8030     1   110.2600474 425.931200
   8021   8022   8024     1   109.5600471 388.275200
   8021   8029   8032     1   107.2600461 396.643200
   8022   8023   8026     1   110.2200475 386.601600
   8022   8028   8034     1   107.2600461 396.643200
   8022   8021   8025     1   109.5600471 388.275200
   8023   8022   8024     1   109.5600471 388.275200
   8024   8022   8028     1   110.2600474 425.931200
   8025   8021   8029     1   110.2600474 425.931200
   8026   8023   8027     1   109.5800467 425.931200
   8026   8023   8039     1   109.5800467 425.931200
   8031   8037   8038     1   107.2600461 396.643200
   8035   8031   8037     1   110.2600474 425.931200
   8035   8031   8036     1   108.4600466 328.025600
   8036   8031   8037     1   110.2600474 425.931200
   8040   8041   8043     1   109.5600471 388.275200
   8040   8054   8058     1   109.5600471 388.275200
   8040   8054   8059     1   109.5600471 388.275200
   8041   8040   8042     1   109.5600471 388.275200
   8041   8044   8048     1   109.5600471 388.275200
   8041   8053   8056     1   107.2600461 396.643200
   8042   8040   8054     1   109.5600471 388.275200
   8042   8040   8062     1   109.7800468 425.094400
   8043   8041   8044     1   109.5600471 388.275200
   8043   8041   8053     1   110.2600474 425.931200
   8044   8045   8047     1   109.5600471 388.275200
   8044   8052   8055     1   107.2600461 396.643200
   8045   8044   8048     1   109.5600471 388.275200
   8045   8046   8049     1   110.2200475 386.601600
   8045   8051   8057     1   107.2600461 396.643200
   8046   8045   8047     1   109.5600471 388.275200
   8047   8045   8051     1   110.2600474 425.931200
   8048   8044   8052     1   110.2600474 425.931200
   8049   8046   8050     1   109.5800467 425.931200
   8049   8046   8062     1   109.5800467 425.931200
   8054   8060   8061     1   107.2600461 396.643200
   8058   8054   8060     1   110.2600474 425.931200
   8058   8054   8059     1   108.4600466 328.025600
   8059   8054   8060     1   110.2600474 425.931200
   8063   8064   8066     1   109.5600471 388.275200
   8063   8077   8081     1   109.5600471 388.275200
   8063   8077   8082     1   109.5600471 388.275200
   8064   8067   8071     1   109.5600471 388.275200
   8064   8076   8079     1   107.2600461 396.643200
   8064   8063   8065     1   109.5600471 388.275200
   8065   8063   8077     1   109.5600471 388.275200
   8065   8063   8085     1   109.7800468 425.094400
   8066   8064   8067     1   109.5600471 388.275200
   8066   8064   8076     1   110.2600474 425.931200
   8067   8068   8070     1   109.5600471 388.275200
   8067   8075   8078     1   107.2600461 396.643200
   8068   8069   8072     1   110.2200475 386.601600
   8068   8074   8080     1   107.2600461 396.643200
   8068   8067   8071     1   109.5600471 388.275200
   8069   8068   8070     1   109.5600471 388.275200
   8070   8068   8074     1   110.2600474 425.931200
   8071   8067   8075     1   110.2600474 425.931200
   8072   8069   8073     1   109.5800467 425.931200
   8072   8069   8085     1   109.5800467 425.931200
   8077   8083   8084     1   107.2600461 396.643200
   8081   8077   8083     1   110.2600474 425.931200
   8081   8077   8082     1   108.4600466 328.025600
   8082   8077   8083     1   110.2600474 425.931200
   8086   8087   8089     1   109.5600471 388.275200
   8086   8100   8104     1   109.5600471 388.275200
   8086   8100   8105     1   109.5600471 388.275200
   8087   8086   8088     1   109.5600471 388.275200
   8087   8090   8094     1   109.5600471 388.275200
   8087   8099   8102     1   107.2600461 396.643200
   8088   8086   8100     1   109.5600471 388.275200
   8088   8086   8108     1   109.7800468 425.094400
   8089   8087   8090     1   109.5600471 388.275200
   8089   8087   8099     1   110.2600474 425.931200
   8090   8091   8093     1   109.5600471 388.275200
   8090   8098   8101     1   107.2600461 396.643200
   8091   8090   8094     1   109.5600471 388.275200
   8091   8092   8095     1   110.2200475 386.601600
   8091   8097   8103     1   107.2600461 396.643200
   8092   8091   8093     1   109.5600471 388.275200
   8093   8091   8097     1   110.2600474 425.931200
   8094   8090   8098     1   110.2600474 425.931200
   8095   8092   8096     1   109.5800467 425.931200
   8095   8092   8108     1   109.5800467 425.931200
   8100   8106   8107     1   107.2600461 396.643200
   8104   8100   8106     1   110.2600474 425.931200
   8104   8100   8105     1   108.4600466 328.025600
   8105   8100   8106     1   110.2600474 425.931200
   8109   8110   8112     1   109.5600471 388.275200
   8109   8123   8127     1   109.5600471 388.275200
   8109   8123   8128     1   109.5600471 388.275200
   8110   8113   8117     1   109.5600471 388.275200
   8110   8122   8125     1   107.2600461 396.643200
   8110   8109   8111     1   109.5600471 388.275200
   8111   8109   8123     1   109.5600471 388.275200
   8111   8109   8131     1   109.7800468 425.094400
   8112   8110   8113     1   109.5600471 388.275200
   8112   8110   8122     1   110.2600474 425.931200
   8113   8114   8116     1   109.5600471 388.275200
   8113   8121   8124     1   107.2600461 396.643200
   8114   8115   8118     1   110.2200475 386.601600
   8114   8120   8126     1   107.2600461 396.643200
   8114   8113   8117     1   109.5600471 388.275200
   8115   8114   8116     1   109.5600471 388.275200
   8116   8114   8120     1   110.2600474 425.931200
   8117   8113   8121     1   110.2600474 425.931200
   8118   8115   8119     1   109.5800467 425.931200
   8118   8115   8131     1   109.5800467 425.931200
   8123   8129   8130     1   107.2600461 396.643200
   8127   8123   8129     1   110.2600474 425.931200
   8127   8123   8128     1   108.4600466 328.025600
   8128   8123   8129     1   110.2600474 425.931200
   8132   8133   8135     1   109.5600471 388.275200
   8132   8146   8150     1   109.5600471 388.275200
   8132   8146   8151     1   109.5600471 388.275200
   8133   8132   8134     1   109.5600471 388.275200
   8133   8136   8140     1   109.5600471 388.275200
   8133   8145   8148     1   107.2600461 396.643200
   8134   8132   8146     1   109.5600471 388.275200
   8134   8132   8154     1   109.7800468 425.094400
   8135   8133   8136     1   109.5600471 388.275200
   8135   8133   8145     1   110.2600474 425.931200
   8136   8137   8139     1   109.5600471 388.275200
   8136   8144   8147     1   107.2600461 396.643200
   8137   8136   8140     1   109.5600471 388.275200
   8137   8138   8141     1   110.2200475 386.601600
   8137   8143   8149     1   107.2600461 396.643200
   8138   8137   8139     1   109.5600471 388.275200
   8139   8137   8143     1   110.2600474 425.931200
   8140   8136   8144     1   110.2600474 425.931200
   8141   8138   8142     1   109.5800467 425.931200
   8141   8138   8154     1   109.5800467 425.931200
   8146   8152   8153     1   107.2600461 396.643200
   8150   8146   8152     1   110.2600474 425.931200
   8150   8146   8151     1   108.4600466 328.025600
   8151   8146   8152     1   110.2600474 425.931200
   8155   8156   8158     1   109.5600471 388.275200
   8155   8169   8173     1   109.5600471 388.275200
   8155   8169   8174     1   109.5600471 388.275200
   8156   8159   8163     1   109.5600471 388.275200
   8156   8168   8171     1   107.2600461 396.643200
   8156   8155   8157     1   109.5600471 388.275200
   8157   8155   8169     1   109.5600471 388.275200
   8157   8155   8177     1   109.7800468 425.094400
   8158   8156   8159     1   109.5600471 388.275200
   8158   8156   8168     1   110.2600474 425.931200
   8159   8160   8162     1   109.5600471 388.275200
   8159   8167   8170     1   107.2600461 396.643200
   8160   8161   8164     1   110.2200475 386.601600
   8160   8166   8172     1   107.2600461 396.643200
   8160   8159   8163     1   109.5600471 388.275200
   8161   8160   8162     1   109.5600471 388.275200
   8162   8160   8166     1   110.2600474 425.931200
   8163   8159   8167     1   110.2600474 425.931200
   8164   8161   8165     1   109.5800467 425.931200
   8164   8161   8177     1   109.5800467 425.931200
   8169   8175   8176     1   107.2600461 396.643200
   8173   8169   8175     1   110.2600474 425.931200
   8173   8169   8174     1   108.4600466 328.025600
   8174   8169   8175     1   110.2600474 425.931200
   8178   8179   8181     1   109.5600471 388.275200
   8178   8192   8196     1   109.5600471 388.275200
   8178   8192   8197     1   109.5600471 388.275200
   8179   8178   8180     1   109.5600471 388.275200
   8179   8182   8186     1   109.5600471 388.275200
   8179   8191   8194     1   107.2600461 396.643200
   8180   8178   8192     1   109.5600471 388.275200
   8180   8178   8200     1   109.7800468 425.094400
   8181   8179   8182     1   109.5600471 388.275200
   8181   8179   8191     1   110.2600474 425.931200
   8182   8183   8185     1   109.5600471 388.275200
   8182   8190   8193     1   107.2600461 396.643200
   8183   8182   8186     1   109.5600471 388.275200
   8183   8184   8187     1   110.2200475 386.601600
   8183   8189   8195     1   107.2600461 396.643200
   8184   8183   8185     1   109.5600471 388.275200
   8185   8183   8189     1   110.2600474 425.931200
   8186   8182   8190     1   110.2600474 425.931200
   8187   8184   8188     1   109.5800467 425.931200
   8187   8184   8200     1   109.5800467 425.931200
   8192   8198   8199     1   107.2600461 396.643200
   8196   8192   8198     1   110.2600474 425.931200
   8196   8192   8197     1   108.4600466 328.025600
   8197   8192   8198     1   110.2600474 425.931200
   8201   8202   8204     1   109.5600471 388.275200
   8201   8215   8219     1   109.5600471 388.275200
   8201   8215   8220     1   109.5600471 388.275200
   8202   8205   8209     1   109.5600471 388.275200
   8202   8214   8217     1   107.2600461 396.643200
   8202   8201   8203     1   109.5600471 388.275200
   8203   8201   8215     1   109.5600471 388.275200
   8203   8201   8223     1   109.7800468 425.094400
   8204   8202   8205     1   109.5600471 388.275200
   8204   8202   8214     1   110.2600474 425.931200
   8205   8206   8208     1   109.5600471 388.275200
   8205   8213   8216     1   107.2600461 396.643200
   8206   8207   8210     1   110.2200475 386.601600
   8206   8212   8218     1   107.2600461 396.643200
   8206   8205   8209     1   109.5600471 388.275200
   8207   8206   8208     1   109.5600471 388.275200
   8208   8206   8212     1   110.2600474 425.931200
   8209   8205   8213     1   110.2600474 425.931200
   8210   8207   8211     1   109.5800467 425.931200
   8210   8207   8223     1   109.5800467 425.931200
   8215   8221   8222     1   107.2600461 396.643200
   8219   8215   8221     1   110.2600474 425.931200
   8219   8215   8220     1   108.4600466 328.025600
   8220   8215   8221     1   110.2600474 425.931200
   8224   8225   8227     1   109.5600471 388.275200
   8224   8238   8242     1   109.5600471 388.275200
   8224   8238   8243     1   109.5600471 388.275200
   8225   8224   8226     1   109.5600471 388.275200
   8225   8228   8232     1   109.5600471 388.275200
   8225   8237   8240     1   107.2600461 396.643200
   8226   8224   8238     1   109.5600471 388.275200
   8226   8224   8246     1   109.7800468 425.094400
   8227   8225   8228     1   109.5600471 388.275200
   8227   8225   8237     1   110.2600474 425.931200
   8228   8229   8231     1   109.5600471 388.275200
   8228   8236   8239     1   107.2600461 396.643200
   8229   8228   8232     1   109.5600471 388.275200
   8229   8230   8233     1   110.2200475 386.601600
   8229   8235   8241     1   107.2600461 396.643200
   8230   8229   8231     1   109.5600471 388.275200
   8231   8229   8235     1   110.2600474 425.931200
   8232   8228   8236     1   110.2600474 425.931200
   8233   8230   8234     1   109.5800467 425.931200
   8233   8230   8246     1   109.5800467 425.931200
   8238   8244   8245     1   107.2600461 396.643200
   8242   8238   8244     1   110.2600474 425.931200
   8242   8238   8243     1   108.4600466 328.025600
   8243   8238   8244     1   110.2600474 425.931200
   8247   8248   8250     1   109.5600471 388.275200
   8247   8261   8265     1   109.5600471 388.275200
   8247   8261   8266     1   109.5600471 388.275200
   8248   8251   8255     1   109.5600471 388.275200
   8248   8260   8263     1   107.2600461 396.643200
   8248   8247   8249     1   109.5600471 388.275200
   8249   8247   8261     1   109.5600471 388.275200
   8249   8247   8269     1   109.7800468 425.094400
   8250   8248   8251     1   109.5600471 388.275200
   8250   8248   8260     1   110.2600474 425.931200
   8251   8252   8254     1   109.5600471 388.275200
   8251   8259   8262     1   107.2600461 396.643200
   8252   8253   8256     1   110.2200475 386.601600
   8252   8258   8264     1   107.2600461 396.643200
   8252   8251   8255     1   109.5600471 388.275200
   8253   8252   8254     1   109.5600471 388.275200
   8254   8252   8258     1   110.2600474 425.931200
   8255   8251   8259     1   110.2600474 425.931200
   8256   8253   8257     1   109.5800467 425.931200
   8256   8253   8269     1   109.5800467 425.931200
   8261   8267   8268     1   107.2600461 396.643200
   8265   8261   8267     1   110.2600474 425.931200
   8265   8261   8266     1   108.4600466 328.025600
   8266   8261   8267     1   110.2600474 425.931200
   8270   8271   8273     1   109.5600471 388.275200
   8270   8284   8288     1   109.5600471 388.275200
   8270   8284   8289     1   109.5600471 388.275200
   8271   8270   8272     1   109.5600471 388.275200
   8271   8274   8278     1   109.5600471 388.275200
   8271   8283   8286     1   107.2600461 396.643200
   8272   8270   8284     1   109.5600471 388.275200
   8272   8270   8292     1   109.7800468 425.094400
   8273   8271   8274     1   109.5600471 388.275200
   8273   8271   8283     1   110.2600474 425.931200
   8274   8275   8277     1   109.5600471 388.275200
   8274   8282   8285     1   107.2600461 396.643200
   8275   8274   8278     1   109.5600471 388.275200
   8275   8276   8279     1   110.2200475 386.601600
   8275   8281   8287     1   107.2600461 396.643200
   8276   8275   8277     1   109.5600471 388.275200
   8277   8275   8281     1   110.2600474 425.931200
   8278   8274   8282     1   110.2600474 425.931200
   8279   8276   8280     1   109.5800467 425.931200
   8279   8276   8292     1   109.5800467 425.931200
   8284   8290   8291     1   107.2600461 396.643200
   8288   8284   8290     1   110.2600474 425.931200
   8288   8284   8289     1   108.4600466 328.025600
   8289   8284   8290     1   110.2600474 425.931200
   8293   8294   8296     1   109.5600471 388.275200
   8293   8307   8311     1   109.5600471 388.275200
   8293   8307   8312     1   109.5600471 388.275200
   8294   8297   8301     1   109.5600471 388.275200
   8294   8306   8309     1   107.2600461 396.643200
   8294   8293   8295     1   109.5600471 388.275200
   8295   8293   8307     1   109.5600471 388.275200
   8295   8293   8315     1   109.7800468 425.094400
   8296   8294   8297     1   109.5600471 388.275200
   8296   8294   8306     1   110.2600474 425.931200
   8297   8298   8300     1   109.5600471 388.275200
   8297   8305   8308     1   107.2600461 396.643200
   8298   8299   8302     1   110.2200475 386.601600
   8298   8304   8310     1   107.2600461 396.643200
   8298   8297   8301     1   109.5600471 388.275200
   8299   8298   8300     1   109.5600471 388.275200
   8300   8298   8304     1   110.2600474 425.931200
   8301   8297   8305     1   110.2600474 425.931200
   8302   8299   8303     1   109.5800467 425.931200
   8302   8299   8315     1   109.5800467 425.931200
   8307   8313   8314     1   107.2600461 396.643200
   8311   8307   8313     1   110.2600474 425.931200
   8311   8307   8312     1   108.4600466 328.025600
   8312   8307   8313     1   110.2600474 425.931200
   8316   8317   8319     1   109.5600471 388.275200
   8316   8330   8334     1   109.5600471 388.275200
   8316   8330   8335     1   109.5600471 388.275200
   8317   8316   8318     1   109.5600471 388.275200
   8317   8320   8324     1   109.5600471 388.275200
   8317   8329   8332     1   107.2600461 396.643200
   8318   8316   8330     1   109.5600471 388.275200
   8318   8316   8338     1   109.7800468 425.094400
   8319   8317   8320     1   109.5600471 388.275200
   8319   8317   8329     1   110.2600474 425.931200
   8320   8321   8323     1   109.5600471 388.275200
   8320   8328   8331     1   107.2600461 396.643200
   8321   8320   8324     1   109.5600471 388.275200
   8321   8322   8325     1   110.2200475 386.601600
   8321   8327   8333     1   107.2600461 396.643200
   8322   8321   8323     1   109.5600471 388.275200
   8323   8321   8327     1   110.2600474 425.931200
   8324   8320   8328     1   110.2600474 425.931200
   8325   8322   8326     1   109.5800467 425.931200
   8325   8322   8338     1   109.5800467 425.931200
   8330   8336   8337     1   107.2600461 396.643200
   8334   8330   8336     1   110.2600474 425.931200
   8334   8330   8335     1   108.4600466 328.025600
   8335   8330   8336     1   110.2600474 425.931200
   8339   8340   8342     1   109.5600471 388.275200
   8339   8353   8357     1   109.5600471 388.275200
   8339   8353   8358     1   109.5600471 388.275200
   8340   8343   8347     1   109.5600471 388.275200
   8340   8352   8355     1   107.2600461 396.643200
   8340   8339   8341     1   109.5600471 388.275200
   8341   8339   8353     1   109.5600471 388.275200
   8341   8339   8361     1   109.7800468 425.094400
   8342   8340   8343     1   109.5600471 388.275200
   8342   8340   8352     1   110.2600474 425.931200
   8343   8344   8346     1   109.5600471 388.275200
   8343   8351   8354     1   107.2600461 396.643200
   8344   8345   8348     1   110.2200475 386.601600
   8344   8350   8356     1   107.2600461 396.643200
   8344   8343   8347     1   109.5600471 388.275200
   8345   8344   8346     1   109.5600471 388.275200
   8346   8344   8350     1   110.2600474 425.931200
   8347   8343   8351     1   110.2600474 425.931200
   8348   8345   8349     1   109.5800467 425.931200
   8348   8345   8361     1   109.5800467 425.931200
   8353   8359   8360     1   107.2600461 396.643200
   8357   8353   8359     1   110.2600474 425.931200
   8357   8353   8358     1   108.4600466 328.025600
   8358   8353   8359     1   110.2600474 425.931200
   8362   8363   8365     1   109.5600471 388.275200
   8362   8376   8380     1   109.5600471 388.275200
   8362   8376   8381     1   109.5600471 388.275200
   8363   8362   8364     1   109.5600471 388.275200
   8363   8366   8370     1   109.5600471 388.275200
   8363   8375   8378     1   107.2600461 396.643200
   8364   8362   8376     1   109.5600471 388.275200
   8364   8362   8384     1   109.7800468 425.094400
   8365   8363   8366     1   109.5600471 388.275200
   8365   8363   8375     1   110.2600474 425.931200
   8366   8367   8369     1   109.5600471 388.275200
   8366   8374   8377     1   107.2600461 396.643200
   8367   8366   8370     1   109.5600471 388.275200
   8367   8368   8371     1   110.2200475 386.601600
   8367   8373   8379     1   107.2600461 396.643200
   8368   8367   8369     1   109.5600471 388.275200
   8369   8367   8373     1   110.2600474 425.931200
   8370   8366   8374     1   110.2600474 425.931200
   8371   8368   8372     1   109.5800467 425.931200
   8371   8368   8384     1   109.5800467 425.931200
   8376   8382   8383     1   107.2600461 396.643200
   8380   8376   8382     1   110.2600474 425.931200
   8380   8376   8381     1   108.4600466 328.025600
   8381   8376   8382     1   110.2600474 425.931200
   8385   8386   8388     1   109.5600471 388.275200
   8385   8399   8403     1   109.5600471 388.275200
   8385   8399   8404     1   109.5600471 388.275200
   8386   8389   8393     1   109.5600471 388.275200
   8386   8398   8401     1   107.2600461 396.643200
   8386   8385   8387     1   109.5600471 388.275200
   8387   8385   8399     1   109.5600471 388.275200
   8387   8385   8407     1   109.7800468 425.094400
   8388   8386   8389     1   109.5600471 388.275200
   8388   8386   8398     1   110.2600474 425.931200
   8389   8390   8392     1   109.5600471 388.275200
   8389   8397   8400     1   107.2600461 396.643200
   8390   8391   8394     1   110.2200475 386.601600
   8390   8396   8402     1   107.2600461 396.643200
   8390   8389   8393     1   109.5600471 388.275200
   8391   8390   8392     1   109.5600471 388.275200
   8392   8390   8396     1   110.2600474 425.931200
   8393   8389   8397     1   110.2600474 425.931200
   8394   8391   8395     1   109.5800467 425.931200
   8394   8391   8407     1   109.5800467 425.931200
   8399   8405   8406     1   107.2600461 396.643200
   8403   8399   8405     1   110.2600474 425.931200
   8403   8399   8404     1   108.4600466 328.025600
   8404   8399   8405     1   110.2600474 425.931200
   8408   8409   8411     1   109.5600471 388.275200
   8408   8422   8426     1   109.5600471 388.275200
   8408   8422   8427     1   109.5600471 388.275200
   8409   8408   8410     1   109.5600471 388.275200
   8409   8412   8416     1   109.5600471 388.275200
   8409   8421   8424     1   107.2600461 396.643200
   8410   8408   8422     1   109.5600471 388.275200
   8410   8408   8430     1   109.7800468 425.094400
   8411   8409   8412     1   109.5600471 388.275200
   8411   8409   8421     1   110.2600474 425.931200
   8412   8413   8415     1   109.5600471 388.275200
   8412   8420   8423     1   107.2600461 396.643200
   8413   8412   8416     1   109.5600471 388.275200
   8413   8414   8417     1   110.2200475 386.601600
   8413   8419   8425     1   107.2600461 396.643200
   8414   8413   8415     1   109.5600471 388.275200
   8415   8413   8419     1   110.2600474 425.931200
   8416   8412   8420     1   110.2600474 425.931200
   8417   8414   8418     1   109.5800467 425.931200
   8417   8414   8430     1   109.5800467 425.931200
   8422   8428   8429     1   107.2600461 396.643200
   8426   8422   8428     1   110.2600474 425.931200
   8426   8422   8427     1   108.4600466 328.025600
   8427   8422   8428     1   110.2600474 425.931200
   8431   8432   8434     1   109.5600471 388.275200
   8431   8445   8449     1   109.5600471 388.275200
   8431   8445   8450     1   109.5600471 388.275200
   8432   8435   8439     1   109.5600471 388.275200
   8432   8444   8447     1   107.2600461 396.643200
   8432   8431   8433     1   109.5600471 388.275200
   8433   8431   8445     1   109.5600471 388.275200
   8433   8431   8453     1   109.7800468 425.094400
   8434   8432   8435     1   109.5600471 388.275200
   8434   8432   8444     1   110.2600474 425.931200
   8435   8436   8438     1   109.5600471 388.275200
   8435   8443   8446     1   107.2600461 396.643200
   8436   8437   8440     1   110.2200475 386.601600
   8436   8442   8448     1   107.2600461 396.643200
   8436   8435   8439     1   109.5600471 388.275200
   8437   8436   8438     1   109.5600471 388.275200
   8438   8436   8442     1   110.2600474 425.931200
   8439   8435   8443     1   110.2600474 425.931200
   8440   8437   8441     1   109.5800467 425.931200
   8440   8437   8453     1   109.5800467 425.931200
   8445   8451   8452     1   107.2600461 396.643200
   8449   8445   8451     1   110.2600474 425.931200
   8449   8445   8450     1   108.4600466 328.025600
   8450   8445   8451     1   110.2600474 425.931200
   8454   8455   8457     1   109.5600471 388.275200
   8454   8468   8472     1   109.5600471 388.275200
   8454   8468   8473     1   109.5600471 388.275200
   8455   8454   8456     1   109.5600471 388.275200
   8455   8458   8462     1   109.5600471 388.275200
   8455   8467   8470     1   107.2600461 396.643200
   8456   8454   8468     1   109.5600471 388.275200
   8456   8454   8476     1   109.7800468 425.094400
   8457   8455   8458     1   109.5600471 388.275200
   8457   8455   8467     1   110.2600474 425.931200
   8458   8459   8461     1   109.5600471 388.275200
   8458   8466   8469     1   107.2600461 396.643200
   8459   8458   8462     1   109.5600471 388.275200
   8459   8460   8463     1   110.2200475 386.601600
   8459   8465   8471     1   107.2600461 396.643200
   8460   8459   8461     1   109.5600471 388.275200
   8461   8459   8465     1   110.2600474 425.931200
   8462   8458   8466     1   110.2600474 425.931200
   8463   8460   8464     1   109.5800467 425.931200
   8463   8460   8476     1   109.5800467 425.931200
   8468   8474   8475     1   107.2600461 396.643200
   8472   8468   8474     1   110.2600474 425.931200
   8472   8468   8473     1   108.4600466 328.025600
   8473   8468   8474     1   110.2600474 425.931200
   8477   8478   8480     1   109.5600471 388.275200
   8477   8491   8495     1   109.5600471 388.275200
   8477   8491   8496     1   109.5600471 388.275200
   8478   8481   8485     1   109.5600471 388.275200
   8478   8490   8493     1   107.2600461 396.643200
   8478   8477   8479     1   109.5600471 388.275200
   8479   8477   8491     1   109.5600471 388.275200
   8479   8477   8499     1   109.7800468 425.094400
   8480   8478   8481     1   109.5600471 388.275200
   8480   8478   8490     1   110.2600474 425.931200
   8481   8482   8484     1   109.5600471 388.275200
   8481   8489   8492     1   107.2600461 396.643200
   8482   8483   8486     1   110.2200475 386.601600
   8482   8488   8494     1   107.2600461 396.643200
   8482   8481   8485     1   109.5600471 388.275200
   8483   8482   8484     1   109.5600471 388.275200
   8484   8482   8488     1   110.2600474 425.931200
   8485   8481   8489     1   110.2600474 425.931200
   8486   8483   8487     1   109.5800467 425.931200
   8486   8483   8499     1   109.5800467 425.931200
   8491   8497   8498     1   107.2600461 396.643200
   8495   8491   8497     1   110.2600474 425.931200
   8495   8491   8496     1   108.4600466 328.025600
   8496   8491   8497     1   110.2600474 425.931200
   8500   8501   8503     1   109.5600471 388.275200
   8500   8514   8518     1   109.5600471 388.275200
   8500   8514   8519     1   109.5600471 388.275200
   8501   8500   8502     1   109.5600471 388.275200
   8501   8504   8508     1   109.5600471 388.275200
   8501   8513   8516     1   107.2600461 396.643200
   8502   8500   8514     1   109.5600471 388.275200
   8502   8500   8522     1   109.7800468 425.094400
   8503   8501   8504     1   109.5600471 388.275200
   8503   8501   8513     1   110.2600474 425.931200
   8504   8505   8507     1   109.5600471 388.275200
   8504   8512   8515     1   107.2600461 396.643200
   8505   8504   8508     1   109.5600471 388.275200
   8505   8506   8509     1   110.2200475 386.601600
   8505   8511   8517     1   107.2600461 396.643200
   8506   8505   8507     1   109.5600471 388.275200
   8507   8505   8511     1   110.2600474 425.931200
   8508   8504   8512     1   110.2600474 425.931200
   8509   8506   8510     1   109.5800467 425.931200
   8509   8506   8522     1   109.5800467 425.931200
   8514   8520   8521     1   107.2600461 396.643200
   8518   8514   8520     1   110.2600474 425.931200
   8518   8514   8519     1   108.4600466 328.025600
   8519   8514   8520     1   110.2600474 425.931200
   8523   8524   8526     1   109.5600471 388.275200
   8523   8537   8541     1   109.5600471 388.275200
   8523   8537   8542     1   109.5600471 388.275200
   8524   8527   8531     1   109.5600471 388.275200
   8524   8536   8539     1   107.2600461 396.643200
   8524   8523   8525     1   109.5600471 388.275200
   8525   8523   8537     1   109.5600471 388.275200
   8525   8523   8545     1   109.7800468 425.094400
   8526   8524   8527     1   109.5600471 388.275200
   8526   8524   8536     1   110.2600474 425.931200
   8527   8528   8530     1   109.5600471 388.275200
   8527   8535   8538     1   107.2600461 396.643200
   8528   8529   8532     1   110.2200475 386.601600
   8528   8534   8540     1   107.2600461 396.643200
   8528   8527   8531     1   109.5600471 388.275200
   8529   8528   8530     1   109.5600471 388.275200
   8530   8528   8534     1   110.2600474 425.931200
   8531   8527   8535     1   110.2600474 425.931200
   8532   8529   8533     1   109.5800467 425.931200
   8532   8529   8545     1   109.5800467 425.931200
   8537   8543   8544     1   107.2600461 396.643200
   8541   8537   8543     1   110.2600474 425.931200
   8541   8537   8542     1   108.4600466 328.025600
   8542   8537   8543     1   110.2600474 425.931200
   8546   8547   8549     1   109.5600471 388.275200
   8546   8560   8564     1   109.5600471 388.275200
   8546   8560   8565     1   109.5600471 388.275200
   8547   8546   8548     1   109.5600471 388.275200
   8547   8550   8554     1   109.5600471 388.275200
   8547   8559   8562     1   107.2600461 396.643200
   8548   8546   8560     1   109.5600471 388.275200
   8548   8546   8568     1   109.7800468 425.094400
   8549   8547   8550     1   109.5600471 388.275200
   8549   8547   8559     1   110.2600474 425.931200
   8550   8551   8553     1   109.5600471 388.275200
   8550   8558   8561     1   107.2600461 396.643200
   8551   8550   8554     1   109.5600471 388.275200
   8551   8552   8555     1   110.2200475 386.601600
   8551   8557   8563     1   107.2600461 396.643200
   8552   8551   8553     1   109.5600471 388.275200
   8553   8551   8557     1   110.2600474 425.931200
   8554   8550   8558     1   110.2600474 425.931200
   8555   8552   8556     1   109.5800467 425.931200
   8555   8552   8568     1   109.5800467 425.931200
   8560   8566   8567     1   107.2600461 396.643200
   8564   8560   8566     1   110.2600474 425.931200
   8564   8560   8565     1   108.4600466 328.025600
   8565   8560   8566     1   110.2600474 425.931200
   8569   8570   8572     1   109.5600471 388.275200
   8569   8583   8587     1   109.5600471 388.275200
   8569   8583   8588     1   109.5600471 388.275200
   8570   8573   8577     1   109.5600471 388.275200
   8570   8582   8585     1   107.2600461 396.643200
   8570   8569   8571     1   109.5600471 388.275200
   8571   8569   8583     1   109.5600471 388.275200
   8571   8569   8591     1   109.7800468 425.094400
   8572   8570   8573     1   109.5600471 388.275200
   8572   8570   8582     1   110.2600474 425.931200
   8573   8574   8576     1   109.5600471 388.275200
   8573   8581   8584     1   107.2600461 396.643200
   8574   8575   8578     1   110.2200475 386.601600
   8574   8580   8586     1   107.2600461 396.643200
   8574   8573   8577     1   109.5600471 388.275200
   8575   8574   8576     1   109.5600471 388.275200
   8576   8574   8580     1   110.2600474 425.931200
   8577   8573   8581     1   110.2600474 425.931200
   8578   8575   8579     1   109.5800467 425.931200
   8578   8575   8591     1   109.5800467 425.931200
   8583   8589   8590     1   107.2600461 396.643200
   8587   8583   8589     1   110.2600474 425.931200
   8587   8583   8588     1   108.4600466 328.025600
   8588   8583   8589     1   110.2600474 425.931200
   8592   8593   8595     1   109.5600471 388.275200
   8592   8606   8610     1   109.5600471 388.275200
   8592   8606   8611     1   109.5600471 388.275200
   8593   8592   8594     1   109.5600471 388.275200
   8593   8596   8600     1   109.5600471 388.275200
   8593   8605   8608     1   107.2600461 396.643200
   8594   8592   8606     1   109.5600471 388.275200
   8594   8592   8614     1   109.7800468 425.094400
   8595   8593   8596     1   109.5600471 388.275200
   8595   8593   8605     1   110.2600474 425.931200
   8596   8597   8599     1   109.5600471 388.275200
   8596   8604   8607     1   107.2600461 396.643200
   8597   8596   8600     1   109.5600471 388.275200
   8597   8598   8601     1   110.2200475 386.601600
   8597   8603   8609     1   107.2600461 396.643200
   8598   8597   8599     1   109.5600471 388.275200
   8599   8597   8603     1   110.2600474 425.931200
   8600   8596   8604     1   110.2600474 425.931200
   8601   8598   8602     1   109.5800467 425.931200
   8601   8598   8614     1   109.5800467 425.931200
   8606   8612   8613     1   107.2600461 396.643200
   8610   8606   8612     1   110.2600474 425.931200
   8610   8606   8611     1   108.4600466 328.025600
   8611   8606   8612     1   110.2600474 425.931200
   8615   8616   8618     1   109.5600471 388.275200
   8615   8629   8633     1   109.5600471 388.275200
   8615   8629   8634     1   109.5600471 388.275200
   8616   8619   8623     1   109.5600471 388.275200
   8616   8628   8631     1   107.2600461 396.643200
   8616   8615   8617     1   109.5600471 388.275200
   8617   8615   8629     1   109.5600471 388.275200
   8617   8615   8637     1   109.7800468 425.094400
   8618   8616   8619     1   109.5600471 388.275200
   8618   8616   8628     1   110.2600474 425.931200
   8619   8620   8622     1   109.5600471 388.275200
   8619   8627   8630     1   107.2600461 396.643200
   8620   8621   8624     1   110.2200475 386.601600
   8620   8626   8632     1   107.2600461 396.643200
   8620   8619   8623     1   109.5600471 388.275200
   8621   8620   8622     1   109.5600471 388.275200
   8622   8620   8626     1   110.2600474 425.931200
   8623   8619   8627     1   110.2600474 425.931200
   8624   8621   8625     1   109.5800467 425.931200
   8624   8621   8637     1   109.5800467 425.931200
   8629   8635   8636     1   107.2600461 396.643200
   8633   8629   8635     1   110.2600474 425.931200
   8633   8629   8634     1   108.4600466 328.025600
   8634   8629   8635     1   110.2600474 425.931200
   8638   8639   8641     1   109.5600471 388.275200
   8638   8652   8656     1   109.5600471 388.275200
   8638   8652   8657     1   109.5600471 388.275200
   8639   8638   8640     1   109.5600471 388.275200
   8639   8642   8646     1   109.5600471 388.275200
   8639   8651   8654     1   107.2600461 396.643200
   8640   8638   8652     1   109.5600471 388.275200
   8640   8638   8660     1   109.7800468 425.094400
   8641   8639   8642     1   109.5600471 388.275200
   8641   8639   8651     1   110.2600474 425.931200
   8642   8643   8645     1   109.5600471 388.275200
   8642   8650   8653     1   107.2600461 396.643200
   8643   8642   8646     1   109.5600471 388.275200
   8643   8644   8647     1   110.2200475 386.601600
   8643   8649   8655     1   107.2600461 396.643200
   8644   8643   8645     1   109.5600471 388.275200
   8645   8643   8649     1   110.2600474 425.931200
   8646   8642   8650     1   110.2600474 425.931200
   8647   8644   8648     1   109.5800467 425.931200
   8647   8644   8660     1   109.5800467 425.931200
   8652   8658   8659     1   107.2600461 396.643200
   8656   8652   8658     1   110.2600474 425.931200
   8656   8652   8657     1   108.4600466 328.025600
   8657   8652   8658     1   110.2600474 425.931200
   8661   8662   8664     1   109.5600471 388.275200
   8661   8675   8679     1   109.5600471 388.275200
   8661   8675   8680     1   109.5600471 388.275200
   8662   8665   8669     1   109.5600471 388.275200
   8662   8674   8677     1   107.2600461 396.643200
   8662   8661   8663     1   109.5600471 388.275200
   8663   8661   8675     1   109.5600471 388.275200
   8663   8661   8683     1   109.7800468 425.094400
   8664   8662   8665     1   109.5600471 388.275200
   8664   8662   8674     1   110.2600474 425.931200
   8665   8666   8668     1   109.5600471 388.275200
   8665   8673   8676     1   107.2600461 396.643200
   8666   8667   8670     1   110.2200475 386.601600
   8666   8672   8678     1   107.2600461 396.643200
   8666   8665   8669     1   109.5600471 388.275200
   8667   8666   8668     1   109.5600471 388.275200
   8668   8666   8672     1   110.2600474 425.931200
   8669   8665   8673     1   110.2600474 425.931200
   8670   8667   8671     1   109.5800467 425.931200
   8670   8667   8683     1   109.5800467 425.931200
   8675   8681   8682     1   107.2600461 396.643200
   8679   8675   8681     1   110.2600474 425.931200
   8679   8675   8680     1   108.4600466 328.025600
   8680   8675   8681     1   110.2600474 425.931200
   8684   8685   8687     1   109.5600471 388.275200
   8684   8698   8702     1   109.5600471 388.275200
   8684   8698   8703     1   109.5600471 388.275200
   8685   8684   8686     1   109.5600471 388.275200
   8685   8688   8692     1   109.5600471 388.275200
   8685   8697   8700     1   107.2600461 396.643200
   8686   8684   8698     1   109.5600471 388.275200
   8686   8684   8706     1   109.7800468 425.094400
   8687   8685   8688     1   109.5600471 388.275200
   8687   8685   8697     1   110.2600474 425.931200
   8688   8689   8691     1   109.5600471 388.275200
   8688   8696   8699     1   107.2600461 396.643200
   8689   8688   8692     1   109.5600471 388.275200
   8689   8690   8693     1   110.2200475 386.601600
   8689   8695   8701     1   107.2600461 396.643200
   8690   8689   8691     1   109.5600471 388.275200
   8691   8689   8695     1   110.2600474 425.931200
   8692   8688   8696     1   110.2600474 425.931200
   8693   8690   8694     1   109.5800467 425.931200
   8693   8690   8706     1   109.5800467 425.931200
   8698   8704   8705     1   107.2600461 396.643200
   8702   8698   8704     1   110.2600474 425.931200
   8702   8698   8703     1   108.4600466 328.025600
   8703   8698   8704     1   110.2600474 425.931200
   8707   8708   8710     1   109.5600471 388.275200
   8707   8721   8725     1   109.5600471 388.275200
   8707   8721   8726     1   109.5600471 388.275200
   8708   8711   8715     1   109.5600471 388.275200
   8708   8720   8723     1   107.2600461 396.643200
   8708   8707   8709     1   109.5600471 388.275200
   8709   8707   8721     1   109.5600471 388.275200
   8709   8707   8729     1   109.7800468 425.094400
   8710   8708   8711     1   109.5600471 388.275200
   8710   8708   8720     1   110.2600474 425.931200
   8711   8712   8714     1   109.5600471 388.275200
   8711   8719   8722     1   107.2600461 396.643200
   8712   8713   8716     1   110.2200475 386.601600
   8712   8718   8724     1   107.2600461 396.643200
   8712   8711   8715     1   109.5600471 388.275200
   8713   8712   8714     1   109.5600471 388.275200
   8714   8712   8718     1   110.2600474 425.931200
   8715   8711   8719     1   110.2600474 425.931200
   8716   8713   8717     1   109.5800467 425.931200
   8716   8713   8729     1   109.5800467 425.931200
   8721   8727   8728     1   107.2600461 396.643200
   8725   8721   8727     1   110.2600474 425.931200
   8725   8721   8726     1   108.4600466 328.025600
   8726   8721   8727     1   110.2600474 425.931200
   8730   8731   8733     1   109.5600471 388.275200
   8730   8744   8748     1   109.5600471 388.275200
   8730   8744   8749     1   109.5600471 388.275200
   8731   8730   8732     1   109.5600471 388.275200
   8731   8734   8738     1   109.5600471 388.275200
   8731   8743   8746     1   107.2600461 396.643200
   8732   8730   8744     1   109.5600471 388.275200
   8732   8730   8752     1   109.7800468 425.094400
   8733   8731   8734     1   109.5600471 388.275200
   8733   8731   8743     1   110.2600474 425.931200
   8734   8735   8737     1   109.5600471 388.275200
   8734   8742   8745     1   107.2600461 396.643200
   8735   8734   8738     1   109.5600471 388.275200
   8735   8736   8739     1   110.2200475 386.601600
   8735   8741   8747     1   107.2600461 396.643200
   8736   8735   8737     1   109.5600471 388.275200
   8737   8735   8741     1   110.2600474 425.931200
   8738   8734   8742     1   110.2600474 425.931200
   8739   8736   8740     1   109.5800467 425.931200
   8739   8736   8752     1   109.5800467 425.931200
   8744   8750   8751     1   107.2600461 396.643200
   8748   8744   8750     1   110.2600474 425.931200
   8748   8744   8749     1   108.4600466 328.025600
   8749   8744   8750     1   110.2600474 425.931200
   8753   8754   8756     1   109.5600471 388.275200
   8753   8767   8771     1   109.5600471 388.275200
   8753   8767   8772     1   109.5600471 388.275200
   8754   8757   8761     1   109.5600471 388.275200
   8754   8766   8769     1   107.2600461 396.643200
   8754   8753   8755     1   109.5600471 388.275200
   8755   8753   8767     1   109.5600471 388.275200
   8755   8753   8775     1   109.7800468 425.094400
   8756   8754   8757     1   109.5600471 388.275200
   8756   8754   8766     1   110.2600474 425.931200
   8757   8758   8760     1   109.5600471 388.275200
   8757   8765   8768     1   107.2600461 396.643200
   8758   8759   8762     1   110.2200475 386.601600
   8758   8764   8770     1   107.2600461 396.643200
   8758   8757   8761     1   109.5600471 388.275200
   8759   8758   8760     1   109.5600471 388.275200
   8760   8758   8764     1   110.2600474 425.931200
   8761   8757   8765     1   110.2600474 425.931200
   8762   8759   8763     1   109.5800467 425.931200
   8762   8759   8775     1   109.5800467 425.931200
   8767   8773   8774     1   107.2600461 396.643200
   8771   8767   8773     1   110.2600474 425.931200
   8771   8767   8772     1   108.4600466 328.025600
   8772   8767   8773     1   110.2600474 425.931200
   8776   8777   8779     1   109.5600471 388.275200
   8776   8790   8794     1   109.5600471 388.275200
   8776   8790   8795     1   109.5600471 388.275200
   8777   8776   8778     1   109.5600471 388.275200
   8777   8780   8784     1   109.5600471 388.275200
   8777   8789   8792     1   107.2600461 396.643200
   8778   8776   8790     1   109.5600471 388.275200
   8778   8776   8798     1   109.7800468 425.094400
   8779   8777   8780     1   109.5600471 388.275200
   8779   8777   8789     1   110.2600474 425.931200
   8780   8781   8783     1   109.5600471 388.275200
   8780   8788   8791     1   107.2600461 396.643200
   8781   8780   8784     1   109.5600471 388.275200
   8781   8782   8785     1   110.2200475 386.601600
   8781   8787   8793     1   107.2600461 396.643200
   8782   8781   8783     1   109.5600471 388.275200
   8783   8781   8787     1   110.2600474 425.931200
   8784   8780   8788     1   110.2600474 425.931200
   8785   8782   8786     1   109.5800467 425.931200
   8785   8782   8798     1   109.5800467 425.931200
   8790   8796   8797     1   107.2600461 396.643200
   8794   8790   8796     1   110.2600474 425.931200
   8794   8790   8795     1   108.4600466 328.025600
   8795   8790   8796     1   110.2600474 425.931200
   8799   8800   8802     1   109.5600471 388.275200
   8799   8813   8817     1   109.5600471 388.275200
   8799   8813   8818     1   109.5600471 388.275200
   8800   8803   8807     1   109.5600471 388.275200
   8800   8812   8815     1   107.2600461 396.643200
   8800   8799   8801     1   109.5600471 388.275200
   8801   8799   8813     1   109.5600471 388.275200
   8801   8799   8821     1   109.7800468 425.094400
   8802   8800   8803     1   109.5600471 388.275200
   8802   8800   8812     1   110.2600474 425.931200
   8803   8804   8806     1   109.5600471 388.275200
   8803   8811   8814     1   107.2600461 396.643200
   8804   8805   8808     1   110.2200475 386.601600
   8804   8810   8816     1   107.2600461 396.643200
   8804   8803   8807     1   109.5600471 388.275200
   8805   8804   8806     1   109.5600471 388.275200
   8806   8804   8810     1   110.2600474 425.931200
   8807   8803   8811     1   110.2600474 425.931200
   8808   8805   8809     1   109.5800467 425.931200
   8808   8805   8821     1   109.5800467 425.931200
   8813   8819   8820     1   107.2600461 396.643200
   8817   8813   8819     1   110.2600474 425.931200
   8817   8813   8818     1   108.4600466 328.025600
   8818   8813   8819     1   110.2600474 425.931200
   8822   8823   8825     1   109.5600471 388.275200
   8822   8836   8840     1   109.5600471 388.275200
   8822   8836   8841     1   109.5600471 388.275200
   8823   8822   8824     1   109.5600471 388.275200
   8823   8826   8830     1   109.5600471 388.275200
   8823   8835   8838     1   107.2600461 396.643200
   8824   8822   8836     1   109.5600471 388.275200
   8824   8822   8844     1   109.7800468 425.094400
   8825   8823   8826     1   109.5600471 388.275200
   8825   8823   8835     1   110.2600474 425.931200
   8826   8827   8829     1   109.5600471 388.275200
   8826   8834   8837     1   107.2600461 396.643200
   8827   8826   8830     1   109.5600471 388.275200
   8827   8828   8831     1   110.2200475 386.601600
   8827   8833   8839     1   107.2600461 396.643200
   8828   8827   8829     1   109.5600471 388.275200
   8829   8827   8833     1   110.2600474 425.931200
   8830   8826   8834     1   110.2600474 425.931200
   8831   8828   8832     1   109.5800467 425.931200
   8831   8828   8844     1   109.5800467 425.931200
   8836   8842   8843     1   107.2600461 396.643200
   8840   8836   8842     1   110.2600474 425.931200
   8840   8836   8841     1   108.4600466 328.025600
   8841   8836   8842     1   110.2600474 425.931200
   8845   8846   8848     1   109.5600471 388.275200
   8845   8859   8863     1   109.5600471 388.275200
   8845   8859   8864     1   109.5600471 388.275200
   8846   8849   8853     1   109.5600471 388.275200
   8846   8858   8861     1   107.2600461 396.643200
   8846   8845   8847     1   109.5600471 388.275200
   8847   8845   8859     1   109.5600471 388.275200
   8847   8845   8867     1   109.7800468 425.094400
   8848   8846   8849     1   109.5600471 388.275200
   8848   8846   8858     1   110.2600474 425.931200
   8849   8850   8852     1   109.5600471 388.275200
   8849   8857   8860     1   107.2600461 396.643200
   8850   8851   8854     1   110.2200475 386.601600
   8850   8856   8862     1   107.2600461 396.643200
   8850   8849   8853     1   109.5600471 388.275200
   8851   8850   8852     1   109.5600471 388.275200
   8852   8850   8856     1   110.2600474 425.931200
   8853   8849   8857     1   110.2600474 425.931200
   8854   8851   8855     1   109.5800467 425.931200
   8854   8851   8867     1   109.5800467 425.931200
   8859   8865   8866     1   107.2600461 396.643200
   8863   8859   8865     1   110.2600474 425.931200
   8863   8859   8864     1   108.4600466 328.025600
   8864   8859   8865     1   110.2600474 425.931200
   8868   8869   8871     1   109.5600471 388.275200
   8868   8882   8886     1   109.5600471 388.275200
   8868   8882   8887     1   109.5600471 388.275200
   8869   8868   8870     1   109.5600471 388.275200
   8869   8872   8876     1   109.5600471 388.275200
   8869   8881   8884     1   107.2600461 396.643200
   8870   8868   8882     1   109.5600471 388.275200
   8870   8868   8890     1   109.7800468 425.094400
   8871   8869   8872     1   109.5600471 388.275200
   8871   8869   8881     1   110.2600474 425.931200
   8872   8873   8875     1   109.5600471 388.275200
   8872   8880   8883     1   107.2600461 396.643200
   8873   8872   8876     1   109.5600471 388.275200
   8873   8874   8877     1   110.2200475 386.601600
   8873   8879   8885     1   107.2600461 396.643200
   8874   8873   8875     1   109.5600471 388.275200
   8875   8873   8879     1   110.2600474 425.931200
   8876   8872   8880     1   110.2600474 425.931200
   8877   8874   8878     1   109.5800467 425.931200
   8877   8874   8890     1   109.5800467 425.931200
   8882   8888   8889     1   107.2600461 396.643200
   8886   8882   8888     1   110.2600474 425.931200
   8886   8882   8887     1   108.4600466 328.025600
   8887   8882   8888     1   110.2600474 425.931200
   8891   8892   8894     1   109.5600471 388.275200
   8891   8905   8909     1   109.5600471 388.275200
   8891   8905   8910     1   109.5600471 388.275200
   8892   8895   8899     1   109.5600471 388.275200
   8892   8904   8907     1   107.2600461 396.643200
   8892   8891   8893     1   109.5600471 388.275200
   8893   8891   8905     1   109.5600471 388.275200
   8893   8891   8913     1   109.7800468 425.094400
   8894   8892   8895     1   109.5600471 388.275200
   8894   8892   8904     1   110.2600474 425.931200
   8895   8896   8898     1   109.5600471 388.275200
   8895   8903   8906     1   107.2600461 396.643200
   8896   8897   8900     1   110.2200475 386.601600
   8896   8902   8908     1   107.2600461 396.643200
   8896   8895   8899     1   109.5600471 388.275200
   8897   8896   8898     1   109.5600471 388.275200
   8898   8896   8902     1   110.2600474 425.931200
   8899   8895   8903     1   110.2600474 425.931200
   8900   8897   8901     1   109.5800467 425.931200
   8900   8897   8913     1   109.5800467 425.931200
   8905   8911   8912     1   107.2600461 396.643200
   8909   8905   8911     1   110.2600474 425.931200
   8909   8905   8910     1   108.4600466 328.025600
   8910   8905   8911     1   110.2600474 425.931200
   8914   8915   8917     1   109.5600471 388.275200
   8914   8928   8932     1   109.5600471 388.275200
   8914   8928   8933     1   109.5600471 388.275200
   8915   8914   8916     1   109.5600471 388.275200
   8915   8918   8922     1   109.5600471 388.275200
   8915   8927   8930     1   107.2600461 396.643200
   8916   8914   8928     1   109.5600471 388.275200
   8916   8914   8936     1   109.7800468 425.094400
   8917   8915   8918     1   109.5600471 388.275200
   8917   8915   8927     1   110.2600474 425.931200
   8918   8919   8921     1   109.5600471 388.275200
   8918   8926   8929     1   107.2600461 396.643200
   8919   8918   8922     1   109.5600471 388.275200
   8919   8920   8923     1   110.2200475 386.601600
   8919   8925   8931     1   107.2600461 396.643200
   8920   8919   8921     1   109.5600471 388.275200
   8921   8919   8925     1   110.2600474 425.931200
   8922   8918   8926     1   110.2600474 425.931200
   8923   8920   8924     1   109.5800467 425.931200
   8923   8920   8936     1   109.5800467 425.931200
   8928   8934   8935     1   107.2600461 396.643200
   8932   8928   8934     1   110.2600474 425.931200
   8932   8928   8933     1   108.4600466 328.025600
   8933   8928   8934     1   110.2600474 425.931200
   8937   8938   8940     1   109.5600471 388.275200
   8937   8951   8955     1   109.5600471 388.275200
   8937   8951   8956     1   109.5600471 388.275200
   8938   8941   8945     1   109.5600471 388.275200
   8938   8950   8953     1   107.2600461 396.643200
   8938   8937   8939     1   109.5600471 388.275200
   8939   8937   8951     1   109.5600471 388.275200
   8939   8937   8959     1   109.7800468 425.094400
   8940   8938   8941     1   109.5600471 388.275200
   8940   8938   8950     1   110.2600474 425.931200
   8941   8942   8944     1   109.5600471 388.275200
   8941   8949   8952     1   107.2600461 396.643200
   8942   8943   8946     1   110.2200475 386.601600
   8942   8948   8954     1   107.2600461 396.643200
   8942   8941   8945     1   109.5600471 388.275200
   8943   8942   8944     1   109.5600471 388.275200
   8944   8942   8948     1   110.2600474 425.931200
   8945   8941   8949     1   110.2600474 425.931200
   8946   8943   8947     1   109.5800467 425.931200
   8946   8943   8959     1   109.5800467 425.931200
   8951   8957   8958     1   107.2600461 396.643200
   8955   8951   8957     1   110.2600474 425.931200
   8955   8951   8956     1   108.4600466 328.025600
   8956   8951   8957     1   110.2600474 425.931200
   8960   8961   8963     1   109.5600471 388.275200
   8960   8974   8978     1   109.5600471 388.275200
   8960   8974   8979     1   109.5600471 388.275200
   8961   8960   8962     1   109.5600471 388.275200
   8961   8964   8968     1   109.5600471 388.275200
   8961   8973   8976     1   107.2600461 396.643200
   8962   8960   8974     1   109.5600471 388.275200
   8962   8960   8982     1   109.7800468 425.094400
   8963   8961   8964     1   109.5600471 388.275200
   8963   8961   8973     1   110.2600474 425.931200
   8964   8965   8967     1   109.5600471 388.275200
   8964   8972   8975     1   107.2600461 396.643200
   8965   8964   8968     1   109.5600471 388.275200
   8965   8966   8969     1   110.2200475 386.601600
   8965   8971   8977     1   107.2600461 396.643200
   8966   8965   8967     1   109.5600471 388.275200
   8967   8965   8971     1   110.2600474 425.931200
   8968   8964   8972     1   110.2600474 425.931200
   8969   8966   8970     1   109.5800467 425.931200
   8969   8966   8982     1   109.5800467 425.931200
   8974   8980   8981     1   107.2600461 396.643200
   8978   8974   8980     1   110.2600474 425.931200
   8978   8974   8979     1   108.4600466 328.025600
   8979   8974   8980     1   110.2600474 425.931200
   8983   8984   8986     1   109.5600471 388.275200
   8983   8997   9001     1   109.5600471 388.275200
   8983   8997   9002     1   109.5600471 388.275200
   8984   8987   8991     1   109.5600471 388.275200
   8984   8996   8999     1   107.2600461 396.643200
   8984   8983   8985     1   109.5600471 388.275200
   8985   8983   8997     1   109.5600471 388.275200
   8985   8983   9005     1   109.7800468 425.094400
   8986   8984   8987     1   109.5600471 388.275200
   8986   8984   8996     1   110.2600474 425.931200
   8987   8988   8990     1   109.5600471 388.275200
   8987   8995   8998     1   107.2600461 396.643200
   8988   8989   8992     1   110.2200475 386.601600
   8988   8994   9000     1   107.2600461 396.643200
   8988   8987   8991     1   109.5600471 388.275200
   8989   8988   8990     1   109.5600471 388.275200
   8990   8988   8994     1   110.2600474 425.931200
   8991   8987   8995     1   110.2600474 425.931200
   8992   8989   8993     1   109.5800467 425.931200
   8992   8989   9005     1   109.5800467 425.931200
   8997   9003   9004     1   107.2600461 396.643200
   9001   8997   9003     1   110.2600474 425.931200
   9001   8997   9002     1   108.4600466 328.025600
   9002   8997   9003     1   110.2600474 425.931200
   9006   9007   9009     1   109.5600471 388.275200
   9006   9020   9024     1   109.5600471 388.275200
   9006   9020   9025     1   109.5600471 388.275200
   9007   9006   9008     1   109.5600471 388.275200
   9007   9010   9014     1   109.5600471 388.275200
   9007   9019   9022     1   107.2600461 396.643200
   9008   9006   9020     1   109.5600471 388.275200
   9008   9006   9028     1   109.7800468 425.094400
   9009   9007   9010     1   109.5600471 388.275200
   9009   9007   9019     1   110.2600474 425.931200
   9010   9011   9013     1   109.5600471 388.275200
   9010   9018   9021     1   107.2600461 396.643200
   9011   9010   9014     1   109.5600471 388.275200
   9011   9012   9015     1   110.2200475 386.601600
   9011   9017   9023     1   107.2600461 396.643200
   9012   9011   9013     1   109.5600471 388.275200
   9013   9011   9017     1   110.2600474 425.931200
   9014   9010   9018     1   110.2600474 425.931200
   9015   9012   9016     1   109.5800467 425.931200
   9015   9012   9028     1   109.5800467 425.931200
   9020   9026   9027     1   107.2600461 396.643200
   9024   9020   9026     1   110.2600474 425.931200
   9024   9020   9025     1   108.4600466 328.025600
   9025   9020   9026     1   110.2600474 425.931200
   9029   9030   9032     1   109.5600471 388.275200
   9029   9043   9047     1   109.5600471 388.275200
   9029   9043   9048     1   109.5600471 388.275200
   9030   9033   9037     1   109.5600471 388.275200
   9030   9042   9045     1   107.2600461 396.643200
   9030   9029   9031     1   109.5600471 388.275200
   9031   9029   9043     1   109.5600471 388.275200
   9031   9029   9051     1   109.7800468 425.094400
   9032   9030   9033     1   109.5600471 388.275200
   9032   9030   9042     1   110.2600474 425.931200
   9033   9034   9036     1   109.5600471 388.275200
   9033   9041   9044     1   107.2600461 396.643200
   9034   9035   9038     1   110.2200475 386.601600
   9034   9040   9046     1   107.2600461 396.643200
   9034   9033   9037     1   109.5600471 388.275200
   9035   9034   9036     1   109.5600471 388.275200
   9036   9034   9040     1   110.2600474 425.931200
   9037   9033   9041     1   110.2600474 425.931200
   9038   9035   9039     1   109.5800467 425.931200
   9038   9035   9051     1   109.5800467 425.931200
   9043   9049   9050     1   107.2600461 396.643200
   9047   9043   9049     1   110.2600474 425.931200
   9047   9043   9048     1   108.4600466 328.025600
   9048   9043   9049     1   110.2600474 425.931200
   9052   9053   9055     1   109.5600471 388.275200
   9052   9066   9070     1   109.5600471 388.275200
   9052   9066   9071     1   109.5600471 388.275200
   9053   9052   9054     1   109.5600471 388.275200
   9053   9056   9060     1   109.5600471 388.275200
   9053   9065   9068     1   107.2600461 396.643200
   9054   9052   9066     1   109.5600471 388.275200
   9054   9052   9074     1   109.7800468 425.094400
   9055   9053   9056     1   109.5600471 388.275200
   9055   9053   9065     1   110.2600474 425.931200
   9056   9057   9059     1   109.5600471 388.275200
   9056   9064   9067     1   107.2600461 396.643200
   9057   9056   9060     1   109.5600471 388.275200
   9057   9058   9061     1   110.2200475 386.601600
   9057   9063   9069     1   107.2600461 396.643200
   9058   9057   9059     1   109.5600471 388.275200
   9059   9057   9063     1   110.2600474 425.931200
   9060   9056   9064     1   110.2600474 425.931200
   9061   9058   9062     1   109.5800467 425.931200
   9061   9058   9074     1   109.5800467 425.931200
   9066   9072   9073     1   107.2600461 396.643200
   9070   9066   9072     1   110.2600474 425.931200
   9070   9066   9071     1   108.4600466 328.025600
   9071   9066   9072     1   110.2600474 425.931200
   9075   9076   9078     1   109.5600471 388.275200
   9075   9089   9093     1   109.5600471 388.275200
   9075   9089   9094     1   109.5600471 388.275200
   9076   9079   9083     1   109.5600471 388.275200
   9076   9088   9091     1   107.2600461 396.643200
   9076   9075   9077     1   109.5600471 388.275200
   9077   9075   9089     1   109.5600471 388.275200
   9077   9075   9097     1   109.7800468 425.094400
   9078   9076   9079     1   109.5600471 388.275200
   9078   9076   9088     1   110.2600474 425.931200
   9079   9080   9082     1   109.5600471 388.275200
   9079   9087   9090     1   107.2600461 396.643200
   9080   9081   9084     1   110.2200475 386.601600
   9080   9086   9092     1   107.2600461 396.643200
   9080   9079   9083     1   109.5600471 388.275200
   9081   9080   9082     1   109.5600471 388.275200
   9082   9080   9086     1   110.2600474 425.931200
   9083   9079   9087     1   110.2600474 425.931200
   9084   9081   9085     1   109.5800467 425.931200
   9084   9081   9097     1   109.5800467 425.931200
   9089   9095   9096     1   107.2600461 396.643200
   9093   9089   9095     1   110.2600474 425.931200
   9093   9089   9094     1   108.4600466 328.025600
   9094   9089   9095     1   110.2600474 425.931200
   9098   9099   9101     1   109.5600471 388.275200
   9098   9112   9116     1   109.5600471 388.275200
   9098   9112   9117     1   109.5600471 388.275200
   9099   9098   9100     1   109.5600471 388.275200
   9099   9102   9106     1   109.5600471 388.275200
   9099   9111   9114     1   107.2600461 396.643200
   9100   9098   9112     1   109.5600471 388.275200
   9100   9098   9120     1   109.7800468 425.094400
   9101   9099   9102     1   109.5600471 388.275200
   9101   9099   9111     1   110.2600474 425.931200
   9102   9103   9105     1   109.5600471 388.275200
   9102   9110   9113     1   107.2600461 396.643200
   9103   9102   9106     1   109.5600471 388.275200
   9103   9104   9107     1   110.2200475 386.601600
   9103   9109   9115     1   107.2600461 396.643200
   9104   9103   9105     1   109.5600471 388.275200
   9105   9103   9109     1   110.2600474 425.931200
   9106   9102   9110     1   110.2600474 425.931200
   9107   9104   9108     1   109.5800467 425.931200
   9107   9104   9120     1   109.5800467 425.931200
   9112   9118   9119     1   107.2600461 396.643200
   9116   9112   9118     1   110.2600474 425.931200
   9116   9112   9117     1   108.4600466 328.025600
   9117   9112   9118     1   110.2600474 425.931200
   9121   9122   9124     1   109.5600471 388.275200
   9121   9135   9139     1   109.5600471 388.275200
   9121   9135   9140     1   109.5600471 388.275200
   9122   9125   9129     1   109.5600471 388.275200
   9122   9134   9137     1   107.2600461 396.643200
   9122   9121   9123     1   109.5600471 388.275200
   9123   9121   9135     1   109.5600471 388.275200
   9123   9121   9143     1   109.7800468 425.094400
   9124   9122   9125     1   109.5600471 388.275200
   9124   9122   9134     1   110.2600474 425.931200
   9125   9126   9128     1   109.5600471 388.275200
   9125   9133   9136     1   107.2600461 396.643200
   9126   9127   9130     1   110.2200475 386.601600
   9126   9132   9138     1   107.2600461 396.643200
   9126   9125   9129     1   109.5600471 388.275200
   9127   9126   9128     1   109.5600471 388.275200
   9128   9126   9132     1   110.2600474 425.931200
   9129   9125   9133     1   110.2600474 425.931200
   9130   9127   9131     1   109.5800467 425.931200
   9130   9127   9143     1   109.5800467 425.931200
   9135   9141   9142     1   107.2600461 396.643200
   9139   9135   9141     1   110.2600474 425.931200
   9139   9135   9140     1   108.4600466 328.025600
   9140   9135   9141     1   110.2600474 425.931200
   9144   9145   9147     1   109.5600471 388.275200
   9144   9158   9162     1   109.5600471 388.275200
   9144   9158   9163     1   109.5600471 388.275200
   9145   9144   9146     1   109.5600471 388.275200
   9145   9148   9152     1   109.5600471 388.275200
   9145   9157   9160     1   107.2600461 396.643200
   9146   9144   9158     1   109.5600471 388.275200
   9146   9144   9166     1   109.7800468 425.094400
   9147   9145   9148     1   109.5600471 388.275200
   9147   9145   9157     1   110.2600474 425.931200
   9148   9149   9151     1   109.5600471 388.275200
   9148   9156   9159     1   107.2600461 396.643200
   9149   9148   9152     1   109.5600471 388.275200
   9149   9150   9153     1   110.2200475 386.601600
   9149   9155   9161     1   107.2600461 396.643200
   9150   9149   9151     1   109.5600471 388.275200
   9151   9149   9155     1   110.2600474 425.931200
   9152   9148   9156     1   110.2600474 425.931200
   9153   9150   9154     1   109.5800467 425.931200
   9153   9150   9166     1   109.5800467 425.931200
   9158   9164   9165     1   107.2600461 396.643200
   9162   9158   9164     1   110.2600474 425.931200
   9162   9158   9163     1   108.4600466 328.025600
   9163   9158   9164     1   110.2600474 425.931200
   9167   9168   9170     1   109.5600471 388.275200
   9167   9181   9185     1   109.5600471 388.275200
   9167   9181   9186     1   109.5600471 388.275200
   9168   9171   9175     1   109.5600471 388.275200
   9168   9180   9183     1   107.2600461 396.643200
   9168   9167   9169     1   109.5600471 388.275200
   9169   9167   9181     1   109.5600471 388.275200
   9169   9167   9189     1   109.7800468 425.094400
   9170   9168   9171     1   109.5600471 388.275200
   9170   9168   9180     1   110.2600474 425.931200
   9171   9172   9174     1   109.5600471 388.275200
   9171   9179   9182     1   107.2600461 396.643200
   9172   9173   9176     1   110.2200475 386.601600
   9172   9178   9184     1   107.2600461 396.643200
   9172   9171   9175     1   109.5600471 388.275200
   9173   9172   9174     1   109.5600471 388.275200
   9174   9172   9178     1   110.2600474 425.931200
   9175   9171   9179     1   110.2600474 425.931200
   9176   9173   9177     1   109.5800467 425.931200
   9176   9173   9189     1   109.5800467 425.931200
   9181   9187   9188     1   107.2600461 396.643200
   9185   9181   9187     1   110.2600474 425.931200
   9185   9181   9186     1   108.4600466 328.025600
   9186   9181   9187     1   110.2600474 425.931200
   9190   9191   9193     1   109.5600471 388.275200
   9190   9204   9208     1   109.5600471 388.275200
   9190   9204   9209     1   109.5600471 388.275200
   9191   9190   9192     1   109.5600471 388.275200
   9191   9194   9198     1   109.5600471 388.275200
   9191   9203   9206     1   107.2600461 396.643200
   9192   9190   9204     1   109.5600471 388.275200
   9192   9190   9212     1   109.7800468 425.094400
   9193   9191   9194     1   109.5600471 388.275200
   9193   9191   9203     1   110.2600474 425.931200
   9194   9195   9197     1   109.5600471 388.275200
   9194   9202   9205     1   107.2600461 396.643200
   9195   9194   9198     1   109.5600471 388.275200
   9195   9196   9199     1   110.2200475 386.601600
   9195   9201   9207     1   107.2600461 396.643200
   9196   9195   9197     1   109.5600471 388.275200
   9197   9195   9201     1   110.2600474 425.931200
   9198   9194   9202     1   110.2600474 425.931200
   9199   9196   9200     1   109.5800467 425.931200
   9199   9196   9212     1   109.5800467 425.931200
   9204   9210   9211     1   107.2600461 396.643200
   9208   9204   9210     1   110.2600474 425.931200
   9208   9204   9209     1   108.4600466 328.025600
   9209   9204   9210     1   110.2600474 425.931200
   9213   9214   9216     1   109.5600471 388.275200
   9213   9227   9231     1   109.5600471 388.275200
   9213   9227   9232     1   109.5600471 388.275200
   9214   9217   9221     1   109.5600471 388.275200
   9214   9226   9229     1   107.2600461 396.643200
   9214   9213   9215     1   109.5600471 388.275200
   9215   9213   9227     1   109.5600471 388.275200
   9215   9213   9235     1   109.7800468 425.094400
   9216   9214   9217     1   109.5600471 388.275200
   9216   9214   9226     1   110.2600474 425.931200
   9217   9218   9220     1   109.5600471 388.275200
   9217   9225   9228     1   107.2600461 396.643200
   9218   9219   9222     1   110.2200475 386.601600
   9218   9224   9230     1   107.2600461 396.643200
   9218   9217   9221     1   109.5600471 388.275200
   9219   9218   9220     1   109.5600471 388.275200
   9220   9218   9224     1   110.2600474 425.931200
   9221   9217   9225     1   110.2600474 425.931200
   9222   9219   9223     1   109.5800467 425.931200
   9222   9219   9235     1   109.5800467 425.931200
   9227   9233   9234     1   107.2600461 396.643200
   9231   9227   9233     1   110.2600474 425.931200
   9231   9227   9232     1   108.4600466 328.025600
   9232   9227   9233     1   110.2600474 425.931200
   9236   9237   9239     1   109.5600471 388.275200
   9236   9250   9254     1   109.5600471 388.275200
   9236   9250   9255     1   109.5600471 388.275200
   9237   9236   9238     1   109.5600471 388.275200
   9237   9240   9244     1   109.5600471 388.275200
   9237   9249   9252     1   107.2600461 396.643200
   9238   9236   9250     1   109.5600471 388.275200
   9238   9236   9258     1   109.7800468 425.094400
   9239   9237   9240     1   109.5600471 388.275200
   9239   9237   9249     1   110.2600474 425.931200
   9240   9241   9243     1   109.5600471 388.275200
   9240   9248   9251     1   107.2600461 396.643200
   9241   9240   9244     1   109.5600471 388.275200
   9241   9242   9245     1   110.2200475 386.601600
   9241   9247   9253     1   107.2600461 396.643200
   9242   9241   9243     1   109.5600471 388.275200
   9243   9241   9247     1   110.2600474 425.931200
   9244   9240   9248     1   110.2600474 425.931200
   9245   9242   9246     1   109.5800467 425.931200
   9245   9242   9258     1   109.5800467 425.931200
   9250   9256   9257     1   107.2600461 396.643200
   9254   9250   9256     1   110.2600474 425.931200
   9254   9250   9255     1   108.4600466 328.025600
   9255   9250   9256     1   110.2600474 425.931200
   9259   9260   9262     1   109.5600471 388.275200
   9259   9273   9277     1   109.5600471 388.275200
   9259   9273   9278     1   109.5600471 388.275200
   9260   9263   9267     1   109.5600471 388.275200
   9260   9272   9275     1   107.2600461 396.643200
   9260   9259   9261     1   109.5600471 388.275200
   9261   9259   9273     1   109.5600471 388.275200
   9261   9259   9281     1   109.7800468 425.094400
   9262   9260   9263     1   109.5600471 388.275200
   9262   9260   9272     1   110.2600474 425.931200
   9263   9264   9266     1   109.5600471 388.275200
   9263   9271   9274     1   107.2600461 396.643200
   9264   9265   9268     1   110.2200475 386.601600
   9264   9270   9276     1   107.2600461 396.643200
   9264   9263   9267     1   109.5600471 388.275200
   9265   9264   9266     1   109.5600471 388.275200
   9266   9264   9270     1   110.2600474 425.931200
   9267   9263   9271     1   110.2600474 425.931200
   9268   9265   9269     1   109.5800467 425.931200
   9268   9265   9281     1   109.5800467 425.931200
   9273   9279   9280     1   107.2600461 396.643200
   9277   9273   9279     1   110.2600474 425.931200
   9277   9273   9278     1   108.4600466 328.025600
   9278   9273   9279     1   110.2600474 425.931200
   9282   9283   9285     1   109.5600471 388.275200
   9282   9296   9300     1   109.5600471 388.275200
   9282   9296   9301     1   109.5600471 388.275200
   9283   9282   9284     1   109.5600471 388.275200
   9283   9286   9290     1   109.5600471 388.275200
   9283   9295   9298     1   107.2600461 396.643200
   9284   9282   9296     1   109.5600471 388.275200
   9284   9282   9304     1   109.7800468 425.094400
   9285   9283   9286     1   109.5600471 388.275200
   9285   9283   9295     1   110.2600474 425.931200
   9286   9287   9289     1   109.5600471 388.275200
   9286   9294   9297     1   107.2600461 396.643200
   9287   9286   9290     1   109.5600471 388.275200
   9287   9288   9291     1   110.2200475 386.601600
   9287   9293   9299     1   107.2600461 396.643200
   9288   9287   9289     1   109.5600471 388.275200
   9289   9287   9293     1   110.2600474 425.931200
   9290   9286   9294     1   110.2600474 425.931200
   9291   9288   9292     1   109.5800467 425.931200
   9291   9288   9304     1   109.5800467 425.931200
   9296   9302   9303     1   107.2600461 396.643200
   9300   9296   9302     1   110.2600474 425.931200
   9300   9296   9301     1   108.4600466 328.025600
   9301   9296   9302     1   110.2600474 425.931200
   9305   9306   9308     1   109.5600471 388.275200
   9305   9319   9323     1   109.5600471 388.275200
   9305   9319   9324     1   109.5600471 388.275200
   9306   9309   9313     1   109.5600471 388.275200
   9306   9318   9321     1   107.2600461 396.643200
   9306   9305   9307     1   109.5600471 388.275200
   9307   9305   9319     1   109.5600471 388.275200
   9307   9305   9327     1   109.7800468 425.094400
   9308   9306   9309     1   109.5600471 388.275200
   9308   9306   9318     1   110.2600474 425.931200
   9309   9310   9312     1   109.5600471 388.275200
   9309   9317   9320     1   107.2600461 396.643200
   9310   9311   9314     1   110.2200475 386.601600
   9310   9316   9322     1   107.2600461 396.643200
   9310   9309   9313     1   109.5600471 388.275200
   9311   9310   9312     1   109.5600471 388.275200
   9312   9310   9316     1   110.2600474 425.931200
   9313   9309   9317     1   110.2600474 425.931200
   9314   9311   9315     1   109.5800467 425.931200
   9314   9311   9327     1   109.5800467 425.931200
   9319   9325   9326     1   107.2600461 396.643200
   9323   9319   9325     1   110.2600474 425.931200
   9323   9319   9324     1   108.4600466 328.025600
   9324   9319   9325     1   110.2600474 425.931200
   9328   9329   9331     1   109.5600471 388.275200
   9328   9342   9346     1   109.5600471 388.275200
   9328   9342   9347     1   109.5600471 388.275200
   9329   9328   9330     1   109.5600471 388.275200
   9329   9332   9336     1   109.5600471 388.275200
   9329   9341   9344     1   107.2600461 396.643200
   9330   9328   9342     1   109.5600471 388.275200
   9330   9328   9350     1   109.7800468 425.094400
   9331   9329   9332     1   109.5600471 388.275200
   9331   9329   9341     1   110.2600474 425.931200
   9332   9333   9335     1   109.5600471 388.275200
   9332   9340   9343     1   107.2600461 396.643200
   9333   9332   9336     1   109.5600471 388.275200
   9333   9334   9337     1   110.2200475 386.601600
   9333   9339   9345     1   107.2600461 396.643200
   9334   9333   9335     1   109.5600471 388.275200
   9335   9333   9339     1   110.2600474 425.931200
   9336   9332   9340     1   110.2600474 425.931200
   9337   9334   9338     1   109.5800467 425.931200
   9337   9334   9350     1   109.5800467 425.931200
   9342   9348   9349     1   107.2600461 396.643200
   9346   9342   9348     1   110.2600474 425.931200
   9346   9342   9347     1   108.4600466 328.025600
   9347   9342   9348     1   110.2600474 425.931200
   9351   9352   9354     1   109.5600471 388.275200
   9351   9365   9369     1   109.5600471 388.275200
   9351   9365   9370     1   109.5600471 388.275200
   9352   9355   9359     1   109.5600471 388.275200
   9352   9364   9367     1   107.2600461 396.643200
   9352   9351   9353     1   109.5600471 388.275200
   9353   9351   9365     1   109.5600471 388.275200
   9353   9351   9373     1   109.7800468 425.094400
   9354   9352   9355     1   109.5600471 388.275200
   9354   9352   9364     1   110.2600474 425.931200
   9355   9356   9358     1   109.5600471 388.275200
   9355   9363   9366     1   107.2600461 396.643200
   9356   9357   9360     1   110.2200475 386.601600
   9356   9362   9368     1   107.2600461 396.643200
   9356   9355   9359     1   109.5600471 388.275200
   9357   9356   9358     1   109.5600471 388.275200
   9358   9356   9362     1   110.2600474 425.931200
   9359   9355   9363     1   110.2600474 425.931200
   9360   9357   9361     1   109.5800467 425.931200
   9360   9357   9373     1   109.5800467 425.931200
   9365   9371   9372     1   107.2600461 396.643200
   9369   9365   9371     1   110.2600474 425.931200
   9369   9365   9370     1   108.4600466 328.025600
   9370   9365   9371     1   110.2600474 425.931200
   9374   9375   9377     1   109.5600471 388.275200
   9374   9388   9392     1   109.5600471 388.275200
   9374   9388   9393     1   109.5600471 388.275200
   9375   9374   9376     1   109.5600471 388.275200
   9375   9378   9382     1   109.5600471 388.275200
   9375   9387   9390     1   107.2600461 396.643200
   9376   9374   9388     1   109.5600471 388.275200
   9376   9374   9396     1   109.7800468 425.094400
   9377   9375   9378     1   109.5600471 388.275200
   9377   9375   9387     1   110.2600474 425.931200
   9378   9379   9381     1   109.5600471 388.275200
   9378   9386   9389     1   107.2600461 396.643200
   9379   9378   9382     1   109.5600471 388.275200
   9379   9380   9383     1   110.2200475 386.601600
   9379   9385   9391     1   107.2600461 396.643200
   9380   9379   9381     1   109.5600471 388.275200
   9381   9379   9385     1   110.2600474 425.931200
   9382   9378   9386     1   110.2600474 425.931200
   9383   9380   9384     1   109.5800467 425.931200
   9383   9380   9396     1   109.5800467 425.931200
   9388   9394   9395     1   107.2600461 396.643200
   9392   9388   9394     1   110.2600474 425.931200
   9392   9388   9393     1   108.4600466 328.025600
   9393   9388   9394     1   110.2600474 425.931200
   9397   9398   9400     1   109.5600471 388.275200
   9397   9411   9415     1   109.5600471 388.275200
   9397   9411   9416     1   109.5600471 388.275200
   9398   9401   9405     1   109.5600471 388.275200
   9398   9410   9413     1   107.2600461 396.643200
   9398   9397   9399     1   109.5600471 388.275200
   9399   9397   9411     1   109.5600471 388.275200
   9399   9397   9419     1   109.7800468 425.094400
   9400   9398   9401     1   109.5600471 388.275200
   9400   9398   9410     1   110.2600474 425.931200
   9401   9402   9404     1   109.5600471 388.275200
   9401   9409   9412     1   107.2600461 396.643200
   9402   9403   9406     1   110.2200475 386.601600
   9402   9408   9414     1   107.2600461 396.643200
   9402   9401   9405     1   109.5600471 388.275200
   9403   9402   9404     1   109.5600471 388.275200
   9404   9402   9408     1   110.2600474 425.931200
   9405   9401   9409     1   110.2600474 425.931200
   9406   9403   9407     1   109.5800467 425.931200
   9406   9403   9419     1   109.5800467 425.931200
   9411   9417   9418     1   107.2600461 396.643200
   9415   9411   9417     1   110.2600474 425.931200
   9415   9411   9416     1   108.4600466 328.025600
   9416   9411   9417     1   110.2600474 425.931200
   9420   9421   9423     1   109.5600471 388.275200
   9420   9434   9438     1   109.5600471 388.275200
   9420   9434   9439     1   109.5600471 388.275200
   9421   9420   9422     1   109.5600471 388.275200
   9421   9424   9428     1   109.5600471 388.275200
   9421   9433   9436     1   107.2600461 396.643200
   9422   9420   9434     1   109.5600471 388.275200
   9422   9420   9442     1   109.7800468 425.094400
   9423   9421   9424     1   109.5600471 388.275200
   9423   9421   9433     1   110.2600474 425.931200
   9424   9425   9427     1   109.5600471 388.275200
   9424   9432   9435     1   107.2600461 396.643200
   9425   9424   9428     1   109.5600471 388.275200
   9425   9426   9429     1   110.2200475 386.601600
   9425   9431   9437     1   107.2600461 396.643200
   9426   9425   9427     1   109.5600471 388.275200
   9427   9425   9431     1   110.2600474 425.931200
   9428   9424   9432     1   110.2600474 425.931200
   9429   9426   9430     1   109.5800467 425.931200
   9429   9426   9442     1   109.5800467 425.931200
   9434   9440   9441     1   107.2600461 396.643200
   9438   9434   9440     1   110.2600474 425.931200
   9438   9434   9439     1   108.4600466 328.025600
   9439   9434   9440     1   110.2600474 425.931200
   9443   9444   9446     1   109.5600471 388.275200
   9443   9457   9461     1   109.5600471 388.275200
   9443   9457   9462     1   109.5600471 388.275200
   9444   9447   9451     1   109.5600471 388.275200
   9444   9456   9459     1   107.2600461 396.643200
   9444   9443   9445     1   109.5600471 388.275200
   9445   9443   9457     1   109.5600471 388.275200
   9445   9443   9465     1   109.7800468 425.094400
   9446   9444   9447     1   109.5600471 388.275200
   9446   9444   9456     1   110.2600474 425.931200
   9447   9448   9450     1   109.5600471 388.275200
   9447   9455   9458     1   107.2600461 396.643200
   9448   9449   9452     1   110.2200475 386.601600
   9448   9454   9460     1   107.2600461 396.643200
   9448   9447   9451     1   109.5600471 388.275200
   9449   9448   9450     1   109.5600471 388.275200
   9450   9448   9454     1   110.2600474 425.931200
   9451   9447   9455     1   110.2600474 425.931200
   9452   9449   9453     1   109.5800467 425.931200
   9452   9449   9465     1   109.5800467 425.931200
   9457   9463   9464     1   107.2600461 396.643200
   9461   9457   9463     1   110.2600474 425.931200
   9461   9457   9462     1   108.4600466 328.025600
   9462   9457   9463     1   110.2600474 425.931200
   9466   9467   9469     1   109.5600471 388.275200
   9466   9480   9484     1   109.5600471 388.275200
   9466   9480   9485     1   109.5600471 388.275200
   9467   9466   9468     1   109.5600471 388.275200
   9467   9470   9474     1   109.5600471 388.275200
   9467   9479   9482     1   107.2600461 396.643200
   9468   9466   9480     1   109.5600471 388.275200
   9468   9466   9488     1   109.7800468 425.094400
   9469   9467   9470     1   109.5600471 388.275200
   9469   9467   9479     1   110.2600474 425.931200
   9470   9471   9473     1   109.5600471 388.275200
   9470   9478   9481     1   107.2600461 396.643200
   9471   9470   9474     1   109.5600471 388.275200
   9471   9472   9475     1   110.2200475 386.601600
   9471   9477   9483     1   107.2600461 396.643200
   9472   9471   9473     1   109.5600471 388.275200
   9473   9471   9477     1   110.2600474 425.931200
   9474   9470   9478     1   110.2600474 425.931200
   9475   9472   9476     1   109.5800467 425.931200
   9475   9472   9488     1   109.5800467 425.931200
   9480   9486   9487     1   107.2600461 396.643200
   9484   9480   9486     1   110.2600474 425.931200
   9484   9480   9485     1   108.4600466 328.025600
   9485   9480   9486     1   110.2600474 425.931200
   9489   9490   9492     1   109.5600471 388.275200
   9489   9503   9507     1   109.5600471 388.275200
   9489   9503   9508     1   109.5600471 388.275200
   9490   9493   9497     1   109.5600471 388.275200
   9490   9502   9505     1   107.2600461 396.643200
   9490   9489   9491     1   109.5600471 388.275200
   9491   9489   9503     1   109.5600471 388.275200
   9491   9489   9511     1   109.7800468 425.094400
   9492   9490   9493     1   109.5600471 388.275200
   9492   9490   9502     1   110.2600474 425.931200
   9493   9494   9496     1   109.5600471 388.275200
   9493   9501   9504     1   107.2600461 396.643200
   9494   9495   9498     1   110.2200475 386.601600
   9494   9500   9506     1   107.2600461 396.643200
   9494   9493   9497     1   109.5600471 388.275200
   9495   9494   9496     1   109.5600471 388.275200
   9496   9494   9500     1   110.2600474 425.931200
   9497   9493   9501     1   110.2600474 425.931200
   9498   9495   9499     1   109.5800467 425.931200
   9498   9495   9511     1   109.5800467 425.931200
   9503   9509   9510     1   107.2600461 396.643200
   9507   9503   9509     1   110.2600474 425.931200
   9507   9503   9508     1   108.4600466 328.025600
   9508   9503   9509     1   110.2600474 425.931200
   9512   9513   9515     1   109.5600471 388.275200
   9512   9526   9530     1   109.5600471 388.275200
   9512   9526   9531     1   109.5600471 388.275200
   9513   9512   9514     1   109.5600471 388.275200
   9513   9516   9520     1   109.5600471 388.275200
   9513   9525   9528     1   107.2600461 396.643200
   9514   9512   9526     1   109.5600471 388.275200
   9514   9512   9534     1   109.7800468 425.094400
   9515   9513   9516     1   109.5600471 388.275200
   9515   9513   9525     1   110.2600474 425.931200
   9516   9517   9519     1   109.5600471 388.275200
   9516   9524   9527     1   107.2600461 396.643200
   9517   9516   9520     1   109.5600471 388.275200
   9517   9518   9521     1   110.2200475 386.601600
   9517   9523   9529     1   107.2600461 396.643200
   9518   9517   9519     1   109.5600471 388.275200
   9519   9517   9523     1   110.2600474 425.931200
   9520   9516   9524     1   110.2600474 425.931200
   9521   9518   9522     1   109.5800467 425.931200
   9521   9518   9534     1   109.5800467 425.931200
   9526   9532   9533     1   107.2600461 396.643200
   9530   9526   9532     1   110.2600474 425.931200
   9530   9526   9531     1   108.4600466 328.025600
   9531   9526   9532     1   110.2600474 425.931200
   9535   9536   9538     1   109.5600471 388.275200
   9535   9549   9553     1   109.5600471 388.275200
   9535   9549   9554     1   109.5600471 388.275200
   9536   9539   9543     1   109.5600471 388.275200
   9536   9548   9551     1   107.2600461 396.643200
   9536   9535   9537     1   109.5600471 388.275200
   9537   9535   9549     1   109.5600471 388.275200
   9537   9535   9557     1   109.7800468 425.094400
   9538   9536   9539     1   109.5600471 388.275200
   9538   9536   9548     1   110.2600474 425.931200
   9539   9540   9542     1   109.5600471 388.275200
   9539   9547   9550     1   107.2600461 396.643200
   9540   9541   9544     1   110.2200475 386.601600
   9540   9546   9552     1   107.2600461 396.643200
   9540   9539   9543     1   109.5600471 388.275200
   9541   9540   9542     1   109.5600471 388.275200
   9542   9540   9546     1   110.2600474 425.931200
   9543   9539   9547     1   110.2600474 425.931200
   9544   9541   9545     1   109.5800467 425.931200
   9544   9541   9557     1   109.5800467 425.931200
   9549   9555   9556     1   107.2600461 396.643200
   9553   9549   9555     1   110.2600474 425.931200
   9553   9549   9554     1   108.4600466 328.025600
   9554   9549   9555     1   110.2600474 425.931200
   9558   9559   9561     1   109.5600471 388.275200
   9558   9572   9576     1   109.5600471 388.275200
   9558   9572   9577     1   109.5600471 388.275200
   9559   9558   9560     1   109.5600471 388.275200
   9559   9562   9566     1   109.5600471 388.275200
   9559   9571   9574     1   107.2600461 396.643200
   9560   9558   9572     1   109.5600471 388.275200
   9560   9558   9580     1   109.7800468 425.094400
   9561   9559   9562     1   109.5600471 388.275200
   9561   9559   9571     1   110.2600474 425.931200
   9562   9563   9565     1   109.5600471 388.275200
   9562   9570   9573     1   107.2600461 396.643200
   9563   9562   9566     1   109.5600471 388.275200
   9563   9564   9567     1   110.2200475 386.601600
   9563   9569   9575     1   107.2600461 396.643200
   9564   9563   9565     1   109.5600471 388.275200
   9565   9563   9569     1   110.2600474 425.931200
   9566   9562   9570     1   110.2600474 425.931200
   9567   9564   9568     1   109.5800467 425.931200
   9567   9564   9580     1   109.5800467 425.931200
   9572   9578   9579     1   107.2600461 396.643200
   9576   9572   9578     1   110.2600474 425.931200
   9576   9572   9577     1   108.4600466 328.025600
   9577   9572   9578     1   110.2600474 425.931200
   9581   9582   9584     1   109.5600471 388.275200
   9581   9595   9599     1   109.5600471 388.275200
   9581   9595   9600     1   109.5600471 388.275200
   9582   9585   9589     1   109.5600471 388.275200
   9582   9594   9597     1   107.2600461 396.643200
   9582   9581   9583     1   109.5600471 388.275200
   9583   9581   9595     1   109.5600471 388.275200
   9583   9581   9603     1   109.7800468 425.094400
   9584   9582   9585     1   109.5600471 388.275200
   9584   9582   9594     1   110.2600474 425.931200
   9585   9586   9588     1   109.5600471 388.275200
   9585   9593   9596     1   107.2600461 396.643200
   9586   9587   9590     1   110.2200475 386.601600
   9586   9592   9598     1   107.2600461 396.643200
   9586   9585   9589     1   109.5600471 388.275200
   9587   9586   9588     1   109.5600471 388.275200
   9588   9586   9592     1   110.2600474 425.931200
   9589   9585   9593     1   110.2600474 425.931200
   9590   9587   9591     1   109.5800467 425.931200
   9590   9587   9603     1   109.5800467 425.931200
   9595   9601   9602     1   107.2600461 396.643200
   9599   9595   9601     1   110.2600474 425.931200
   9599   9595   9600     1   108.4600466 328.025600
   9600   9595   9601     1   110.2600474 425.931200
   9604   9605   9607     1   109.5600471 388.275200
   9604   9618   9622     1   109.5600471 388.275200
   9604   9618   9623     1   109.5600471 388.275200
   9605   9604   9606     1   109.5600471 388.275200
   9605   9608   9612     1   109.5600471 388.275200
   9605   9617   9620     1   107.2600461 396.643200
   9606   9604   9618     1   109.5600471 388.275200
   9606   9604   9626     1   109.7800468 425.094400
   9607   9605   9608     1   109.5600471 388.275200
   9607   9605   9617     1   110.2600474 425.931200
   9608   9609   9611     1   109.5600471 388.275200
   9608   9616   9619     1   107.2600461 396.643200
   9609   9608   9612     1   109.5600471 388.275200
   9609   9610   9613     1   110.2200475 386.601600
   9609   9615   9621     1   107.2600461 396.643200
   9610   9609   9611     1   109.5600471 388.275200
   9611   9609   9615     1   110.2600474 425.931200
   9612   9608   9616     1   110.2600474 425.931200
   9613   9610   9614     1   109.5800467 425.931200
   9613   9610   9626     1   109.5800467 425.931200
   9618   9624   9625     1   107.2600461 396.643200
   9622   9618   9624     1   110.2600474 425.931200
   9622   9618   9623     1   108.4600466 328.025600
   9623   9618   9624     1   110.2600474 425.931200
   9627   9628   9630     1   109.5600471 388.275200
   9627   9641   9645     1   109.5600471 388.275200
   9627   9641   9646     1   109.5600471 388.275200
   9628   9631   9635     1   109.5600471 388.275200
   9628   9640   9643     1   107.2600461 396.643200
   9628   9627   9629     1   109.5600471 388.275200
   9629   9627   9641     1   109.5600471 388.275200
   9629   9627   9649     1   109.7800468 425.094400
   9630   9628   9631     1   109.5600471 388.275200
   9630   9628   9640     1   110.2600474 425.931200
   9631   9632   9634     1   109.5600471 388.275200
   9631   9639   9642     1   107.2600461 396.643200
   9632   9633   9636     1   110.2200475 386.601600
   9632   9638   9644     1   107.2600461 396.643200
   9632   9631   9635     1   109.5600471 388.275200
   9633   9632   9634     1   109.5600471 388.275200
   9634   9632   9638     1   110.2600474 425.931200
   9635   9631   9639     1   110.2600474 425.931200
   9636   9633   9637     1   109.5800467 425.931200
   9636   9633   9649     1   109.5800467 425.931200
   9641   9647   9648     1   107.2600461 396.643200
   9645   9641   9647     1   110.2600474 425.931200
   9645   9641   9646     1   108.4600466 328.025600
   9646   9641   9647     1   110.2600474 425.931200
   9650   9651   9653     1   109.5600471 388.275200
   9650   9664   9668     1   109.5600471 388.275200
   9650   9664   9669     1   109.5600471 388.275200
   9651   9650   9652     1   109.5600471 388.275200
   9651   9654   9658     1   109.5600471 388.275200
   9651   9663   9666     1   107.2600461 396.643200
   9652   9650   9664     1   109.5600471 388.275200
   9652   9650   9672     1   109.7800468 425.094400
   9653   9651   9654     1   109.5600471 388.275200
   9653   9651   9663     1   110.2600474 425.931200
   9654   9655   9657     1   109.5600471 388.275200
   9654   9662   9665     1   107.2600461 396.643200
   9655   9654   9658     1   109.5600471 388.275200
   9655   9656   9659     1   110.2200475 386.601600
   9655   9661   9667     1   107.2600461 396.643200
   9656   9655   9657     1   109.5600471 388.275200
   9657   9655   9661     1   110.2600474 425.931200
   9658   9654   9662     1   110.2600474 425.931200
   9659   9656   9660     1   109.5800467 425.931200
   9659   9656   9672     1   109.5800467 425.931200
   9664   9670   9671     1   107.2600461 396.643200
   9668   9664   9670     1   110.2600474 425.931200
   9668   9664   9669     1   108.4600466 328.025600
   9669   9664   9670     1   110.2600474 425.931200
   9673   9674   9676     1   109.5600471 388.275200
   9673   9687   9691     1   109.5600471 388.275200
   9673   9687   9692     1   109.5600471 388.275200
   9674   9677   9681     1   109.5600471 388.275200
   9674   9686   9689     1   107.2600461 396.643200
   9674   9673   9675     1   109.5600471 388.275200
   9675   9673   9687     1   109.5600471 388.275200
   9675   9673   9695     1   109.7800468 425.094400
   9676   9674   9677     1   109.5600471 388.275200
   9676   9674   9686     1   110.2600474 425.931200
   9677   9678   9680     1   109.5600471 388.275200
   9677   9685   9688     1   107.2600461 396.643200
   9678   9679   9682     1   110.2200475 386.601600
   9678   9684   9690     1   107.2600461 396.643200
   9678   9677   9681     1   109.5600471 388.275200
   9679   9678   9680     1   109.5600471 388.275200
   9680   9678   9684     1   110.2600474 425.931200
   9681   9677   9685     1   110.2600474 425.931200
   9682   9679   9683     1   109.5800467 425.931200
   9682   9679   9695     1   109.5800467 425.931200
   9687   9693   9694     1   107.2600461 396.643200
   9691   9687   9693     1   110.2600474 425.931200
   9691   9687   9692     1   108.4600466 328.025600
   9692   9687   9693     1   110.2600474 425.931200
   9696   9697   9699     1   109.5600471 388.275200
   9696   9710   9714     1   109.5600471 388.275200
   9696   9710   9715     1   109.5600471 388.275200
   9697   9696   9698     1   109.5600471 388.275200
   9697   9700   9704     1   109.5600471 388.275200
   9697   9709   9712     1   107.2600461 396.643200
   9698   9696   9710     1   109.5600471 388.275200
   9698   9696   9718     1   109.7800468 425.094400
   9699   9697   9700     1   109.5600471 388.275200
   9699   9697   9709     1   110.2600474 425.931200
   9700   9701   9703     1   109.5600471 388.275200
   9700   9708   9711     1   107.2600461 396.643200
   9701   9700   9704     1   109.5600471 388.275200
   9701   9702   9705     1   110.2200475 386.601600
   9701   9707   9713     1   107.2600461 396.643200
   9702   9701   9703     1   109.5600471 388.275200
   9703   9701   9707     1   110.2600474 425.931200
   9704   9700   9708     1   110.2600474 425.931200
   9705   9702   9706     1   109.5800467 425.931200
   9705   9702   9718     1   109.5800467 425.931200
   9710   9716   9717     1   107.2600461 396.643200
   9714   9710   9716     1   110.2600474 425.931200
   9714   9710   9715     1   108.4600466 328.025600
   9715   9710   9716     1   110.2600474 425.931200
   9719   9720   9722     1   109.5600471 388.275200
   9719   9733   9737     1   109.5600471 388.275200
   9719   9733   9738     1   109.5600471 388.275200
   9720   9723   9727     1   109.5600471 388.275200
   9720   9732   9735     1   107.2600461 396.643200
   9720   9719   9721     1   109.5600471 388.275200
   9721   9719   9733     1   109.5600471 388.275200
   9721   9719   9741     1   109.7800468 425.094400
   9722   9720   9723     1   109.5600471 388.275200
   9722   9720   9732     1   110.2600474 425.931200
   9723   9724   9726     1   109.5600471 388.275200
   9723   9731   9734     1   107.2600461 396.643200
   9724   9725   9728     1   110.2200475 386.601600
   9724   9730   9736     1   107.2600461 396.643200
   9724   9723   9727     1   109.5600471 388.275200
   9725   9724   9726     1   109.5600471 388.275200
   9726   9724   9730     1   110.2600474 425.931200
   9727   9723   9731     1   110.2600474 425.931200
   9728   9725   9729     1   109.5800467 425.931200
   9728   9725   9741     1   109.5800467 425.931200
   9733   9739   9740     1   107.2600461 396.643200
   9737   9733   9739     1   110.2600474 425.931200
   9737   9733   9738     1   108.4600466 328.025600
   9738   9733   9739     1   110.2600474 425.931200
   9742   9743   9745     1   109.5600471 388.275200
   9742   9756   9760     1   109.5600471 388.275200
   9742   9756   9761     1   109.5600471 388.275200
   9743   9742   9744     1   109.5600471 388.275200
   9743   9746   9750     1   109.5600471 388.275200
   9743   9755   9758     1   107.2600461 396.643200
   9744   9742   9756     1   109.5600471 388.275200
   9744   9742   9764     1   109.7800468 425.094400
   9745   9743   9746     1   109.5600471 388.275200
   9745   9743   9755     1   110.2600474 425.931200
   9746   9747   9749     1   109.5600471 388.275200
   9746   9754   9757     1   107.2600461 396.643200
   9747   9746   9750     1   109.5600471 388.275200
   9747   9748   9751     1   110.2200475 386.601600
   9747   9753   9759     1   107.2600461 396.643200
   9748   9747   9749     1   109.5600471 388.275200
   9749   9747   9753     1   110.2600474 425.931200
   9750   9746   9754     1   110.2600474 425.931200
   9751   9748   9752     1   109.5800467 425.931200
   9751   9748   9764     1   109.5800467 425.931200
   9756   9762   9763     1   107.2600461 396.643200
   9760   9756   9762     1   110.2600474 425.931200
   9760   9756   9761     1   108.4600466 328.025600
   9761   9756   9762     1   110.2600474 425.931200
   9765   9766   9768     1   109.5600471 388.275200
   9765   9779   9783     1   109.5600471 388.275200
   9765   9779   9784     1   109.5600471 388.275200
   9766   9769   9773     1   109.5600471 388.275200
   9766   9778   9781     1   107.2600461 396.643200
   9766   9765   9767     1   109.5600471 388.275200
   9767   9765   9779     1   109.5600471 388.275200
   9767   9765   9787     1   109.7800468 425.094400
   9768   9766   9769     1   109.5600471 388.275200
   9768   9766   9778     1   110.2600474 425.931200
   9769   9770   9772     1   109.5600471 388.275200
   9769   9777   9780     1   107.2600461 396.643200
   9770   9771   9774     1   110.2200475 386.601600
   9770   9776   9782     1   107.2600461 396.643200
   9770   9769   9773     1   109.5600471 388.275200
   9771   9770   9772     1   109.5600471 388.275200
   9772   9770   9776     1   110.2600474 425.931200
   9773   9769   9777     1   110.2600474 425.931200
   9774   9771   9775     1   109.5800467 425.931200
   9774   9771   9787     1   109.5800467 425.931200
   9779   9785   9786     1   107.2600461 396.643200
   9783   9779   9785     1   110.2600474 425.931200
   9783   9779   9784     1   108.4600466 328.025600
   9784   9779   9785     1   110.2600474 425.931200
   9788   9789   9791     1   109.5600471 388.275200
   9788   9802   9806     1   109.5600471 388.275200
   9788   9802   9807     1   109.5600471 388.275200
   9789   9788   9790     1   109.5600471 388.275200
   9789   9792   9796     1   109.5600471 388.275200
   9789   9801   9804     1   107.2600461 396.643200
   9790   9788   9802     1   109.5600471 388.275200
   9790   9788   9810     1   109.7800468 425.094400
   9791   9789   9792     1   109.5600471 388.275200
   9791   9789   9801     1   110.2600474 425.931200
   9792   9793   9795     1   109.5600471 388.275200
   9792   9800   9803     1   107.2600461 396.643200
   9793   9792   9796     1   109.5600471 388.275200
   9793   9794   9797     1   110.2200475 386.601600
   9793   9799   9805     1   107.2600461 396.643200
   9794   9793   9795     1   109.5600471 388.275200
   9795   9793   9799     1   110.2600474 425.931200
   9796   9792   9800     1   110.2600474 425.931200
   9797   9794   9798     1   109.5800467 425.931200
   9797   9794   9810     1   109.5800467 425.931200
   9802   9808   9809     1   107.2600461 396.643200
   9806   9802   9808     1   110.2600474 425.931200
   9806   9802   9807     1   108.4600466 328.025600
   9807   9802   9808     1   110.2600474 425.931200
   9811   9812   9814     1   109.5600471 388.275200
   9811   9825   9829     1   109.5600471 388.275200
   9811   9825   9830     1   109.5600471 388.275200
   9812   9815   9819     1   109.5600471 388.275200
   9812   9824   9827     1   107.2600461 396.643200
   9812   9811   9813     1   109.5600471 388.275200
   9813   9811   9825     1   109.5600471 388.275200
   9813   9811   9833     1   109.7800468 425.094400
   9814   9812   9815     1   109.5600471 388.275200
   9814   9812   9824     1   110.2600474 425.931200
   9815   9816   9818     1   109.5600471 388.275200
   9815   9823   9826     1   107.2600461 396.643200
   9816   9817   9820     1   110.2200475 386.601600
   9816   9822   9828     1   107.2600461 396.643200
   9816   9815   9819     1   109.5600471 388.275200
   9817   9816   9818     1   109.5600471 388.275200
   9818   9816   9822     1   110.2600474 425.931200
   9819   9815   9823     1   110.2600474 425.931200
   9820   9817   9821     1   109.5800467 425.931200
   9820   9817   9833     1   109.5800467 425.931200
   9825   9831   9832     1   107.2600461 396.643200
   9829   9825   9831     1   110.2600474 425.931200
   9829   9825   9830     1   108.4600466 328.025600
   9830   9825   9831     1   110.2600474 425.931200
   9834   9835   9837     1   109.5600471 388.275200
   9834   9848   9852     1   109.5600471 388.275200
   9834   9848   9853     1   109.5600471 388.275200
   9835   9834   9836     1   109.5600471 388.275200
   9835   9838   9842     1   109.5600471 388.275200
   9835   9847   9850     1   107.2600461 396.643200
   9836   9834   9848     1   109.5600471 388.275200
   9836   9834   9856     1   109.7800468 425.094400
   9837   9835   9838     1   109.5600471 388.275200
   9837   9835   9847     1   110.2600474 425.931200
   9838   9839   9841     1   109.5600471 388.275200
   9838   9846   9849     1   107.2600461 396.643200
   9839   9838   9842     1   109.5600471 388.275200
   9839   9840   9843     1   110.2200475 386.601600
   9839   9845   9851     1   107.2600461 396.643200
   9840   9839   9841     1   109.5600471 388.275200
   9841   9839   9845     1   110.2600474 425.931200
   9842   9838   9846     1   110.2600474 425.931200
   9843   9840   9844     1   109.5800467 425.931200
   9843   9840   9856     1   109.5800467 425.931200
   9848   9854   9855     1   107.2600461 396.643200
   9852   9848   9854     1   110.2600474 425.931200
   9852   9848   9853     1   108.4600466 328.025600
   9853   9848   9854     1   110.2600474 425.931200
   9857   9858   9860     1   109.5600471 388.275200
   9857   9871   9875     1   109.5600471 388.275200
   9857   9871   9876     1   109.5600471 388.275200
   9858   9861   9865     1   109.5600471 388.275200
   9858   9870   9873     1   107.2600461 396.643200
   9858   9857   9859     1   109.5600471 388.275200
   9859   9857   9871     1   109.5600471 388.275200
   9859   9857   9879     1   109.7800468 425.094400
   9860   9858   9861     1   109.5600471 388.275200
   9860   9858   9870     1   110.2600474 425.931200
   9861   9862   9864     1   109.5600471 388.275200
   9861   9869   9872     1   107.2600461 396.643200
   9862   9863   9866     1   110.2200475 386.601600
   9862   9868   9874     1   107.2600461 396.643200
   9862   9861   9865     1   109.5600471 388.275200
   9863   9862   9864     1   109.5600471 388.275200
   9864   9862   9868     1   110.2600474 425.931200
   9865   9861   9869     1   110.2600474 425.931200
   9866   9863   9867     1   109.5800467 425.931200
   9866   9863   9879     1   109.5800467 425.931200
   9871   9877   9878     1   107.2600461 396.643200
   9875   9871   9877     1   110.2600474 425.931200
   9875   9871   9876     1   108.4600466 328.025600
   9876   9871   9877     1   110.2600474 425.931200
   9880   9881   9883     1   109.5600471 388.275200
   9880   9894   9898     1   109.5600471 388.275200
   9880   9894   9899     1   109.5600471 388.275200
   9881   9880   9882     1   109.5600471 388.275200
   9881   9884   9888     1   109.5600471 388.275200
   9881   9893   9896     1   107.2600461 396.643200
   9882   9880   9894     1   109.5600471 388.275200
   9882   9880   9902     1   109.7800468 425.094400
   9883   9881   9884     1   109.5600471 388.275200
   9883   9881   9893     1   110.2600474 425.931200
   9884   9885   9887     1   109.5600471 388.275200
   9884   9892   9895     1   107.2600461 396.643200
   9885   9884   9888     1   109.5600471 388.275200
   9885   9886   9889     1   110.2200475 386.601600
   9885   9891   9897     1   107.2600461 396.643200
   9886   9885   9887     1   109.5600471 388.275200
   9887   9885   9891     1   110.2600474 425.931200
   9888   9884   9892     1   110.2600474 425.931200
   9889   9886   9890     1   109.5800467 425.931200
   9889   9886   9902     1   109.5800467 425.931200
   9894   9900   9901     1   107.2600461 396.643200
   9898   9894   9900     1   110.2600474 425.931200
   9898   9894   9899     1   108.4600466 328.025600
   9899   9894   9900     1   110.2600474 425.931200
   9903   9904   9906     1   109.5600471 388.275200
   9903   9917   9921     1   109.5600471 388.275200
   9903   9917   9922     1   109.5600471 388.275200
   9904   9907   9911     1   109.5600471 388.275200
   9904   9916   9919     1   107.2600461 396.643200
   9904   9903   9905     1   109.5600471 388.275200
   9905   9903   9917     1   109.5600471 388.275200
   9905   9903   9925     1   109.7800468 425.094400
   9906   9904   9907     1   109.5600471 388.275200
   9906   9904   9916     1   110.2600474 425.931200
   9907   9908   9910     1   109.5600471 388.275200
   9907   9915   9918     1   107.2600461 396.643200
   9908   9909   9912     1   110.2200475 386.601600
   9908   9914   9920     1   107.2600461 396.643200
   9908   9907   9911     1   109.5600471 388.275200
   9909   9908   9910     1   109.5600471 388.275200
   9910   9908   9914     1   110.2600474 425.931200
   9911   9907   9915     1   110.2600474 425.931200
   9912   9909   9913     1   109.5800467 425.931200
   9912   9909   9925     1   109.5800467 425.931200
   9917   9923   9924     1   107.2600461 396.643200
   9921   9917   9923     1   110.2600474 425.931200
   9921   9917   9922     1   108.4600466 328.025600
   9922   9917   9923     1   110.2600474 425.931200

[ dihedrals ]
;    ai     aj     ak     al funct         c0         c1         c2         c3         c4         c5
      1      2     14     26     1  0.0000000  0.6508444  3
      1      5     17     20     1  0.0000000  0.6508444  3
      1      8     11     23     1  0.0000000  0.6508444  3
      2      1      5     17     1  180.0000771  2.0083200  2
      2      1      5     17     1  0.0000000  1.2552000  3
      2      1      8     11     1  180.0000771  2.0083200  2
      2      1      8     11     1  0.0000000  1.2552000  3
      2     14     26    115     1  0.0000000  0.6508444  3
      5      1      2     14     1  180.0000771  2.0083200  2
      5      1      2     14     1  0.0000000  1.2552000  3
      5      1      8     11     1  180.0000771  2.0083200  2
      5      1      8     11     1  0.0000000  1.2552000  3
      5     17     20     57     1  0.0000000  0.6508444  3
      8      1      2     14     1  180.0000771  2.0083200  2
      8      1      2     14     1  0.0000000  1.2552000  3
      8      1      5     17     1  180.0000771  2.0083200  2
      8      1      5     17     1  0.0000000  1.2552000  3
      8     11     23     86     1  0.0000000  0.6508444  3
     11     23     86     77     1  180.0000771  0.4184000  2
     11     23     86     77     1  0.0000000  1.6024720  3
     14     26    115    106     1  180.0000771  0.4184000  2
     14     26    115    106     1  0.0000000  1.6024720  3
     17     20     57     48     1  180.0000771  0.4184000  2
     17     20     57     48     1  0.0000000  1.6024720  3
     20     57     48     39     1  180.0000771  0.4184000  2
     20     57     48     39     1  0.0000000  1.6024720  3
     23     86     77     68     1  180.0000771  0.4184000  2
     23     86     77     68     1  0.0000000  1.6024720  3
     26    115    106     97     1  180.0000771  0.4184000  2
     26    115    106     97     1  0.0000000  1.6024720  3
     29     30     42     54     1  0.0000000  0.6508444  3
     29     33     45     51     1  0.0000000  0.6508444  3
     29     36     39     48     1  0.0000000  0.6508444  3
     30     29     33     45     1  180.0000771  2.0083200  2
     30     29     33     45     1  0.0000000  1.2552000  3
     30     29     36     39     1  180.0000771  2.0083200  2
     30     29     36     39     1  0.0000000  1.2552000  3
     30     42     54    173     1  0.0000000  0.6508444  3
     33     29     30     42     1  180.0000771  2.0083200  2
     33     29     30     42     1  0.0000000  1.2552000  3
     33     29     36     39     1  180.0000771  2.0083200  2
     33     29     36     39     1  0.0000000  1.2552000  3
     33     45     51    144     1  0.0000000  0.6508444  3
     36     29     30     42     1  180.0000771  2.0083200  2
     36     29     30     42     1  0.0000000  1.2552000  3
     36     29     33     45     1  180.0000771  2.0083200  2
     36     29     33     45     1  0.0000000  1.2552000  3
     36     39     48     57     1  0.0000000  0.6508444  3
     42     54    173    164     1  180.0000771  0.4184000  2
     42     54    173    164     1  0.0000000  1.6024720  3
     45     51    144    135     1  180.0000771  0.4184000  2
     45     51    144    135     1  0.0000000  1.6024720  3
     51    144    135    126     1  180.0000771  0.4184000  2
     51    144    135    126     1  0.0000000  1.6024720  3
     54    173    164    155     1  180.0000771  0.4184000  2
     54    173    164    155     1  0.0000000  1.6024720  3
     58     59     71     83     1  0.0000000  0.6508444  3
     58     62     74     80     1  0.0000000  0.6508444  3
     58     65     68     77     1  0.0000000  0.6508444  3
     59     58     62     74     1  180.0000771  2.0083200  2
     59     58     62     74     1  0.0000000  1.2552000  3
     59     58     65     68     1  180.0000771  2.0083200  2
     59     58     65     68     1  0.0000000  1.2552000  3
     59     71     83    231     1  0.0000000  0.6508444  3
     62     58     59     71     1  180.0000771  2.0083200  2
     62     58     59     71     1  0.0000000  1.2552000  3
     62     58     65     68     1  180.0000771  2.0083200  2
     62     58     65     68     1  0.0000000  1.2552000  3
     62     74     80    202     1  0.0000000  0.6508444  3
     65     58     59     71     1  180.0000771  2.0083200  2
     65     58     59     71     1  0.0000000  1.2552000  3
     65     58     62     74     1  180.0000771  2.0083200  2
     65     58     62     74     1  0.0000000  1.2552000  3
     65     68     77     86     1  0.0000000  0.6508444  3
     71     83    231    222     1  180.0000771  0.4184000  2
     71     83    231    222     1  0.0000000  1.6024720  3
     74     80    202    193     1  180.0000771  0.4184000  2
     74     80    202    193     1  0.0000000  1.6024720  3
     80    202    193    184     1  180.0000771  0.4184000  2
     80    202    193    184     1  0.0000000  1.6024720  3
     83    231    222    213     1  180.0000771  0.4184000  2
     83    231    222    213     1  0.0000000  1.6024720  3
     87     88    100    112     1  0.0000000  0.6508444  3
     87     91    103    109     1  0.0000000  0.6508444  3
     87     94     97    106     1  0.0000000  0.6508444  3
     88     87     91    103     1  180.0000771  2.0083200  2
     88     87     91    103     1  0.0000000  1.2552000  3
     88     87     94     97     1  180.0000771  2.0083200  2
     88     87     94     97     1  0.0000000  1.2552000  3
     88    100    112    289     1  0.0000000  0.6508444  3
     91     87     88    100     1  180.0000771  2.0083200  2
     91     87     88    100     1  0.0000000  1.2552000  3
     91     87     94     97     1  180.0000771  2.0083200  2
     91     87     94     97     1  0.0000000  1.2552000  3
     91    103    109    260     1  0.0000000  0.6508444  3
     94     87     88    100     1  180.0000771  2.0083200  2
     94     87     88    100     1  0.0000000  1.2552000  3
     94     87     91    103     1  180.0000771  2.0083200  2
     94     87     91    103     1  0.0000000  1.2552000  3
     94     97    106    115     1  0.0000000  0.6508444  3
    100    112    289    280     1  180.0000771  0.4184000  2
    100    112    289    280     1  0.0000000  1.6024720  3
    103    109    260    251     1  180.0000771  0.4184000  2
    103    109    260    251     1  0.0000000  1.6024720  3
    109    260    251    242     1  180.0000771  0.4184000  2
    109    260    251    242     1  0.0000000  1.6024720  3
    112    289    280    271     1  180.0000771  0.4184000  2
    112    289    280    271     1  0.0000000  1.6024720  3
    116    117    129    141     1  0.0000000  0.6508444  3
    116    120    132    138     1  0.0000000  0.6508444  3
    116    123    126    135     1  0.0000000  0.6508444  3
    117    116    120    132     1  180.0000771  2.0083200  2
    117    116    120    132     1  0.0000000  1.2552000  3
    117    116    123    126     1  180.0000771  2.0083200  2
    117    116    123    126     1  0.0000000  1.2552000  3
    117    129    141    347     1  0.0000000  0.6508444  3
    120    116    117    129     1  180.0000771  2.0083200  2
    120    116    117    129     1  0.0000000  1.2552000  3
    120    116    123    126     1  180.0000771  2.0083200  2
    120    116    123    126     1  0.0000000  1.2552000  3
    120    132    138    318     1  0.0000000  0.6508444  3
    123    116    117    129     1  180.0000771  2.0083200  2
    123    116    117    129     1  0.0000000  1.2552000  3
    123    116    120    132     1  180.0000771  2.0083200  2
    123    116    120    132     1  0.0000000  1.2552000  3
    123    126    135    144     1  0.0000000  0.6508444  3
    129    141    347    338     1  180.0000771  0.4184000  2
    129    141    347    338     1  0.0000000  1.6024720  3
    132    138    318    309     1  180.0000771  0.4184000  2
    132    138    318    309     1  0.0000000  1.6024720  3
    138    318    309    300     1  180.0000771  0.4184000  2
    138    318    309    300     1  0.0000000  1.6024720  3
    141    347    338    329     1  180.0000771  0.4184000  2
    141    347    338    329     1  0.0000000  1.6024720  3
    145    146    158    170     1  0.0000000  0.6508444  3
    145    149    161    167     1  0.0000000  0.6508444  3
    145    152    155    164     1  0.0000000  0.6508444  3
    146    145    149    161     1  180.0000771  2.0083200  2
    146    145    149    161     1  0.0000000  1.2552000  3
    146    145    152    155     1  180.0000771  2.0083200  2
    146    145    152    155     1  0.0000000  1.2552000  3
    146    158    170    405     1  0.0000000  0.6508444  3
    149    145    146    158     1  180.0000771  2.0083200  2
    149    145    146    158     1  0.0000000  1.2552000  3
    149    145    152    155     1  180.0000771  2.0083200  2
    149    145    152    155     1  0.0000000  1.2552000  3
    149    161    167    376     1  0.0000000  0.6508444  3
    152    145    146    158     1  180.0000771  2.0083200  2
    152    145    146    158     1  0.0000000  1.2552000  3
    152    145    149    161     1  180.0000771  2.0083200  2
    152    145    149    161     1  0.0000000  1.2552000  3
    152    155    164    173     1  0.0000000  0.6508444  3
    158    170    405    396     1  180.0000771  0.4184000  2
    158    170    405    396     1  0.0000000  1.6024720  3
    161    167    376    367     1  180.0000771  0.4184000  2
    161    167    376    367     1  0.0000000  1.6024720  3
    167    376    367    358     1  180.0000771  0.4184000  2
    167    376    367    358     1  0.0000000  1.6024720  3
    170    405    396    387     1  180.0000771  0.4184000  2
    170    405    396    387     1  0.0000000  1.6024720  3
    174    175    187    199     1  0.0000000  0.6508444  3
    174    178    190    196     1  0.0000000  0.6508444  3
    174    181    184    193     1  0.0000000  0.6508444  3
    175    174    178    190     1  180.0000771  2.0083200  2
    175    174    178    190     1  0.0000000  1.2552000  3
    175    174    181    184     1  180.0000771  2.0083200  2
    175    174    181    184     1  0.0000000  1.2552000  3
    175    187    199    463     1  0.0000000  0.6508444  3
    178    174    175    187     1  180.0000771  2.0083200  2
    178    174    175    187     1  0.0000000  1.2552000  3
    178    174    181    184     1  180.0000771  2.0083200  2
    178    174    181    184     1  0.0000000  1.2552000  3
    178    190    196    434     1  0.0000000  0.6508444  3
    181    174    175    187     1  180.0000771  2.0083200  2
    181    174    175    187     1  0.0000000  1.2552000  3
    181    174    178    190     1  180.0000771  2.0083200  2
    181    174    178    190     1  0.0000000  1.2552000  3
    181    184    193    202     1  0.0000000  0.6508444  3
    187    199    463    454     1  180.0000771  0.4184000  2
    187    199    463    454     1  0.0000000  1.6024720  3
    190    196    434    425     1  180.0000771  0.4184000  2
    190    196    434    425     1  0.0000000  1.6024720  3
    196    434    425    416     1  180.0000771  0.4184000  2
    196    434    425    416     1  0.0000000  1.6024720  3
    199    463    454    445     1  180.0000771  0.4184000  2
    199    463    454    445     1  0.0000000  1.6024720  3
    203    204    216    228     1  0.0000000  0.6508444  3
    203    207    219    225     1  0.0000000  0.6508444  3
    203    210    213    222     1  0.0000000  0.6508444  3
    204    203    207    219     1  180.0000771  2.0083200  2
    204    203    207    219     1  0.0000000  1.2552000  3
    204    203    210    213     1  180.0000771  2.0083200  2
    204    203    210    213     1  0.0000000  1.2552000  3
    204    216    228    521     1  0.0000000  0.6508444  3
    207    203    204    216     1  180.0000771  2.0083200  2
    207    203    204    216     1  0.0000000  1.2552000  3
    207    203    210    213     1  180.0000771  2.0083200  2
    207    203    210    213     1  0.0000000  1.2552000  3
    207    219    225    492     1  0.0000000  0.6508444  3
    210    203    204    216     1  180.0000771  2.0083200  2
    210    203    204    216     1  0.0000000  1.2552000  3
    210    203    207    219     1  180.0000771  2.0083200  2
    210    203    207    219     1  0.0000000  1.2552000  3
    210    213    222    231     1  0.0000000  0.6508444  3
    216    228    521    512     1  180.0000771  0.4184000  2
    216    228    521    512     1  0.0000000  1.6024720  3
    219    225    492    483     1  180.0000771  0.4184000  2
    219    225    492    483     1  0.0000000  1.6024720  3
    225    492    483    474     1  180.0000771  0.4184000  2
    225    492    483    474     1  0.0000000  1.6024720  3
    228    521    512    503     1  180.0000771  0.4184000  2
    228    521    512    503     1  0.0000000  1.6024720  3
    232    233    245    257     1  0.0000000  0.6508444  3
    232    236    248    254     1  0.0000000  0.6508444  3
    232    239    242    251     1  0.0000000  0.6508444  3
    233    232    236    248     1  180.0000771  2.0083200  2
    233    232    236    248     1  0.0000000  1.2552000  3
    233    232    239    242     1  180.0000771  2.0083200  2
    233    232    239    242     1  0.0000000  1.2552000  3
    233    245    257    579     1  0.0000000  0.6508444  3
    236    232    233    245     1  180.0000771  2.0083200  2
    236    232    233    245     1  0.0000000  1.2552000  3
    236    232    239    242     1  180.0000771  2.0083200  2
    236    232    239    242     1  0.0000000  1.2552000  3
    236    248    254    550     1  0.0000000  0.6508444  3
    239    232    233    245     1  180.0000771  2.0083200  2
    239    232    233    245     1  0.0000000  1.2552000  3
    239    232    236    248     1  180.0000771  2.0083200  2
    239    232    236    248     1  0.0000000  1.2552000  3
    239    242    251    260     1  0.0000000  0.6508444  3
    245    257    579    570     1  180.0000771  0.4184000  2
    245    257    579    570     1  0.0000000  1.6024720  3
    248    254    550    541     1  180.0000771  0.4184000  2
    248    254    550    541     1  0.0000000  1.6024720  3
    254    550    541    532     1  180.0000771  0.4184000  2
    254    550    541    532     1  0.0000000  1.6024720  3
    257    579    570    561     1  180.0000771  0.4184000  2
    257    579    570    561     1  0.0000000  1.6024720  3
    261    262    274    286     1  0.0000000  0.6508444  3
    261    265    277    283     1  0.0000000  0.6508444  3
    261    268    271    280     1  0.0000000  0.6508444  3
    262    261    265    277     1  180.0000771  2.0083200  2
    262    261    265    277     1  0.0000000  1.2552000  3
    262    261    268    271     1  180.0000771  2.0083200  2
    262    261    268    271     1  0.0000000  1.2552000  3
    262    274    286    637     1  0.0000000  0.6508444  3
    265    261    262    274     1  180.0000771  2.0083200  2
    265    261    262    274     1  0.0000000  1.2552000  3
    265    261    268    271     1  180.0000771  2.0083200  2
    265    261    268    271     1  0.0000000  1.2552000  3
    265    277    283    608     1  0.0000000  0.6508444  3
    268    261    262    274     1  180.0000771  2.0083200  2
    268    261    262    274     1  0.0000000  1.2552000  3
    268    261    265    277     1  180.0000771  2.0083200  2
    268    261    265    277     1  0.0000000  1.2552000  3
    268    271    280    289     1  0.0000000  0.6508444  3
    274    286    637    628     1  180.0000771  0.4184000  2
    274    286    637    628     1  0.0000000  1.6024720  3
    277    283    608    599     1  180.0000771  0.4184000  2
    277    283    608    599     1  0.0000000  1.6024720  3
    283    608    599    590     1  180.0000771  0.4184000  2
    283    608    599    590     1  0.0000000  1.6024720  3
    286    637    628    619     1  180.0000771  0.4184000  2
    286    637    628    619     1  0.0000000  1.6024720  3
    290    291    303    315     1  0.0000000  0.6508444  3
    290    294    306    312     1  0.0000000  0.6508444  3
    290    297    300    309     1  0.0000000  0.6508444  3
    291    290    294    306     1  180.0000771  2.0083200  2
    291    290    294    306     1  0.0000000  1.2552000  3
    291    290    297    300     1  180.0000771  2.0083200  2
    291    290    297    300     1  0.0000000  1.2552000  3
    291    303    315    695     1  0.0000000  0.6508444  3
    294    290    291    303     1  180.0000771  2.0083200  2
    294    290    291    303     1  0.0000000  1.2552000  3
    294    290    297    300     1  180.0000771  2.0083200  2
    294    290    297    300     1  0.0000000  1.2552000  3
    294    306    312    666     1  0.0000000  0.6508444  3
    297    290    291    303     1  180.0000771  2.0083200  2
    297    290    291    303     1  0.0000000  1.2552000  3
    297    290    294    306     1  180.0000771  2.0083200  2
    297    290    294    306     1  0.0000000  1.2552000  3
    297    300    309    318     1  0.0000000  0.6508444  3
    303    315    695    686     1  180.0000771  0.4184000  2
    303    315    695    686     1  0.0000000  1.6024720  3
    306    312    666    657     1  180.0000771  0.4184000  2
    306    312    666    657     1  0.0000000  1.6024720  3
    312    666    657    648     1  180.0000771  0.4184000  2
    312    666    657    648     1  0.0000000  1.6024720  3
    315    695    686    677     1  180.0000771  0.4184000  2
    315    695    686    677     1  0.0000000  1.6024720  3
    319    320    332    344     1  0.0000000  0.6508444  3
    319    323    335    341     1  0.0000000  0.6508444  3
    319    326    329    338     1  0.0000000  0.6508444  3
    320    319    323    335     1  180.0000771  2.0083200  2
    320    319    323    335     1  0.0000000  1.2552000  3
    320    319    326    329     1  180.0000771  2.0083200  2
    320    319    326    329     1  0.0000000  1.2552000  3
    320    332    344    753     1  0.0000000  0.6508444  3
    323    319    320    332     1  180.0000771  2.0083200  2
    323    319    320    332     1  0.0000000  1.2552000  3
    323    319    326    329     1  180.0000771  2.0083200  2
    323    319    326    329     1  0.0000000  1.2552000  3
    323    335    341    724     1  0.0000000  0.6508444  3
    326    319    320    332     1  180.0000771  2.0083200  2
    326    319    320    332     1  0.0000000  1.2552000  3
    326    319    323    335     1  180.0000771  2.0083200  2
    326    319    323    335     1  0.0000000  1.2552000  3
    326    329    338    347     1  0.0000000  0.6508444  3
    332    344    753    744     1  180.0000771  0.4184000  2
    332    344    753    744     1  0.0000000  1.6024720  3
    335    341    724    715     1  180.0000771  0.4184000  2
    335    341    724    715     1  0.0000000  1.6024720  3
    341    724    715    706     1  180.0000771  0.4184000  2
    341    724    715    706     1  0.0000000  1.6024720  3
    344    753    744    735     1  180.0000771  0.4184000  2
    344    753    744    735     1  0.0000000  1.6024720  3
    348    349    361    373     1  0.0000000  0.6508444  3
    348    352    364    370     1  0.0000000  0.6508444  3
    348    355    358    367     1  0.0000000  0.6508444  3
    349    348    352    364     1  180.0000771  2.0083200  2
    349    348    352    364     1  0.0000000  1.2552000  3
    349    348    355    358     1  180.0000771  2.0083200  2
    349    348    355    358     1  0.0000000  1.2552000  3
    349    361    373    811     1  0.0000000  0.6508444  3
    352    348    349    361     1  180.0000771  2.0083200  2
    352    348    349    361     1  0.0000000  1.2552000  3
    352    348    355    358     1  180.0000771  2.0083200  2
    352    348    355    358     1  0.0000000  1.2552000  3
    352    364    370    782     1  0.0000000  0.6508444  3
    355    348    349    361     1  180.0000771  2.0083200  2
    355    348    349    361     1  0.0000000  1.2552000  3
    355    348    352    364     1  180.0000771  2.0083200  2
    355    348    352    364     1  0.0000000  1.2552000  3
    355    358    367    376     1  0.0000000  0.6508444  3
    361    373    811    802     1  180.0000771  0.4184000  2
    361    373    811    802     1  0.0000000  1.6024720  3
    364    370    782    773     1  180.0000771  0.4184000  2
    364    370    782    773     1  0.0000000  1.6024720  3
    370    782    773    764     1  180.0000771  0.4184000  2
    370    782    773    764     1  0.0000000  1.6024720  3
    373    811    802    793     1  180.0000771  0.4184000  2
    373    811    802    793     1  0.0000000  1.6024720  3
    377    378    390    402     1  0.0000000  0.6508444  3
    377    381    393    399     1  0.0000000  0.6508444  3
    377    384    387    396     1  0.0000000  0.6508444  3
    378    377    381    393     1  180.0000771  2.0083200  2
    378    377    381    393     1  0.0000000  1.2552000  3
    378    377    384    387     1  180.0000771  2.0083200  2
    378    377    384    387     1  0.0000000  1.2552000  3
    378    390    402    869     1  0.0000000  0.6508444  3
    381    377    378    390     1  180.0000771  2.0083200  2
    381    377    378    390     1  0.0000000  1.2552000  3
    381    377    384    387     1  180.0000771  2.0083200  2
    381    377    384    387     1  0.0000000  1.2552000  3
    381    393    399    840     1  0.0000000  0.6508444  3
    384    377    378    390     1  180.0000771  2.0083200  2
    384    377    378    390     1  0.0000000  1.2552000  3
    384    377    381    393     1  180.0000771  2.0083200  2
    384    377    381    393     1  0.0000000  1.2552000  3
    384    387    396    405     1  0.0000000  0.6508444  3
    390    402    869    860     1  180.0000771  0.4184000  2
    390    402    869    860     1  0.0000000  1.6024720  3
    393    399    840    831     1  180.0000771  0.4184000  2
    393    399    840    831     1  0.0000000  1.6024720  3
    399    840    831    822     1  180.0000771  0.4184000  2
    399    840    831    822     1  0.0000000  1.6024720  3
    402    869    860    851     1  180.0000771  0.4184000  2
    402    869    860    851     1  0.0000000  1.6024720  3
    406    407    419    431     1  0.0000000  0.6508444  3
    406    410    422    428     1  0.0000000  0.6508444  3
    406    413    416    425     1  0.0000000  0.6508444  3
    407    406    410    422     1  180.0000771  2.0083200  2
    407    406    410    422     1  0.0000000  1.2552000  3
    407    406    413    416     1  180.0000771  2.0083200  2
    407    406    413    416     1  0.0000000  1.2552000  3
    407    419    431    927     1  0.0000000  0.6508444  3
    410    406    407    419     1  180.0000771  2.0083200  2
    410    406    407    419     1  0.0000000  1.2552000  3
    410    406    413    416     1  180.0000771  2.0083200  2
    410    406    413    416     1  0.0000000  1.2552000  3
    410    422    428    898     1  0.0000000  0.6508444  3
    413    406    407    419     1  180.0000771  2.0083200  2
    413    406    407    419     1  0.0000000  1.2552000  3
    413    406    410    422     1  180.0000771  2.0083200  2
    413    406    410    422     1  0.0000000  1.2552000  3
    413    416    425    434     1  0.0000000  0.6508444  3
    419    431    927    918     1  180.0000771  0.4184000  2
    419    431    927    918     1  0.0000000  1.6024720  3
    422    428    898    889     1  180.0000771  0.4184000  2
    422    428    898    889     1  0.0000000  1.6024720  3
    428    898    889    880     1  180.0000771  0.4184000  2
    428    898    889    880     1  0.0000000  1.6024720  3
    431    927    918    909     1  180.0000771  0.4184000  2
    431    927    918    909     1  0.0000000  1.6024720  3
    435    436    448    460     1  0.0000000  0.6508444  3
    435    439    451    457     1  0.0000000  0.6508444  3
    435    442    445    454     1  0.0000000  0.6508444  3
    436    435    439    451     1  180.0000771  2.0083200  2
    436    435    439    451     1  0.0000000  1.2552000  3
    436    435    442    445     1  180.0000771  2.0083200  2
    436    435    442    445     1  0.0000000  1.2552000  3
    436    448    460    985     1  0.0000000  0.6508444  3
    439    435    436    448     1  180.0000771  2.0083200  2
    439    435    436    448     1  0.0000000  1.2552000  3
    439    435    442    445     1  180.0000771  2.0083200  2
    439    435    442    445     1  0.0000000  1.2552000  3
    439    451    457    956     1  0.0000000  0.6508444  3
    442    435    436    448     1  180.0000771  2.0083200  2
    442    435    436    448     1  0.0000000  1.2552000  3
    442    435    439    451     1  180.0000771  2.0083200  2
    442    435    439    451     1  0.0000000  1.2552000  3
    442    445    454    463     1  0.0000000  0.6508444  3
    448    460    985    976     1  180.0000771  0.4184000  2
    448    460    985    976     1  0.0000000  1.6024720  3
    451    457    956    947     1  180.0000771  0.4184000  2
    451    457    956    947     1  0.0000000  1.6024720  3
    457    956    947    938     1  180.0000771  0.4184000  2
    457    956    947    938     1  0.0000000  1.6024720  3
    460    985    976    967     1  180.0000771  0.4184000  2
    460    985    976    967     1  0.0000000  1.6024720  3
    464    465    477    489     1  0.0000000  0.6508444  3
    464    468    480    486     1  0.0000000  0.6508444  3
    464    471    474    483     1  0.0000000  0.6508444  3
    465    464    468    480     1  180.0000771  2.0083200  2
    465    464    468    480     1  0.0000000  1.2552000  3
    465    464    471    474     1  180.0000771  2.0083200  2
    465    464    471    474     1  0.0000000  1.2552000  3
    465    477    489   1043     1  0.0000000  0.6508444  3
    468    464    465    477     1  180.0000771  2.0083200  2
    468    464    465    477     1  0.0000000  1.2552000  3
    468    464    471    474     1  180.0000771  2.0083200  2
    468    464    471    474     1  0.0000000  1.2552000  3
    468    480    486   1014     1  0.0000000  0.6508444  3
    471    464    465    477     1  180.0000771  2.0083200  2
    471    464    465    477     1  0.0000000  1.2552000  3
    471    464    468    480     1  180.0000771  2.0083200  2
    471    464    468    480     1  0.0000000  1.2552000  3
    471    474    483    492     1  0.0000000  0.6508444  3
    477    489   1043   1034     1  180.0000771  0.4184000  2
    477    489   1043   1034     1  0.0000000  1.6024720  3
    480    486   1014   1005     1  180.0000771  0.4184000  2
    480    486   1014   1005     1  0.0000000  1.6024720  3
    486   1014   1005    996     1  180.0000771  0.4184000  2
    486   1014   1005    996     1  0.0000000  1.6024720  3
    489   1043   1034   1025     1  180.0000771  0.4184000  2
    489   1043   1034   1025     1  0.0000000  1.6024720  3
    493    494    506    518     1  0.0000000  0.6508444  3
    493    497    509    515     1  0.0000000  0.6508444  3
    493    500    503    512     1  0.0000000  0.6508444  3
    494    493    497    509     1  180.0000771  2.0083200  2
    494    493    497    509     1  0.0000000  1.2552000  3
    494    493    500    503     1  180.0000771  2.0083200  2
    494    493    500    503     1  0.0000000  1.2552000  3
    494    506    518   1101     1  0.0000000  0.6508444  3
    497    493    494    506     1  180.0000771  2.0083200  2
    497    493    494    506     1  0.0000000  1.2552000  3
    497    493    500    503     1  180.0000771  2.0083200  2
    497    493    500    503     1  0.0000000  1.2552000  3
    497    509    515   1072     1  0.0000000  0.6508444  3
    500    493    494    506     1  180.0000771  2.0083200  2
    500    493    494    506     1  0.0000000  1.2552000  3
    500    493    497    509     1  180.0000771  2.0083200  2
    500    493    497    509     1  0.0000000  1.2552000  3
    500    503    512    521     1  0.0000000  0.6508444  3
    506    518   1101   1092     1  180.0000771  0.4184000  2
    506    518   1101   1092     1  0.0000000  1.6024720  3
    509    515   1072   1063     1  180.0000771  0.4184000  2
    509    515   1072   1063     1  0.0000000  1.6024720  3
    515   1072   1063   1054     1  180.0000771  0.4184000  2
    515   1072   1063   1054     1  0.0000000  1.6024720  3
    518   1101   1092   1083     1  180.0000771  0.4184000  2
    518   1101   1092   1083     1  0.0000000  1.6024720  3
    522    523    535    547     1  0.0000000  0.6508444  3
    522    526    538    544     1  0.0000000  0.6508444  3
    522    529    532    541     1  0.0000000  0.6508444  3
    523    522    526    538     1  180.0000771  2.0083200  2
    523    522    526    538     1  0.0000000  1.2552000  3
    523    522    529    532     1  180.0000771  2.0083200  2
    523    522    529    532     1  0.0000000  1.2552000  3
    523    535    547   1159     1  0.0000000  0.6508444  3
    526    522    523    535     1  180.0000771  2.0083200  2
    526    522    523    535     1  0.0000000  1.2552000  3
    526    522    529    532     1  180.0000771  2.0083200  2
    526    522    529    532     1  0.0000000  1.2552000  3
    526    538    544   1130     1  0.0000000  0.6508444  3
    529    522    523    535     1  180.0000771  2.0083200  2
    529    522    523    535     1  0.0000000  1.2552000  3
    529    522    526    538     1  180.0000771  2.0083200  2
    529    522    526    538     1  0.0000000  1.2552000  3
    529    532    541    550     1  0.0000000  0.6508444  3
    535    547   1159   1150     1  180.0000771  0.4184000  2
    535    547   1159   1150     1  0.0000000  1.6024720  3
    538    544   1130   1121     1  180.0000771  0.4184000  2
    538    544   1130   1121     1  0.0000000  1.6024720  3
    544   1130   1121   1112     1  180.0000771  0.4184000  2
    544   1130   1121   1112     1  0.0000000  1.6024720  3
    547   1159   1150   1141     1  180.0000771  0.4184000  2
    547   1159   1150   1141     1  0.0000000  1.6024720  3
    551    552    564    576     1  0.0000000  0.6508444  3
    551    555    567    573     1  0.0000000  0.6508444  3
    551    558    561    570     1  0.0000000  0.6508444  3
    552    551    555    567     1  180.0000771  2.0083200  2
    552    551    555    567     1  0.0000000  1.2552000  3
    552    551    558    561     1  180.0000771  2.0083200  2
    552    551    558    561     1  0.0000000  1.2552000  3
    552    564    576   1217     1  0.0000000  0.6508444  3
    555    551    552    564     1  180.0000771  2.0083200  2
    555    551    552    564     1  0.0000000  1.2552000  3
    555    551    558    561     1  180.0000771  2.0083200  2
    555    551    558    561     1  0.0000000  1.2552000  3
    555    567    573   1188     1  0.0000000  0.6508444  3
    558    551    552    564     1  180.0000771  2.0083200  2
    558    551    552    564     1  0.0000000  1.2552000  3
    558    551    555    567     1  180.0000771  2.0083200  2
    558    551    555    567     1  0.0000000  1.2552000  3
    558    561    570    579     1  0.0000000  0.6508444  3
    564    576   1217   1208     1  180.0000771  0.4184000  2
    564    576   1217   1208     1  0.0000000  1.6024720  3
    567    573   1188   1179     1  180.0000771  0.4184000  2
    567    573   1188   1179     1  0.0000000  1.6024720  3
    573   1188   1179   1170     1  180.0000771  0.4184000  2
    573   1188   1179   1170     1  0.0000000  1.6024720  3
    576   1217   1208   1199     1  180.0000771  0.4184000  2
    576   1217   1208   1199     1  0.0000000  1.6024720  3
    580    581    593    605     1  0.0000000  0.6508444  3
    580    584    596    602     1  0.0000000  0.6508444  3
    580    587    590    599     1  0.0000000  0.6508444  3
    581    580    584    596     1  180.0000771  2.0083200  2
    581    580    584    596     1  0.0000000  1.2552000  3
    581    580    587    590     1  180.0000771  2.0083200  2
    581    580    587    590     1  0.0000000  1.2552000  3
    581    593    605   1275     1  0.0000000  0.6508444  3
    584    580    581    593     1  180.0000771  2.0083200  2
    584    580    581    593     1  0.0000000  1.2552000  3
    584    580    587    590     1  180.0000771  2.0083200  2
    584    580    587    590     1  0.0000000  1.2552000  3
    584    596    602   1246     1  0.0000000  0.6508444  3
    587    580    581    593     1  180.0000771  2.0083200  2
    587    580    581    593     1  0.0000000  1.2552000  3
    587    580    584    596     1  180.0000771  2.0083200  2
    587    580    584    596     1  0.0000000  1.2552000  3
    587    590    599    608     1  0.0000000  0.6508444  3
    593    605   1275   1266     1  180.0000771  0.4184000  2
    593    605   1275   1266     1  0.0000000  1.6024720  3
    596    602   1246   1237     1  180.0000771  0.4184000  2
    596    602   1246   1237     1  0.0000000  1.6024720  3
    602   1246   1237   1228     1  180.0000771  0.4184000  2
    602   1246   1237   1228     1  0.0000000  1.6024720  3
    605   1275   1266   1257     1  180.0000771  0.4184000  2
    605   1275   1266   1257     1  0.0000000  1.6024720  3
    609    610    622    634     1  0.0000000  0.6508444  3
    609    613    625    631     1  0.0000000  0.6508444  3
    609    616    619    628     1  0.0000000  0.6508444  3
    610    609    613    625     1  180.0000771  2.0083200  2
    610    609    613    625     1  0.0000000  1.2552000  3
    610    609    616    619     1  180.0000771  2.0083200  2
    610    609    616    619     1  0.0000000  1.2552000  3
    610    622    634   1333     1  0.0000000  0.6508444  3
    613    609    610    622     1  180.0000771  2.0083200  2
    613    609    610    622     1  0.0000000  1.2552000  3
    613    609    616    619     1  180.0000771  2.0083200  2
    613    609    616    619     1  0.0000000  1.2552000  3
    613    625    631   1304     1  0.0000000  0.6508444  3
    616    609    610    622     1  180.0000771  2.0083200  2
    616    609    610    622     1  0.0000000  1.2552000  3
    616    609    613    625     1  180.0000771  2.0083200  2
    616    609    613    625     1  0.0000000  1.2552000  3
    616    619    628    637     1  0.0000000  0.6508444  3
    622    634   1333   1324     1  180.0000771  0.4184000  2
    622    634   1333   1324     1  0.0000000  1.6024720  3
    625    631   1304   1295     1  180.0000771  0.4184000  2
    625    631   1304   1295     1  0.0000000  1.6024720  3
    631   1304   1295   1286     1  180.0000771  0.4184000  2
    631   1304   1295   1286     1  0.0000000  1.6024720  3
    634   1333   1324   1315     1  180.0000771  0.4184000  2
    634   1333   1324   1315     1  0.0000000  1.6024720  3
    638    639    651    663     1  0.0000000  0.6508444  3
    638    642    654    660     1  0.0000000  0.6508444  3
    638    645    648    657     1  0.0000000  0.6508444  3
    639    638    642    654     1  180.0000771  2.0083200  2
    639    638    642    654     1  0.0000000  1.2552000  3
    639    638    645    648     1  180.0000771  2.0083200  2
    639    638    645    648     1  0.0000000  1.2552000  3
    639    651    663   1391     1  0.0000000  0.6508444  3
    642    638    639    651     1  180.0000771  2.0083200  2
    642    638    639    651     1  0.0000000  1.2552000  3
    642    638    645    648     1  180.0000771  2.0083200  2
    642    638    645    648     1  0.0000000  1.2552000  3
    642    654    660   1362     1  0.0000000  0.6508444  3
    645    638    639    651     1  180.0000771  2.0083200  2
    645    638    639    651     1  0.0000000  1.2552000  3
    645    638    642    654     1  180.0000771  2.0083200  2
    645    638    642    654     1  0.0000000  1.2552000  3
    645    648    657    666     1  0.0000000  0.6508444  3
    651    663   1391   1382     1  180.0000771  0.4184000  2
    651    663   1391   1382     1  0.0000000  1.6024720  3
    654    660   1362   1353     1  180.0000771  0.4184000  2
    654    660   1362   1353     1  0.0000000  1.6024720  3
    660   1362   1353   1344     1  180.0000771  0.4184000  2
    660   1362   1353   1344     1  0.0000000  1.6024720  3
    663   1391   1382   1373     1  180.0000771  0.4184000  2
    663   1391   1382   1373     1  0.0000000  1.6024720  3
    667    668    680    692     1  0.0000000  0.6508444  3
    667    671    683    689     1  0.0000000  0.6508444  3
    667    674    677    686     1  0.0000000  0.6508444  3
    668    667    671    683     1  180.0000771  2.0083200  2
    668    667    671    683     1  0.0000000  1.2552000  3
    668    667    674    677     1  180.0000771  2.0083200  2
    668    667    674    677     1  0.0000000  1.2552000  3
    668    680    692   1449     1  0.0000000  0.6508444  3
    671    667    668    680     1  180.0000771  2.0083200  2
    671    667    668    680     1  0.0000000  1.2552000  3
    671    667    674    677     1  180.0000771  2.0083200  2
    671    667    674    677     1  0.0000000  1.2552000  3
    671    683    689   1420     1  0.0000000  0.6508444  3
    674    667    668    680     1  180.0000771  2.0083200  2
    674    667    668    680     1  0.0000000  1.2552000  3
    674    667    671    683     1  180.0000771  2.0083200  2
    674    667    671    683     1  0.0000000  1.2552000  3
    674    677    686    695     1  0.0000000  0.6508444  3
    680    692   1449   1440     1  180.0000771  0.4184000  2
    680    692   1449   1440     1  0.0000000  1.6024720  3
    683    689   1420   1411     1  180.0000771  0.4184000  2
    683    689   1420   1411     1  0.0000000  1.6024720  3
    689   1420   1411   1402     1  180.0000771  0.4184000  2
    689   1420   1411   1402     1  0.0000000  1.6024720  3
    692   1449   1440   1431     1  180.0000771  0.4184000  2
    692   1449   1440   1431     1  0.0000000  1.6024720  3
    696    697    709    721     1  0.0000000  0.6508444  3
    696    700    712    718     1  0.0000000  0.6508444  3
    696    703    706    715     1  0.0000000  0.6508444  3
    697    696    700    712     1  180.0000771  2.0083200  2
    697    696    700    712     1  0.0000000  1.2552000  3
    697    696    703    706     1  180.0000771  2.0083200  2
    697    696    703    706     1  0.0000000  1.2552000  3
    697    709    721   1507     1  0.0000000  0.6508444  3
    700    696    697    709     1  180.0000771  2.0083200  2
    700    696    697    709     1  0.0000000  1.2552000  3
    700    696    703    706     1  180.0000771  2.0083200  2
    700    696    703    706     1  0.0000000  1.2552000  3
    700    712    718   1478     1  0.0000000  0.6508444  3
    703    696    697    709     1  180.0000771  2.0083200  2
    703    696    697    709     1  0.0000000  1.2552000  3
    703    696    700    712     1  180.0000771  2.0083200  2
    703    696    700    712     1  0.0000000  1.2552000  3
    703    706    715    724     1  0.0000000  0.6508444  3
    709    721   1507   1498     1  180.0000771  0.4184000  2
    709    721   1507   1498     1  0.0000000  1.6024720  3
    712    718   1478   1469     1  180.0000771  0.4184000  2
    712    718   1478   1469     1  0.0000000  1.6024720  3
    718   1478   1469   1460     1  180.0000771  0.4184000  2
    718   1478   1469   1460     1  0.0000000  1.6024720  3
    721   1507   1498   1489     1  180.0000771  0.4184000  2
    721   1507   1498   1489     1  0.0000000  1.6024720  3
    725    726    738    750     1  0.0000000  0.6508444  3
    725    729    741    747     1  0.0000000  0.6508444  3
    725    732    735    744     1  0.0000000  0.6508444  3
    726    725    729    741     1  180.0000771  2.0083200  2
    726    725    729    741     1  0.0000000  1.2552000  3
    726    725    732    735     1  180.0000771  2.0083200  2
    726    725    732    735     1  0.0000000  1.2552000  3
    726    738    750   1565     1  0.0000000  0.6508444  3
    729    725    726    738     1  180.0000771  2.0083200  2
    729    725    726    738     1  0.0000000  1.2552000  3
    729    725    732    735     1  180.0000771  2.0083200  2
    729    725    732    735     1  0.0000000  1.2552000  3
    729    741    747   1536     1  0.0000000  0.6508444  3
    732    725    726    738     1  180.0000771  2.0083200  2
    732    725    726    738     1  0.0000000  1.2552000  3
    732    725    729    741     1  180.0000771  2.0083200  2
    732    725    729    741     1  0.0000000  1.2552000  3
    732    735    744    753     1  0.0000000  0.6508444  3
    738    750   1565   1556     1  180.0000771  0.4184000  2
    738    750   1565   1556     1  0.0000000  1.6024720  3
    741    747   1536   1527     1  180.0000771  0.4184000  2
    741    747   1536   1527     1  0.0000000  1.6024720  3
    747   1536   1527   1518     1  180.0000771  0.4184000  2
    747   1536   1527   1518     1  0.0000000  1.6024720  3
    750   1565   1556   1547     1  180.0000771  0.4184000  2
    750   1565   1556   1547     1  0.0000000  1.6024720  3
    754    755    767    779     1  0.0000000  0.6508444  3
    754    758    770    776     1  0.0000000  0.6508444  3
    754    761    764    773     1  0.0000000  0.6508444  3
    755    754    758    770     1  180.0000771  2.0083200  2
    755    754    758    770     1  0.0000000  1.2552000  3
    755    754    761    764     1  180.0000771  2.0083200  2
    755    754    761    764     1  0.0000000  1.2552000  3
    755    767    779   1623     1  0.0000000  0.6508444  3
    758    754    755    767     1  180.0000771  2.0083200  2
    758    754    755    767     1  0.0000000  1.2552000  3
    758    754    761    764     1  180.0000771  2.0083200  2
    758    754    761    764     1  0.0000000  1.2552000  3
    758    770    776   1594     1  0.0000000  0.6508444  3
    761    754    755    767     1  180.0000771  2.0083200  2
    761    754    755    767     1  0.0000000  1.2552000  3
    761    754    758    770     1  180.0000771  2.0083200  2
    761    754    758    770     1  0.0000000  1.2552000  3
    761    764    773    782     1  0.0000000  0.6508444  3
    767    779   1623   1614     1  180.0000771  0.4184000  2
    767    779   1623   1614     1  0.0000000  1.6024720  3
    770    776   1594   1585     1  180.0000771  0.4184000  2
    770    776   1594   1585     1  0.0000000  1.6024720  3
    776   1594   1585   1576     1  180.0000771  0.4184000  2
    776   1594   1585   1576     1  0.0000000  1.6024720  3
    779   1623   1614   1605     1  180.0000771  0.4184000  2
    779   1623   1614   1605     1  0.0000000  1.6024720  3
    783    784    796    808     1  0.0000000  0.6508444  3
    783    787    799    805     1  0.0000000  0.6508444  3
    783    790    793    802     1  0.0000000  0.6508444  3
    784    783    787    799     1  180.0000771  2.0083200  2
    784    783    787    799     1  0.0000000  1.2552000  3
    784    783    790    793     1  180.0000771  2.0083200  2
    784    783    790    793     1  0.0000000  1.2552000  3
    784    796    808   1681     1  0.0000000  0.6508444  3
    787    783    784    796     1  180.0000771  2.0083200  2
    787    783    784    796     1  0.0000000  1.2552000  3
    787    783    790    793     1  180.0000771  2.0083200  2
    787    783    790    793     1  0.0000000  1.2552000  3
    787    799    805   1652     1  0.0000000  0.6508444  3
    790    783    784    796     1  180.0000771  2.0083200  2
    790    783    784    796     1  0.0000000  1.2552000  3
    790    783    787    799     1  180.0000771  2.0083200  2
    790    783    787    799     1  0.0000000  1.2552000  3
    790    793    802    811     1  0.0000000  0.6508444  3
    796    808   1681   1672     1  180.0000771  0.4184000  2
    796    808   1681   1672     1  0.0000000  1.6024720  3
    799    805   1652   1643     1  180.0000771  0.4184000  2
    799    805   1652   1643     1  0.0000000  1.6024720  3
    805   1652   1643   1634     1  180.0000771  0.4184000  2
    805   1652   1643   1634     1  0.0000000  1.6024720  3
    808   1681   1672   1663     1  180.0000771  0.4184000  2
    808   1681   1672   1663     1  0.0000000  1.6024720  3
    812    813    825    837     1  0.0000000  0.6508444  3
    812    816    828    834     1  0.0000000  0.6508444  3
    812    819    822    831     1  0.0000000  0.6508444  3
    813    812    816    828     1  180.0000771  2.0083200  2
    813    812    816    828     1  0.0000000  1.2552000  3
    813    812    819    822     1  180.0000771  2.0083200  2
    813    812    819    822     1  0.0000000  1.2552000  3
    813    825    837   1739     1  0.0000000  0.6508444  3
    816    812    813    825     1  180.0000771  2.0083200  2
    816    812    813    825     1  0.0000000  1.2552000  3
    816    812    819    822     1  180.0000771  2.0083200  2
    816    812    819    822     1  0.0000000  1.2552000  3
    816    828    834   1710     1  0.0000000  0.6508444  3
    819    812    813    825     1  180.0000771  2.0083200  2
    819    812    813    825     1  0.0000000  1.2552000  3
    819    812    816    828     1  180.0000771  2.0083200  2
    819    812    816    828     1  0.0000000  1.2552000  3
    819    822    831    840     1  0.0000000  0.6508444  3
    825    837   1739   1730     1  180.0000771  0.4184000  2
    825    837   1739   1730     1  0.0000000  1.6024720  3
    828    834   1710   1701     1  180.0000771  0.4184000  2
    828    834   1710   1701     1  0.0000000  1.6024720  3
    834   1710   1701   1692     1  180.0000771  0.4184000  2
    834   1710   1701   1692     1  0.0000000  1.6024720  3
    837   1739   1730   1721     1  180.0000771  0.4184000  2
    837   1739   1730   1721     1  0.0000000  1.6024720  3
    841    842    854    866     1  0.0000000  0.6508444  3
    841    845    857    863     1  0.0000000  0.6508444  3
    841    848    851    860     1  0.0000000  0.6508444  3
    842    841    845    857     1  180.0000771  2.0083200  2
    842    841    845    857     1  0.0000000  1.2552000  3
    842    841    848    851     1  180.0000771  2.0083200  2
    842    841    848    851     1  0.0000000  1.2552000  3
    842    854    866   1797     1  0.0000000  0.6508444  3
    845    841    842    854     1  180.0000771  2.0083200  2
    845    841    842    854     1  0.0000000  1.2552000  3
    845    841    848    851     1  180.0000771  2.0083200  2
    845    841    848    851     1  0.0000000  1.2552000  3
    845    857    863   1768     1  0.0000000  0.6508444  3
    848    841    842    854     1  180.0000771  2.0083200  2
    848    841    842    854     1  0.0000000  1.2552000  3
    848    841    845    857     1  180.0000771  2.0083200  2
    848    841    845    857     1  0.0000000  1.2552000  3
    848    851    860    869     1  0.0000000  0.6508444  3
    854    866   1797   1788     1  180.0000771  0.4184000  2
    854    866   1797   1788     1  0.0000000  1.6024720  3
    857    863   1768   1759     1  180.0000771  0.4184000  2
    857    863   1768   1759     1  0.0000000  1.6024720  3
    863   1768   1759   1750     1  180.0000771  0.4184000  2
    863   1768   1759   1750     1  0.0000000  1.6024720  3
    866   1797   1788   1779     1  180.0000771  0.4184000  2
    866   1797   1788   1779     1  0.0000000  1.6024720  3
    870    871    883    895     1  0.0000000  0.6508444  3
    870    874    886    892     1  0.0000000  0.6508444  3
    870    877    880    889     1  0.0000000  0.6508444  3
    871    870    874    886     1  180.0000771  2.0083200  2
    871    870    874    886     1  0.0000000  1.2552000  3
    871    870    877    880     1  180.0000771  2.0083200  2
    871    870    877    880     1  0.0000000  1.2552000  3
    871    883    895   1855     1  0.0000000  0.6508444  3
    874    870    871    883     1  180.0000771  2.0083200  2
    874    870    871    883     1  0.0000000  1.2552000  3
    874    870    877    880     1  180.0000771  2.0083200  2
    874    870    877    880     1  0.0000000  1.2552000  3
    874    886    892   1826     1  0.0000000  0.6508444  3
    877    870    871    883     1  180.0000771  2.0083200  2
    877    870    871    883     1  0.0000000  1.2552000  3
    877    870    874    886     1  180.0000771  2.0083200  2
    877    870    874    886     1  0.0000000  1.2552000  3
    877    880    889    898     1  0.0000000  0.6508444  3
    883    895   1855   1846     1  180.0000771  0.4184000  2
    883    895   1855   1846     1  0.0000000  1.6024720  3
    886    892   1826   1817     1  180.0000771  0.4184000  2
    886    892   1826   1817     1  0.0000000  1.6024720  3
    892   1826   1817   1808     1  180.0000771  0.4184000  2
    892   1826   1817   1808     1  0.0000000  1.6024720  3
    895   1855   1846   1837     1  180.0000771  0.4184000  2
    895   1855   1846   1837     1  0.0000000  1.6024720  3
    899    900    912    924     1  0.0000000  0.6508444  3
    899    903    915    921     1  0.0000000  0.6508444  3
    899    906    909    918     1  0.0000000  0.6508444  3
    900    899    903    915     1  180.0000771  2.0083200  2
    900    899    903    915     1  0.0000000  1.2552000  3
    900    899    906    909     1  180.0000771  2.0083200  2
    900    899    906    909     1  0.0000000  1.2552000  3
    900    912    924   1913     1  0.0000000  0.6508444  3
    903    899    900    912     1  180.0000771  2.0083200  2
    903    899    900    912     1  0.0000000  1.2552000  3
    903    899    906    909     1  180.0000771  2.0083200  2
    903    899    906    909     1  0.0000000  1.2552000  3
    903    915    921   1884     1  0.0000000  0.6508444  3
    906    899    900    912     1  180.0000771  2.0083200  2
    906    899    900    912     1  0.0000000  1.2552000  3
    906    899    903    915     1  180.0000771  2.0083200  2
    906    899    903    915     1  0.0000000  1.2552000  3
    906    909    918    927     1  0.0000000  0.6508444  3
    912    924   1913   1904     1  180.0000771  0.4184000  2
    912    924   1913   1904     1  0.0000000  1.6024720  3
    915    921   1884   1875     1  180.0000771  0.4184000  2
    915    921   1884   1875     1  0.0000000  1.6024720  3
    921   1884   1875   1866     1  180.0000771  0.4184000  2
    921   1884   1875   1866     1  0.0000000  1.6024720  3
    924   1913   1904   1895     1  180.0000771  0.4184000  2
    924   1913   1904   1895     1  0.0000000  1.6024720  3
    928    929    941    953     1  0.0000000  0.6508444  3
    928    932    944    950     1  0.0000000  0.6508444  3
    928    935    938    947     1  0.0000000  0.6508444  3
    929    928    932    944     1  180.0000771  2.0083200  2
    929    928    932    944     1  0.0000000  1.2552000  3
    929    928    935    938     1  180.0000771  2.0083200  2
    929    928    935    938     1  0.0000000  1.2552000  3
    929    941    953   1971     1  0.0000000  0.6508444  3
    932    928    929    941     1  180.0000771  2.0083200  2
    932    928    929    941     1  0.0000000  1.2552000  3
    932    928    935    938     1  180.0000771  2.0083200  2
    932    928    935    938     1  0.0000000  1.2552000  3
    932    944    950   1942     1  0.0000000  0.6508444  3
    935    928    929    941     1  180.0000771  2.0083200  2
    935    928    929    941     1  0.0000000  1.2552000  3
    935    928    932    944     1  180.0000771  2.0083200  2
    935    928    932    944     1  0.0000000  1.2552000  3
    935    938    947    956     1  0.0000000  0.6508444  3
    941    953   1971   1962     1  180.0000771  0.4184000  2
    941    953   1971   1962     1  0.0000000  1.6024720  3
    944    950   1942   1933     1  180.0000771  0.4184000  2
    944    950   1942   1933     1  0.0000000  1.6024720  3
    950   1942   1933   1924     1  180.0000771  0.4184000  2
    950   1942   1933   1924     1  0.0000000  1.6024720  3
    953   1971   1962   1953     1  180.0000771  0.4184000  2
    953   1971   1962   1953     1  0.0000000  1.6024720  3
    957    958    970    982     1  0.0000000  0.6508444  3
    957    961    973    979     1  0.0000000  0.6508444  3
    957    964    967    976     1  0.0000000  0.6508444  3
    958    957    961    973     1  180.0000771  2.0083200  2
    958    957    961    973     1  0.0000000  1.2552000  3
    958    957    964    967     1  180.0000771  2.0083200  2
    958    957    964    967     1  0.0000000  1.2552000  3
    958    970    982   2029     1  0.0000000  0.6508444  3
    961    957    958    970     1  180.0000771  2.0083200  2
    961    957    958    970     1  0.0000000  1.2552000  3
    961    957    964    967     1  180.0000771  2.0083200  2
    961    957    964    967     1  0.0000000  1.2552000  3
    961    973    979   2000     1  0.0000000  0.6508444  3
    964    957    958    970     1  180.0000771  2.0083200  2
    964    957    958    970     1  0.0000000  1.2552000  3
    964    957    961    973     1  180.0000771  2.0083200  2
    964    957    961    973     1  0.0000000  1.2552000  3
    964    967    976    985     1  0.0000000  0.6508444  3
    970    982   2029   2020     1  180.0000771  0.4184000  2
    970    982   2029   2020     1  0.0000000  1.6024720  3
    973    979   2000   1991     1  180.0000771  0.4184000  2
    973    979   2000   1991     1  0.0000000  1.6024720  3
    979   2000   1991   1982     1  180.0000771  0.4184000  2
    979   2000   1991   1982     1  0.0000000  1.6024720  3
    982   2029   2020   2011     1  180.0000771  0.4184000  2
    982   2029   2020   2011     1  0.0000000  1.6024720  3
    986    987    999   1011     1  0.0000000  0.6508444  3
    986    990   1002   1008     1  0.0000000  0.6508444  3
    986    993    996   1005     1  0.0000000  0.6508444  3
    987    986    990   1002     1  180.0000771  2.0083200  2
    987    986    990   1002     1  0.0000000  1.2552000  3
    987    986    993    996     1  180.0000771  2.0083200  2
    987    986    993    996     1  0.0000000  1.2552000  3
    987    999   1011   2087     1  0.0000000  0.6508444  3
    990    986    987    999     1  180.0000771  2.0083200  2
    990    986    987    999     1  0.0000000  1.2552000  3
    990    986    993    996     1  180.0000771  2.0083200  2
    990    986    993    996     1  0.0000000  1.2552000  3
    990   1002   1008   2058     1  0.0000000  0.6508444  3
    993    986    987    999     1  180.0000771  2.0083200  2
    993    986    987    999     1  0.0000000  1.2552000  3
    993    986    990   1002     1  180.0000771  2.0083200  2
    993    986    990   1002     1  0.0000000  1.2552000  3
    993    996   1005   1014     1  0.0000000  0.6508444  3
    999   1011   2087   2078     1  180.0000771  0.4184000  2
    999   1011   2087   2078     1  0.0000000  1.6024720  3
   1002   1008   2058   2049     1  180.0000771  0.4184000  2
   1002   1008   2058   2049     1  0.0000000  1.6024720  3
   1008   2058   2049   2040     1  180.0000771  0.4184000  2
   1008   2058   2049   2040     1  0.0000000  1.6024720  3
   1011   2087   2078   2069     1  180.0000771  0.4184000  2
   1011   2087   2078   2069     1  0.0000000  1.6024720  3
   1015   1016   1028   1040     1  0.0000000  0.6508444  3
   1015   1019   1031   1037     1  0.0000000  0.6508444  3
   1015   1022   1025   1034     1  0.0000000  0.6508444  3
   1016   1015   1019   1031     1  180.0000771  2.0083200  2
   1016   1015   1019   1031     1  0.0000000  1.2552000  3
   1016   1015   1022   1025     1  180.0000771  2.0083200  2
   1016   1015   1022   1025     1  0.0000000  1.2552000  3
   1016   1028   1040   2145     1  0.0000000  0.6508444  3
   1019   1015   1016   1028     1  180.0000771  2.0083200  2
   1019   1015   1016   1028     1  0.0000000  1.2552000  3
   1019   1015   1022   1025     1  180.0000771  2.0083200  2
   1019   1015   1022   1025     1  0.0000000  1.2552000  3
   1019   1031   1037   2116     1  0.0000000  0.6508444  3
   1022   1015   1016   1028     1  180.0000771  2.0083200  2
   1022   1015   1016   1028     1  0.0000000  1.2552000  3
   1022   1015   1019   1031     1  180.0000771  2.0083200  2
   1022   1015   1019   1031     1  0.0000000  1.2552000  3
   1022   1025   1034   1043     1  0.0000000  0.6508444  3
   1028   1040   2145   2136     1  180.0000771  0.4184000  2
   1028   1040   2145   2136     1  0.0000000  1.6024720  3
   1031   1037   2116   2107     1  180.0000771  0.4184000  2
   1031   1037   2116   2107     1  0.0000000  1.6024720  3
   1037   2116   2107   2098     1  180.0000771  0.4184000  2
   1037   2116   2107   2098     1  0.0000000  1.6024720  3
   1040   2145   2136   2127     1  180.0000771  0.4184000  2
   1040   2145   2136   2127     1  0.0000000  1.6024720  3
   1044   1045   1057   1069     1  0.0000000  0.6508444  3
   1044   1048   1060   1066     1  0.0000000  0.6508444  3
   1044   1051   1054   1063     1  0.0000000  0.6508444  3
   1045   1044   1048   1060     1  180.0000771  2.0083200  2
   1045   1044   1048   1060     1  0.0000000  1.2552000  3
   1045   1044   1051   1054     1  180.0000771  2.0083200  2
   1045   1044   1051   1054     1  0.0000000  1.2552000  3
   1045   1057   1069   2203     1  0.0000000  0.6508444  3
   1048   1044   1045   1057     1  180.0000771  2.0083200  2
   1048   1044   1045   1057     1  0.0000000  1.2552000  3
   1048   1044   1051   1054     1  180.0000771  2.0083200  2
   1048   1044   1051   1054     1  0.0000000  1.2552000  3
   1048   1060   1066   2174     1  0.0000000  0.6508444  3
   1051   1044   1045   1057     1  180.0000771  2.0083200  2
   1051   1044   1045   1057     1  0.0000000  1.2552000  3
   1051   1044   1048   1060     1  180.0000771  2.0083200  2
   1051   1044   1048   1060     1  0.0000000  1.2552000  3
   1051   1054   1063   1072     1  0.0000000  0.6508444  3
   1057   1069   2203   2194     1  180.0000771  0.4184000  2
   1057   1069   2203   2194     1  0.0000000  1.6024720  3
   1060   1066   2174   2165     1  180.0000771  0.4184000  2
   1060   1066   2174   2165     1  0.0000000  1.6024720  3
   1066   2174   2165   2156     1  180.0000771  0.4184000  2
   1066   2174   2165   2156     1  0.0000000  1.6024720  3
   1069   2203   2194   2185     1  180.0000771  0.4184000  2
   1069   2203   2194   2185     1  0.0000000  1.6024720  3
   1073   1074   1086   1098     1  0.0000000  0.6508444  3
   1073   1077   1089   1095     1  0.0000000  0.6508444  3
   1073   1080   1083   1092     1  0.0000000  0.6508444  3
   1074   1073   1077   1089     1  180.0000771  2.0083200  2
   1074   1073   1077   1089     1  0.0000000  1.2552000  3
   1074   1073   1080   1083     1  180.0000771  2.0083200  2
   1074   1073   1080   1083     1  0.0000000  1.2552000  3
   1074   1086   1098   2261     1  0.0000000  0.6508444  3
   1077   1073   1074   1086     1  180.0000771  2.0083200  2
   1077   1073   1074   1086     1  0.0000000  1.2552000  3
   1077   1073   1080   1083     1  180.0000771  2.0083200  2
   1077   1073   1080   1083     1  0.0000000  1.2552000  3
   1077   1089   1095   2232     1  0.0000000  0.6508444  3
   1080   1073   1074   1086     1  180.0000771  2.0083200  2
   1080   1073   1074   1086     1  0.0000000  1.2552000  3
   1080   1073   1077   1089     1  180.0000771  2.0083200  2
   1080   1073   1077   1089     1  0.0000000  1.2552000  3
   1080   1083   1092   1101     1  0.0000000  0.6508444  3
   1086   1098   2261   2252     1  180.0000771  0.4184000  2
   1086   1098   2261   2252     1  0.0000000  1.6024720  3
   1089   1095   2232   2223     1  180.0000771  0.4184000  2
   1089   1095   2232   2223     1  0.0000000  1.6024720  3
   1095   2232   2223   2214     1  180.0000771  0.4184000  2
   1095   2232   2223   2214     1  0.0000000  1.6024720  3
   1098   2261   2252   2243     1  180.0000771  0.4184000  2
   1098   2261   2252   2243     1  0.0000000  1.6024720  3
   1102   1103   1115   1127     1  0.0000000  0.6508444  3
   1102   1106   1118   1124     1  0.0000000  0.6508444  3
   1102   1109   1112   1121     1  0.0000000  0.6508444  3
   1103   1102   1106   1118     1  180.0000771  2.0083200  2
   1103   1102   1106   1118     1  0.0000000  1.2552000  3
   1103   1102   1109   1112     1  180.0000771  2.0083200  2
   1103   1102   1109   1112     1  0.0000000  1.2552000  3
   1103   1115   1127   2319     1  0.0000000  0.6508444  3
   1106   1102   1103   1115     1  180.0000771  2.0083200  2
   1106   1102   1103   1115     1  0.0000000  1.2552000  3
   1106   1102   1109   1112     1  180.0000771  2.0083200  2
   1106   1102   1109   1112     1  0.0000000  1.2552000  3
   1106   1118   1124   2290     1  0.0000000  0.6508444  3
   1109   1102   1103   1115     1  180.0000771  2.0083200  2
   1109   1102   1103   1115     1  0.0000000  1.2552000  3
   1109   1102   1106   1118     1  180.0000771  2.0083200  2
   1109   1102   1106   1118     1  0.0000000  1.2552000  3
   1109   1112   1121   1130     1  0.0000000  0.6508444  3
   1115   1127   2319   2310     1  180.0000771  0.4184000  2
   1115   1127   2319   2310     1  0.0000000  1.6024720  3
   1118   1124   2290   2281     1  180.0000771  0.4184000  2
   1118   1124   2290   2281     1  0.0000000  1.6024720  3
   1124   2290   2281   2272     1  180.0000771  0.4184000  2
   1124   2290   2281   2272     1  0.0000000  1.6024720  3
   1127   2319   2310   2301     1  180.0000771  0.4184000  2
   1127   2319   2310   2301     1  0.0000000  1.6024720  3
   1131   1132   1144   1156     1  0.0000000  0.6508444  3
   1131   1135   1147   1153     1  0.0000000  0.6508444  3
   1131   1138   1141   1150     1  0.0000000  0.6508444  3
   1132   1131   1135   1147     1  180.0000771  2.0083200  2
   1132   1131   1135   1147     1  0.0000000  1.2552000  3
   1132   1131   1138   1141     1  180.0000771  2.0083200  2
   1132   1131   1138   1141     1  0.0000000  1.2552000  3
   1132   1144   1156   2377     1  0.0000000  0.6508444  3
   1135   1131   1132   1144     1  180.0000771  2.0083200  2
   1135   1131   1132   1144     1  0.0000000  1.2552000  3
   1135   1131   1138   1141     1  180.0000771  2.0083200  2
   1135   1131   1138   1141     1  0.0000000  1.2552000  3
   1135   1147   1153   2348     1  0.0000000  0.6508444  3
   1138   1131   1132   1144     1  180.0000771  2.0083200  2
   1138   1131   1132   1144     1  0.0000000  1.2552000  3
   1138   1131   1135   1147     1  180.0000771  2.0083200  2
   1138   1131   1135   1147     1  0.0000000  1.2552000  3
   1138   1141   1150   1159     1  0.0000000  0.6508444  3
   1144   1156   2377   2368     1  180.0000771  0.4184000  2
   1144   1156   2377   2368     1  0.0000000  1.6024720  3
   1147   1153   2348   2339     1  180.0000771  0.4184000  2
   1147   1153   2348   2339     1  0.0000000  1.6024720  3
   1153   2348   2339   2330     1  180.0000771  0.4184000  2
   1153   2348   2339   2330     1  0.0000000  1.6024720  3
   1156   2377   2368   2359     1  180.0000771  0.4184000  2
   1156   2377   2368   2359     1  0.0000000  1.6024720  3
   1160   1161   1173   1185     1  0.0000000  0.6508444  3
   1160   1164   1176   1182     1  0.0000000  0.6508444  3
   1160   1167   1170   1179     1  0.0000000  0.6508444  3
   1161   1160   1164   1176     1  180.0000771  2.0083200  2
   1161   1160   1164   1176     1  0.0000000  1.2552000  3
   1161   1160   1167   1170     1  180.0000771  2.0083200  2
   1161   1160   1167   1170     1  0.0000000  1.2552000  3
   1161   1173   1185   2435     1  0.0000000  0.6508444  3
   1164   1160   1161   1173     1  180.0000771  2.0083200  2
   1164   1160   1161   1173     1  0.0000000  1.2552000  3
   1164   1160   1167   1170     1  180.0000771  2.0083200  2
   1164   1160   1167   1170     1  0.0000000  1.2552000  3
   1164   1176   1182   2406     1  0.0000000  0.6508444  3
   1167   1160   1161   1173     1  180.0000771  2.0083200  2
   1167   1160   1161   1173     1  0.0000000  1.2552000  3
   1167   1160   1164   1176     1  180.0000771  2.0083200  2
   1167   1160   1164   1176     1  0.0000000  1.2552000  3
   1167   1170   1179   1188     1  0.0000000  0.6508444  3
   1173   1185   2435   2426     1  180.0000771  0.4184000  2
   1173   1185   2435   2426     1  0.0000000  1.6024720  3
   1176   1182   2406   2397     1  180.0000771  0.4184000  2
   1176   1182   2406   2397     1  0.0000000  1.6024720  3
   1182   2406   2397   2388     1  180.0000771  0.4184000  2
   1182   2406   2397   2388     1  0.0000000  1.6024720  3
   1185   2435   2426   2417     1  180.0000771  0.4184000  2
   1185   2435   2426   2417     1  0.0000000  1.6024720  3
   1189   1190   1202   1214     1  0.0000000  0.6508444  3
   1189   1193   1205   1211     1  0.0000000  0.6508444  3
   1189   1196   1199   1208     1  0.0000000  0.6508444  3
   1190   1189   1193   1205     1  180.0000771  2.0083200  2
   1190   1189   1193   1205     1  0.0000000  1.2552000  3
   1190   1189   1196   1199     1  180.0000771  2.0083200  2
   1190   1189   1196   1199     1  0.0000000  1.2552000  3
   1190   1202   1214   2493     1  0.0000000  0.6508444  3
   1193   1189   1190   1202     1  180.0000771  2.0083200  2
   1193   1189   1190   1202     1  0.0000000  1.2552000  3
   1193   1189   1196   1199     1  180.0000771  2.0083200  2
   1193   1189   1196   1199     1  0.0000000  1.2552000  3
   1193   1205   1211   2464     1  0.0000000  0.6508444  3
   1196   1189   1190   1202     1  180.0000771  2.0083200  2
   1196   1189   1190   1202     1  0.0000000  1.2552000  3
   1196   1189   1193   1205     1  180.0000771  2.0083200  2
   1196   1189   1193   1205     1  0.0000000  1.2552000  3
   1196   1199   1208   1217     1  0.0000000  0.6508444  3
   1202   1214   2493   2484     1  180.0000771  0.4184000  2
   1202   1214   2493   2484     1  0.0000000  1.6024720  3
   1205   1211   2464   2455     1  180.0000771  0.4184000  2
   1205   1211   2464   2455     1  0.0000000  1.6024720  3
   1211   2464   2455   2446     1  180.0000771  0.4184000  2
   1211   2464   2455   2446     1  0.0000000  1.6024720  3
   1214   2493   2484   2475     1  180.0000771  0.4184000  2
   1214   2493   2484   2475     1  0.0000000  1.6024720  3
   1218   1219   1231   1243     1  0.0000000  0.6508444  3
   1218   1222   1234   1240     1  0.0000000  0.6508444  3
   1218   1225   1228   1237     1  0.0000000  0.6508444  3
   1219   1218   1222   1234     1  180.0000771  2.0083200  2
   1219   1218   1222   1234     1  0.0000000  1.2552000  3
   1219   1218   1225   1228     1  180.0000771  2.0083200  2
   1219   1218   1225   1228     1  0.0000000  1.2552000  3
   1219   1231   1243   2551     1  0.0000000  0.6508444  3
   1222   1218   1219   1231     1  180.0000771  2.0083200  2
   1222   1218   1219   1231     1  0.0000000  1.2552000  3
   1222   1218   1225   1228     1  180.0000771  2.0083200  2
   1222   1218   1225   1228     1  0.0000000  1.2552000  3
   1222   1234   1240   2522     1  0.0000000  0.6508444  3
   1225   1218   1219   1231     1  180.0000771  2.0083200  2
   1225   1218   1219   1231     1  0.0000000  1.2552000  3
   1225   1218   1222   1234     1  180.0000771  2.0083200  2
   1225   1218   1222   1234     1  0.0000000  1.2552000  3
   1225   1228   1237   1246     1  0.0000000  0.6508444  3
   1231   1243   2551   2542     1  180.0000771  0.4184000  2
   1231   1243   2551   2542     1  0.0000000  1.6024720  3
   1234   1240   2522   2513     1  180.0000771  0.4184000  2
   1234   1240   2522   2513     1  0.0000000  1.6024720  3
   1240   2522   2513   2504     1  180.0000771  0.4184000  2
   1240   2522   2513   2504     1  0.0000000  1.6024720  3
   1243   2551   2542   2533     1  180.0000771  0.4184000  2
   1243   2551   2542   2533     1  0.0000000  1.6024720  3
   1247   1248   1260   1272     1  0.0000000  0.6508444  3
   1247   1251   1263   1269     1  0.0000000  0.6508444  3
   1247   1254   1257   1266     1  0.0000000  0.6508444  3
   1248   1247   1251   1263     1  180.0000771  2.0083200  2
   1248   1247   1251   1263     1  0.0000000  1.2552000  3
   1248   1247   1254   1257     1  180.0000771  2.0083200  2
   1248   1247   1254   1257     1  0.0000000  1.2552000  3
   1248   1260   1272   2609     1  0.0000000  0.6508444  3
   1251   1247   1248   1260     1  180.0000771  2.0083200  2
   1251   1247   1248   1260     1  0.0000000  1.2552000  3
   1251   1247   1254   1257     1  180.0000771  2.0083200  2
   1251   1247   1254   1257     1  0.0000000  1.2552000  3
   1251   1263   1269   2580     1  0.0000000  0.6508444  3
   1254   1247   1248   1260     1  180.0000771  2.0083200  2
   1254   1247   1248   1260     1  0.0000000  1.2552000  3
   1254   1247   1251   1263     1  180.0000771  2.0083200  2
   1254   1247   1251   1263     1  0.0000000  1.2552000  3
   1254   1257   1266   1275     1  0.0000000  0.6508444  3
   1260   1272   2609   2600     1  180.0000771  0.4184000  2
   1260   1272   2609   2600     1  0.0000000  1.6024720  3
   1263   1269   2580   2571     1  180.0000771  0.4184000  2
   1263   1269   2580   2571     1  0.0000000  1.6024720  3
   1269   2580   2571   2562     1  180.0000771  0.4184000  2
   1269   2580   2571   2562     1  0.0000000  1.6024720  3
   1272   2609   2600   2591     1  180.0000771  0.4184000  2
   1272   2609   2600   2591     1  0.0000000  1.6024720  3
   1276   1277   1289   1301     1  0.0000000  0.6508444  3
   1276   1280   1292   1298     1  0.0000000  0.6508444  3
   1276   1283   1286   1295     1  0.0000000  0.6508444  3
   1277   1276   1280   1292     1  180.0000771  2.0083200  2
   1277   1276   1280   1292     1  0.0000000  1.2552000  3
   1277   1276   1283   1286     1  180.0000771  2.0083200  2
   1277   1276   1283   1286     1  0.0000000  1.2552000  3
   1277   1289   1301   2667     1  0.0000000  0.6508444  3
   1280   1276   1277   1289     1  180.0000771  2.0083200  2
   1280   1276   1277   1289     1  0.0000000  1.2552000  3
   1280   1276   1283   1286     1  180.0000771  2.0083200  2
   1280   1276   1283   1286     1  0.0000000  1.2552000  3
   1280   1292   1298   2638     1  0.0000000  0.6508444  3
   1283   1276   1277   1289     1  180.0000771  2.0083200  2
   1283   1276   1277   1289     1  0.0000000  1.2552000  3
   1283   1276   1280   1292     1  180.0000771  2.0083200  2
   1283   1276   1280   1292     1  0.0000000  1.2552000  3
   1283   1286   1295   1304     1  0.0000000  0.6508444  3
   1289   1301   2667   2658     1  180.0000771  0.4184000  2
   1289   1301   2667   2658     1  0.0000000  1.6024720  3
   1292   1298   2638   2629     1  180.0000771  0.4184000  2
   1292   1298   2638   2629     1  0.0000000  1.6024720  3
   1298   2638   2629   2620     1  180.0000771  0.4184000  2
   1298   2638   2629   2620     1  0.0000000  1.6024720  3
   1301   2667   2658   2649     1  180.0000771  0.4184000  2
   1301   2667   2658   2649     1  0.0000000  1.6024720  3
   1305   1306   1318   1330     1  0.0000000  0.6508444  3
   1305   1309   1321   1327     1  0.0000000  0.6508444  3
   1305   1312   1315   1324     1  0.0000000  0.6508444  3
   1306   1305   1309   1321     1  180.0000771  2.0083200  2
   1306   1305   1309   1321     1  0.0000000  1.2552000  3
   1306   1305   1312   1315     1  180.0000771  2.0083200  2
   1306   1305   1312   1315     1  0.0000000  1.2552000  3
   1306   1318   1330   2725     1  0.0000000  0.6508444  3
   1309   1305   1306   1318     1  180.0000771  2.0083200  2
   1309   1305   1306   1318     1  0.0000000  1.2552000  3
   1309   1305   1312   1315     1  180.0000771  2.0083200  2
   1309   1305   1312   1315     1  0.0000000  1.2552000  3
   1309   1321   1327   2696     1  0.0000000  0.6508444  3
   1312   1305   1306   1318     1  180.0000771  2.0083200  2
   1312   1305   1306   1318     1  0.0000000  1.2552000  3
   1312   1305   1309   1321     1  180.0000771  2.0083200  2
   1312   1305   1309   1321     1  0.0000000  1.2552000  3
   1312   1315   1324   1333     1  0.0000000  0.6508444  3
   1318   1330   2725   2716     1  180.0000771  0.4184000  2
   1318   1330   2725   2716     1  0.0000000  1.6024720  3
   1321   1327   2696   2687     1  180.0000771  0.4184000  2
   1321   1327   2696   2687     1  0.0000000  1.6024720  3
   1327   2696   2687   2678     1  180.0000771  0.4184000  2
   1327   2696   2687   2678     1  0.0000000  1.6024720  3
   1330   2725   2716   2707     1  180.0000771  0.4184000  2
   1330   2725   2716   2707     1  0.0000000  1.6024720  3
   1334   1335   1347   1359     1  0.0000000  0.6508444  3
   1334   1338   1350   1356     1  0.0000000  0.6508444  3
   1334   1341   1344   1353     1  0.0000000  0.6508444  3
   1335   1334   1338   1350     1  180.0000771  2.0083200  2
   1335   1334   1338   1350     1  0.0000000  1.2552000  3
   1335   1334   1341   1344     1  180.0000771  2.0083200  2
   1335   1334   1341   1344     1  0.0000000  1.2552000  3
   1335   1347   1359   2783     1  0.0000000  0.6508444  3
   1338   1334   1335   1347     1  180.0000771  2.0083200  2
   1338   1334   1335   1347     1  0.0000000  1.2552000  3
   1338   1334   1341   1344     1  180.0000771  2.0083200  2
   1338   1334   1341   1344     1  0.0000000  1.2552000  3
   1338   1350   1356   2754     1  0.0000000  0.6508444  3
   1341   1334   1335   1347     1  180.0000771  2.0083200  2
   1341   1334   1335   1347     1  0.0000000  1.2552000  3
   1341   1334   1338   1350     1  180.0000771  2.0083200  2
   1341   1334   1338   1350     1  0.0000000  1.2552000  3
   1341   1344   1353   1362     1  0.0000000  0.6508444  3
   1347   1359   2783   2774     1  180.0000771  0.4184000  2
   1347   1359   2783   2774     1  0.0000000  1.6024720  3
   1350   1356   2754   2745     1  180.0000771  0.4184000  2
   1350   1356   2754   2745     1  0.0000000  1.6024720  3
   1356   2754   2745   2736     1  180.0000771  0.4184000  2
   1356   2754   2745   2736     1  0.0000000  1.6024720  3
   1359   2783   2774   2765     1  180.0000771  0.4184000  2
   1359   2783   2774   2765     1  0.0000000  1.6024720  3
   1363   1364   1376   1388     1  0.0000000  0.6508444  3
   1363   1367   1379   1385     1  0.0000000  0.6508444  3
   1363   1370   1373   1382     1  0.0000000  0.6508444  3
   1364   1363   1367   1379     1  180.0000771  2.0083200  2
   1364   1363   1367   1379     1  0.0000000  1.2552000  3
   1364   1363   1370   1373     1  180.0000771  2.0083200  2
   1364   1363   1370   1373     1  0.0000000  1.2552000  3
   1364   1376   1388   2841     1  0.0000000  0.6508444  3
   1367   1363   1364   1376     1  180.0000771  2.0083200  2
   1367   1363   1364   1376     1  0.0000000  1.2552000  3
   1367   1363   1370   1373     1  180.0000771  2.0083200  2
   1367   1363   1370   1373     1  0.0000000  1.2552000  3
   1367   1379   1385   2812     1  0.0000000  0.6508444  3
   1370   1363   1364   1376     1  180.0000771  2.0083200  2
   1370   1363   1364   1376     1  0.0000000  1.2552000  3
   1370   1363   1367   1379     1  180.0000771  2.0083200  2
   1370   1363   1367   1379     1  0.0000000  1.2552000  3
   1370   1373   1382   1391     1  0.0000000  0.6508444  3
   1376   1388   2841   2832     1  180.0000771  0.4184000  2
   1376   1388   2841   2832     1  0.0000000  1.6024720  3
   1379   1385   2812   2803     1  180.0000771  0.4184000  2
   1379   1385   2812   2803     1  0.0000000  1.6024720  3
   1385   2812   2803   2794     1  180.0000771  0.4184000  2
   1385   2812   2803   2794     1  0.0000000  1.6024720  3
   1388   2841   2832   2823     1  180.0000771  0.4184000  2
   1388   2841   2832   2823     1  0.0000000  1.6024720  3
   1392   1393   1405   1417     1  0.0000000  0.6508444  3
   1392   1396   1408   1414     1  0.0000000  0.6508444  3
   1392   1399   1402   1411     1  0.0000000  0.6508444  3
   1393   1392   1396   1408     1  180.0000771  2.0083200  2
   1393   1392   1396   1408     1  0.0000000  1.2552000  3
   1393   1392   1399   1402     1  180.0000771  2.0083200  2
   1393   1392   1399   1402     1  0.0000000  1.2552000  3
   1393   1405   1417   2899     1  0.0000000  0.6508444  3
   1396   1392   1393   1405     1  180.0000771  2.0083200  2
   1396   1392   1393   1405     1  0.0000000  1.2552000  3
   1396   1392   1399   1402     1  180.0000771  2.0083200  2
   1396   1392   1399   1402     1  0.0000000  1.2552000  3
   1396   1408   1414   2870     1  0.0000000  0.6508444  3
   1399   1392   1393   1405     1  180.0000771  2.0083200  2
   1399   1392   1393   1405     1  0.0000000  1.2552000  3
   1399   1392   1396   1408     1  180.0000771  2.0083200  2
   1399   1392   1396   1408     1  0.0000000  1.2552000  3
   1399   1402   1411   1420     1  0.0000000  0.6508444  3
   1405   1417   2899   2890     1  180.0000771  0.4184000  2
   1405   1417   2899   2890     1  0.0000000  1.6024720  3
   1408   1414   2870   2861     1  180.0000771  0.4184000  2
   1408   1414   2870   2861     1  0.0000000  1.6024720  3
   1414   2870   2861   2852     1  180.0000771  0.4184000  2
   1414   2870   2861   2852     1  0.0000000  1.6024720  3
   1417   2899   2890   2881     1  180.0000771  0.4184000  2
   1417   2899   2890   2881     1  0.0000000  1.6024720  3
   1421   1422   1434   1446     1  0.0000000  0.6508444  3
   1421   1425   1437   1443     1  0.0000000  0.6508444  3
   1421   1428   1431   1440     1  0.0000000  0.6508444  3
   1422   1421   1425   1437     1  180.0000771  2.0083200  2
   1422   1421   1425   1437     1  0.0000000  1.2552000  3
   1422   1421   1428   1431     1  180.0000771  2.0083200  2
   1422   1421   1428   1431     1  0.0000000  1.2552000  3
   1422   1434   1446   2957     1  0.0000000  0.6508444  3
   1425   1421   1422   1434     1  180.0000771  2.0083200  2
   1425   1421   1422   1434     1  0.0000000  1.2552000  3
   1425   1421   1428   1431     1  180.0000771  2.0083200  2
   1425   1421   1428   1431     1  0.0000000  1.2552000  3
   1425   1437   1443   2928     1  0.0000000  0.6508444  3
   1428   1421   1422   1434     1  180.0000771  2.0083200  2
   1428   1421   1422   1434     1  0.0000000  1.2552000  3
   1428   1421   1425   1437     1  180.0000771  2.0083200  2
   1428   1421   1425   1437     1  0.0000000  1.2552000  3
   1428   1431   1440   1449     1  0.0000000  0.6508444  3
   1434   1446   2957   2948     1  180.0000771  0.4184000  2
   1434   1446   2957   2948     1  0.0000000  1.6024720  3
   1437   1443   2928   2919     1  180.0000771  0.4184000  2
   1437   1443   2928   2919     1  0.0000000  1.6024720  3
   1443   2928   2919   2910     1  180.0000771  0.4184000  2
   1443   2928   2919   2910     1  0.0000000  1.6024720  3
   1446   2957   2948   2939     1  180.0000771  0.4184000  2
   1446   2957   2948   2939     1  0.0000000  1.6024720  3
   1450   1451   1463   1475     1  0.0000000  0.6508444  3
   1450   1454   1466   1472     1  0.0000000  0.6508444  3
   1450   1457   1460   1469     1  0.0000000  0.6508444  3
   1451   1450   1454   1466     1  180.0000771  2.0083200  2
   1451   1450   1454   1466     1  0.0000000  1.2552000  3
   1451   1450   1457   1460     1  180.0000771  2.0083200  2
   1451   1450   1457   1460     1  0.0000000  1.2552000  3
   1451   1463   1475   3015     1  0.0000000  0.6508444  3
   1454   1450   1451   1463     1  180.0000771  2.0083200  2
   1454   1450   1451   1463     1  0.0000000  1.2552000  3
   1454   1450   1457   1460     1  180.0000771  2.0083200  2
   1454   1450   1457   1460     1  0.0000000  1.2552000  3
   1454   1466   1472   2986     1  0.0000000  0.6508444  3
   1457   1450   1451   1463     1  180.0000771  2.0083200  2
   1457   1450   1451   1463     1  0.0000000  1.2552000  3
   1457   1450   1454   1466     1  180.0000771  2.0083200  2
   1457   1450   1454   1466     1  0.0000000  1.2552000  3
   1457   1460   1469   1478     1  0.0000000  0.6508444  3
   1463   1475   3015   3006     1  180.0000771  0.4184000  2
   1463   1475   3015   3006     1  0.0000000  1.6024720  3
   1466   1472   2986   2977     1  180.0000771  0.4184000  2
   1466   1472   2986   2977     1  0.0000000  1.6024720  3
   1472   2986   2977   2968     1  180.0000771  0.4184000  2
   1472   2986   2977   2968     1  0.0000000  1.6024720  3
   1475   3015   3006   2997     1  180.0000771  0.4184000  2
   1475   3015   3006   2997     1  0.0000000  1.6024720  3
   1479   1480   1492   1504     1  0.0000000  0.6508444  3
   1479   1483   1495   1501     1  0.0000000  0.6508444  3
   1479   1486   1489   1498     1  0.0000000  0.6508444  3
   1480   1479   1483   1495     1  180.0000771  2.0083200  2
   1480   1479   1483   1495     1  0.0000000  1.2552000  3
   1480   1479   1486   1489     1  180.0000771  2.0083200  2
   1480   1479   1486   1489     1  0.0000000  1.2552000  3
   1480   1492   1504   3073     1  0.0000000  0.6508444  3
   1483   1479   1480   1492     1  180.0000771  2.0083200  2
   1483   1479   1480   1492     1  0.0000000  1.2552000  3
   1483   1479   1486   1489     1  180.0000771  2.0083200  2
   1483   1479   1486   1489     1  0.0000000  1.2552000  3
   1483   1495   1501   3044     1  0.0000000  0.6508444  3
   1486   1479   1480   1492     1  180.0000771  2.0083200  2
   1486   1479   1480   1492     1  0.0000000  1.2552000  3
   1486   1479   1483   1495     1  180.0000771  2.0083200  2
   1486   1479   1483   1495     1  0.0000000  1.2552000  3
   1486   1489   1498   1507     1  0.0000000  0.6508444  3
   1492   1504   3073   3064     1  180.0000771  0.4184000  2
   1492   1504   3073   3064     1  0.0000000  1.6024720  3
   1495   1501   3044   3035     1  180.0000771  0.4184000  2
   1495   1501   3044   3035     1  0.0000000  1.6024720  3
   1501   3044   3035   3026     1  180.0000771  0.4184000  2
   1501   3044   3035   3026     1  0.0000000  1.6024720  3
   1504   3073   3064   3055     1  180.0000771  0.4184000  2
   1504   3073   3064   3055     1  0.0000000  1.6024720  3
   1508   1509   1521   1533     1  0.0000000  0.6508444  3
   1508   1512   1524   1530     1  0.0000000  0.6508444  3
   1508   1515   1518   1527     1  0.0000000  0.6508444  3
   1509   1508   1512   1524     1  180.0000771  2.0083200  2
   1509   1508   1512   1524     1  0.0000000  1.2552000  3
   1509   1508   1515   1518     1  180.0000771  2.0083200  2
   1509   1508   1515   1518     1  0.0000000  1.2552000  3
   1509   1521   1533   3131     1  0.0000000  0.6508444  3
   1512   1508   1509   1521     1  180.0000771  2.0083200  2
   1512   1508   1509   1521     1  0.0000000  1.2552000  3
   1512   1508   1515   1518     1  180.0000771  2.0083200  2
   1512   1508   1515   1518     1  0.0000000  1.2552000  3
   1512   1524   1530   3102     1  0.0000000  0.6508444  3
   1515   1508   1509   1521     1  180.0000771  2.0083200  2
   1515   1508   1509   1521     1  0.0000000  1.2552000  3
   1515   1508   1512   1524     1  180.0000771  2.0083200  2
   1515   1508   1512   1524     1  0.0000000  1.2552000  3
   1515   1518   1527   1536     1  0.0000000  0.6508444  3
   1521   1533   3131   3122     1  180.0000771  0.4184000  2
   1521   1533   3131   3122     1  0.0000000  1.6024720  3
   1524   1530   3102   3093     1  180.0000771  0.4184000  2
   1524   1530   3102   3093     1  0.0000000  1.6024720  3
   1530   3102   3093   3084     1  180.0000771  0.4184000  2
   1530   3102   3093   3084     1  0.0000000  1.6024720  3
   1533   3131   3122   3113     1  180.0000771  0.4184000  2
   1533   3131   3122   3113     1  0.0000000  1.6024720  3
   1537   1538   1550   1562     1  0.0000000  0.6508444  3
   1537   1541   1553   1559     1  0.0000000  0.6508444  3
   1537   1544   1547   1556     1  0.0000000  0.6508444  3
   1538   1537   1541   1553     1  180.0000771  2.0083200  2
   1538   1537   1541   1553     1  0.0000000  1.2552000  3
   1538   1537   1544   1547     1  180.0000771  2.0083200  2
   1538   1537   1544   1547     1  0.0000000  1.2552000  3
   1538   1550   1562   3189     1  0.0000000  0.6508444  3
   1541   1537   1538   1550     1  180.0000771  2.0083200  2
   1541   1537   1538   1550     1  0.0000000  1.2552000  3
   1541   1537   1544   1547     1  180.0000771  2.0083200  2
   1541   1537   1544   1547     1  0.0000000  1.2552000  3
   1541   1553   1559   3160     1  0.0000000  0.6508444  3
   1544   1537   1538   1550     1  180.0000771  2.0083200  2
   1544   1537   1538   1550     1  0.0000000  1.2552000  3
   1544   1537   1541   1553     1  180.0000771  2.0083200  2
   1544   1537   1541   1553     1  0.0000000  1.2552000  3
   1544   1547   1556   1565     1  0.0000000  0.6508444  3
   1550   1562   3189   3180     1  180.0000771  0.4184000  2
   1550   1562   3189   3180     1  0.0000000  1.6024720  3
   1553   1559   3160   3151     1  180.0000771  0.4184000  2
   1553   1559   3160   3151     1  0.0000000  1.6024720  3
   1559   3160   3151   3142     1  180.0000771  0.4184000  2
   1559   3160   3151   3142     1  0.0000000  1.6024720  3
   1562   3189   3180   3171     1  180.0000771  0.4184000  2
   1562   3189   3180   3171     1  0.0000000  1.6024720  3
   1566   1567   1579   1591     1  0.0000000  0.6508444  3
   1566   1570   1582   1588     1  0.0000000  0.6508444  3
   1566   1573   1576   1585     1  0.0000000  0.6508444  3
   1567   1566   1570   1582     1  180.0000771  2.0083200  2
   1567   1566   1570   1582     1  0.0000000  1.2552000  3
   1567   1566   1573   1576     1  180.0000771  2.0083200  2
   1567   1566   1573   1576     1  0.0000000  1.2552000  3
   1567   1579   1591   3247     1  0.0000000  0.6508444  3
   1570   1566   1567   1579     1  180.0000771  2.0083200  2
   1570   1566   1567   1579     1  0.0000000  1.2552000  3
   1570   1566   1573   1576     1  180.0000771  2.0083200  2
   1570   1566   1573   1576     1  0.0000000  1.2552000  3
   1570   1582   1588   3218     1  0.0000000  0.6508444  3
   1573   1566   1567   1579     1  180.0000771  2.0083200  2
   1573   1566   1567   1579     1  0.0000000  1.2552000  3
   1573   1566   1570   1582     1  180.0000771  2.0083200  2
   1573   1566   1570   1582     1  0.0000000  1.2552000  3
   1573   1576   1585   1594     1  0.0000000  0.6508444  3
   1579   1591   3247   3238     1  180.0000771  0.4184000  2
   1579   1591   3247   3238     1  0.0000000  1.6024720  3
   1582   1588   3218   3209     1  180.0000771  0.4184000  2
   1582   1588   3218   3209     1  0.0000000  1.6024720  3
   1588   3218   3209   3200     1  180.0000771  0.4184000  2
   1588   3218   3209   3200     1  0.0000000  1.6024720  3
   1591   3247   3238   3229     1  180.0000771  0.4184000  2
   1591   3247   3238   3229     1  0.0000000  1.6024720  3
   1595   1596   1608   1620     1  0.0000000  0.6508444  3
   1595   1599   1611   1617     1  0.0000000  0.6508444  3
   1595   1602   1605   1614     1  0.0000000  0.6508444  3
   1596   1595   1599   1611     1  180.0000771  2.0083200  2
   1596   1595   1599   1611     1  0.0000000  1.2552000  3
   1596   1595   1602   1605     1  180.0000771  2.0083200  2
   1596   1595   1602   1605     1  0.0000000  1.2552000  3
   1596   1608   1620   3305     1  0.0000000  0.6508444  3
   1599   1595   1596   1608     1  180.0000771  2.0083200  2
   1599   1595   1596   1608     1  0.0000000  1.2552000  3
   1599   1595   1602   1605     1  180.0000771  2.0083200  2
   1599   1595   1602   1605     1  0.0000000  1.2552000  3
   1599   1611   1617   3276     1  0.0000000  0.6508444  3
   1602   1595   1596   1608     1  180.0000771  2.0083200  2
   1602   1595   1596   1608     1  0.0000000  1.2552000  3
   1602   1595   1599   1611     1  180.0000771  2.0083200  2
   1602   1595   1599   1611     1  0.0000000  1.2552000  3
   1602   1605   1614   1623     1  0.0000000  0.6508444  3
   1608   1620   3305   3296     1  180.0000771  0.4184000  2
   1608   1620   3305   3296     1  0.0000000  1.6024720  3
   1611   1617   3276   3267     1  180.0000771  0.4184000  2
   1611   1617   3276   3267     1  0.0000000  1.6024720  3
   1617   3276   3267   3258     1  180.0000771  0.4184000  2
   1617   3276   3267   3258     1  0.0000000  1.6024720  3
   1620   3305   3296   3287     1  180.0000771  0.4184000  2
   1620   3305   3296   3287     1  0.0000000  1.6024720  3
   1624   1625   1637   1649     1  0.0000000  0.6508444  3
   1624   1628   1640   1646     1  0.0000000  0.6508444  3
   1624   1631   1634   1643     1  0.0000000  0.6508444  3
   1625   1624   1628   1640     1  180.0000771  2.0083200  2
   1625   1624   1628   1640     1  0.0000000  1.2552000  3
   1625   1624   1631   1634     1  180.0000771  2.0083200  2
   1625   1624   1631   1634     1  0.0000000  1.2552000  3
   1625   1637   1649   3363     1  0.0000000  0.6508444  3
   1628   1624   1625   1637     1  180.0000771  2.0083200  2
   1628   1624   1625   1637     1  0.0000000  1.2552000  3
   1628   1624   1631   1634     1  180.0000771  2.0083200  2
   1628   1624   1631   1634     1  0.0000000  1.2552000  3
   1628   1640   1646   3334     1  0.0000000  0.6508444  3
   1631   1624   1625   1637     1  180.0000771  2.0083200  2
   1631   1624   1625   1637     1  0.0000000  1.2552000  3
   1631   1624   1628   1640     1  180.0000771  2.0083200  2
   1631   1624   1628   1640     1  0.0000000  1.2552000  3
   1631   1634   1643   1652     1  0.0000000  0.6508444  3
   1637   1649   3363   3354     1  180.0000771  0.4184000  2
   1637   1649   3363   3354     1  0.0000000  1.6024720  3
   1640   1646   3334   3325     1  180.0000771  0.4184000  2
   1640   1646   3334   3325     1  0.0000000  1.6024720  3
   1646   3334   3325   3316     1  180.0000771  0.4184000  2
   1646   3334   3325   3316     1  0.0000000  1.6024720  3
   1649   3363   3354   3345     1  180.0000771  0.4184000  2
   1649   3363   3354   3345     1  0.0000000  1.6024720  3
   1653   1654   1666   1678     1  0.0000000  0.6508444  3
   1653   1657   1669   1675     1  0.0000000  0.6508444  3
   1653   1660   1663   1672     1  0.0000000  0.6508444  3
   1654   1653   1657   1669     1  180.0000771  2.0083200  2
   1654   1653   1657   1669     1  0.0000000  1.2552000  3
   1654   1653   1660   1663     1  180.0000771  2.0083200  2
   1654   1653   1660   1663     1  0.0000000  1.2552000  3
   1654   1666   1678   3421     1  0.0000000  0.6508444  3
   1657   1653   1654   1666     1  180.0000771  2.0083200  2
   1657   1653   1654   1666     1  0.0000000  1.2552000  3
   1657   1653   1660   1663     1  180.0000771  2.0083200  2
   1657   1653   1660   1663     1  0.0000000  1.2552000  3
   1657   1669   1675   3392     1  0.0000000  0.6508444  3
   1660   1653   1654   1666     1  180.0000771  2.0083200  2
   1660   1653   1654   1666     1  0.0000000  1.2552000  3
   1660   1653   1657   1669     1  180.0000771  2.0083200  2
   1660   1653   1657   1669     1  0.0000000  1.2552000  3
   1660   1663   1672   1681     1  0.0000000  0.6508444  3
   1666   1678   3421   3412     1  180.0000771  0.4184000  2
   1666   1678   3421   3412     1  0.0000000  1.6024720  3
   1669   1675   3392   3383     1  180.0000771  0.4184000  2
   1669   1675   3392   3383     1  0.0000000  1.6024720  3
   1675   3392   3383   3374     1  180.0000771  0.4184000  2
   1675   3392   3383   3374     1  0.0000000  1.6024720  3
   1678   3421   3412   3403     1  180.0000771  0.4184000  2
   1678   3421   3412   3403     1  0.0000000  1.6024720  3
   1682   1683   1695   1707     1  0.0000000  0.6508444  3
   1682   1686   1698   1704     1  0.0000000  0.6508444  3
   1682   1689   1692   1701     1  0.0000000  0.6508444  3
   1683   1682   1686   1698     1  180.0000771  2.0083200  2
   1683   1682   1686   1698     1  0.0000000  1.2552000  3
   1683   1682   1689   1692     1  180.0000771  2.0083200  2
   1683   1682   1689   1692     1  0.0000000  1.2552000  3
   1683   1695   1707   3479     1  0.0000000  0.6508444  3
   1686   1682   1683   1695     1  180.0000771  2.0083200  2
   1686   1682   1683   1695     1  0.0000000  1.2552000  3
   1686   1682   1689   1692     1  180.0000771  2.0083200  2
   1686   1682   1689   1692     1  0.0000000  1.2552000  3
   1686   1698   1704   3450     1  0.0000000  0.6508444  3
   1689   1682   1683   1695     1  180.0000771  2.0083200  2
   1689   1682   1683   1695     1  0.0000000  1.2552000  3
   1689   1682   1686   1698     1  180.0000771  2.0083200  2
   1689   1682   1686   1698     1  0.0000000  1.2552000  3
   1689   1692   1701   1710     1  0.0000000  0.6508444  3
   1695   1707   3479   3470     1  180.0000771  0.4184000  2
   1695   1707   3479   3470     1  0.0000000  1.6024720  3
   1698   1704   3450   3441     1  180.0000771  0.4184000  2
   1698   1704   3450   3441     1  0.0000000  1.6024720  3
   1704   3450   3441   3432     1  180.0000771  0.4184000  2
   1704   3450   3441   3432     1  0.0000000  1.6024720  3
   1707   3479   3470   3461     1  180.0000771  0.4184000  2
   1707   3479   3470   3461     1  0.0000000  1.6024720  3
   1711   1712   1724   1736     1  0.0000000  0.6508444  3
   1711   1715   1727   1733     1  0.0000000  0.6508444  3
   1711   1718   1721   1730     1  0.0000000  0.6508444  3
   1712   1711   1715   1727     1  180.0000771  2.0083200  2
   1712   1711   1715   1727     1  0.0000000  1.2552000  3
   1712   1711   1718   1721     1  180.0000771  2.0083200  2
   1712   1711   1718   1721     1  0.0000000  1.2552000  3
   1712   1724   1736   3537     1  0.0000000  0.6508444  3
   1715   1711   1712   1724     1  180.0000771  2.0083200  2
   1715   1711   1712   1724     1  0.0000000  1.2552000  3
   1715   1711   1718   1721     1  180.0000771  2.0083200  2
   1715   1711   1718   1721     1  0.0000000  1.2552000  3
   1715   1727   1733   3508     1  0.0000000  0.6508444  3
   1718   1711   1712   1724     1  180.0000771  2.0083200  2
   1718   1711   1712   1724     1  0.0000000  1.2552000  3
   1718   1711   1715   1727     1  180.0000771  2.0083200  2
   1718   1711   1715   1727     1  0.0000000  1.2552000  3
   1718   1721   1730   1739     1  0.0000000  0.6508444  3
   1724   1736   3537   3528     1  180.0000771  0.4184000  2
   1724   1736   3537   3528     1  0.0000000  1.6024720  3
   1727   1733   3508   3499     1  180.0000771  0.4184000  2
   1727   1733   3508   3499     1  0.0000000  1.6024720  3
   1733   3508   3499   3490     1  180.0000771  0.4184000  2
   1733   3508   3499   3490     1  0.0000000  1.6024720  3
   1736   3537   3528   3519     1  180.0000771  0.4184000  2
   1736   3537   3528   3519     1  0.0000000  1.6024720  3
   1740   1741   1753   1765     1  0.0000000  0.6508444  3
   1740   1744   1756   1762     1  0.0000000  0.6508444  3
   1740   1747   1750   1759     1  0.0000000  0.6508444  3
   1741   1740   1744   1756     1  180.0000771  2.0083200  2
   1741   1740   1744   1756     1  0.0000000  1.2552000  3
   1741   1740   1747   1750     1  180.0000771  2.0083200  2
   1741   1740   1747   1750     1  0.0000000  1.2552000  3
   1741   1753   1765   3595     1  0.0000000  0.6508444  3
   1744   1740   1741   1753     1  180.0000771  2.0083200  2
   1744   1740   1741   1753     1  0.0000000  1.2552000  3
   1744   1740   1747   1750     1  180.0000771  2.0083200  2
   1744   1740   1747   1750     1  0.0000000  1.2552000  3
   1744   1756   1762   3566     1  0.0000000  0.6508444  3
   1747   1740   1741   1753     1  180.0000771  2.0083200  2
   1747   1740   1741   1753     1  0.0000000  1.2552000  3
   1747   1740   1744   1756     1  180.0000771  2.0083200  2
   1747   1740   1744   1756     1  0.0000000  1.2552000  3
   1747   1750   1759   1768     1  0.0000000  0.6508444  3
   1753   1765   3595   3586     1  180.0000771  0.4184000  2
   1753   1765   3595   3586     1  0.0000000  1.6024720  3
   1756   1762   3566   3557     1  180.0000771  0.4184000  2
   1756   1762   3566   3557     1  0.0000000  1.6024720  3
   1762   3566   3557   3548     1  180.0000771  0.4184000  2
   1762   3566   3557   3548     1  0.0000000  1.6024720  3
   1765   3595   3586   3577     1  180.0000771  0.4184000  2
   1765   3595   3586   3577     1  0.0000000  1.6024720  3
   1769   1770   1782   1794     1  0.0000000  0.6508444  3
   1769   1773   1785   1791     1  0.0000000  0.6508444  3
   1769   1776   1779   1788     1  0.0000000  0.6508444  3
   1770   1769   1773   1785     1  180.0000771  2.0083200  2
   1770   1769   1773   1785     1  0.0000000  1.2552000  3
   1770   1769   1776   1779     1  180.0000771  2.0083200  2
   1770   1769   1776   1779     1  0.0000000  1.2552000  3
   1770   1782   1794   3653     1  0.0000000  0.6508444  3
   1773   1769   1770   1782     1  180.0000771  2.0083200  2
   1773   1769   1770   1782     1  0.0000000  1.2552000  3
   1773   1769   1776   1779     1  180.0000771  2.0083200  2
   1773   1769   1776   1779     1  0.0000000  1.2552000  3
   1773   1785   1791   3624     1  0.0000000  0.6508444  3
   1776   1769   1770   1782     1  180.0000771  2.0083200  2
   1776   1769   1770   1782     1  0.0000000  1.2552000  3
   1776   1769   1773   1785     1  180.0000771  2.0083200  2
   1776   1769   1773   1785     1  0.0000000  1.2552000  3
   1776   1779   1788   1797     1  0.0000000  0.6508444  3
   1782   1794   3653   3644     1  180.0000771  0.4184000  2
   1782   1794   3653   3644     1  0.0000000  1.6024720  3
   1785   1791   3624   3615     1  180.0000771  0.4184000  2
   1785   1791   3624   3615     1  0.0000000  1.6024720  3
   1791   3624   3615   3606     1  180.0000771  0.4184000  2
   1791   3624   3615   3606     1  0.0000000  1.6024720  3
   1794   3653   3644   3635     1  180.0000771  0.4184000  2
   1794   3653   3644   3635     1  0.0000000  1.6024720  3
   1798   1799   1811   1823     1  0.0000000  0.6508444  3
   1798   1802   1814   1820     1  0.0000000  0.6508444  3
   1798   1805   1808   1817     1  0.0000000  0.6508444  3
   1799   1798   1802   1814     1  180.0000771  2.0083200  2
   1799   1798   1802   1814     1  0.0000000  1.2552000  3
   1799   1798   1805   1808     1  180.0000771  2.0083200  2
   1799   1798   1805   1808     1  0.0000000  1.2552000  3
   1799   1811   1823   3711     1  0.0000000  0.6508444  3
   1802   1798   1799   1811     1  180.0000771  2.0083200  2
   1802   1798   1799   1811     1  0.0000000  1.2552000  3
   1802   1798   1805   1808     1  180.0000771  2.0083200  2
   1802   1798   1805   1808     1  0.0000000  1.2552000  3
   1802   1814   1820   3682     1  0.0000000  0.6508444  3
   1805   1798   1799   1811     1  180.0000771  2.0083200  2
   1805   1798   1799   1811     1  0.0000000  1.2552000  3
   1805   1798   1802   1814     1  180.0000771  2.0083200  2
   1805   1798   1802   1814     1  0.0000000  1.2552000  3
   1805   1808   1817   1826     1  0.0000000  0.6508444  3
   1811   1823   3711   3702     1  180.0000771  0.4184000  2
   1811   1823   3711   3702     1  0.0000000  1.6024720  3
   1814   1820   3682   3673     1  180.0000771  0.4184000  2
   1814   1820   3682   3673     1  0.0000000  1.6024720  3
   1820   3682   3673   3664     1  180.0000771  0.4184000  2
   1820   3682   3673   3664     1  0.0000000  1.6024720  3
   1823   3711   3702   3693     1  180.0000771  0.4184000  2
   1823   3711   3702   3693     1  0.0000000  1.6024720  3
   1827   1828   1840   1852     1  0.0000000  0.6508444  3
   1827   1831   1843   1849     1  0.0000000  0.6508444  3
   1827   1834   1837   1846     1  0.0000000  0.6508444  3
   1828   1827   1831   1843     1  180.0000771  2.0083200  2
   1828   1827   1831   1843     1  0.0000000  1.2552000  3
   1828   1827   1834   1837     1  180.0000771  2.0083200  2
   1828   1827   1834   1837     1  0.0000000  1.2552000  3
   1828   1840   1852   3769     1  0.0000000  0.6508444  3
   1831   1827   1828   1840     1  180.0000771  2.0083200  2
   1831   1827   1828   1840     1  0.0000000  1.2552000  3
   1831   1827   1834   1837     1  180.0000771  2.0083200  2
   1831   1827   1834   1837     1  0.0000000  1.2552000  3
   1831   1843   1849   3740     1  0.0000000  0.6508444  3
   1834   1827   1828   1840     1  180.0000771  2.0083200  2
   1834   1827   1828   1840     1  0.0000000  1.2552000  3
   1834   1827   1831   1843     1  180.0000771  2.0083200  2
   1834   1827   1831   1843     1  0.0000000  1.2552000  3
   1834   1837   1846   1855     1  0.0000000  0.6508444  3
   1840   1852   3769   3760     1  180.0000771  0.4184000  2
   1840   1852   3769   3760     1  0.0000000  1.6024720  3
   1843   1849   3740   3731     1  180.0000771  0.4184000  2
   1843   1849   3740   3731     1  0.0000000  1.6024720  3
   1849   3740   3731   3722     1  180.0000771  0.4184000  2
   1849   3740   3731   3722     1  0.0000000  1.6024720  3
   1852   3769   3760   3751     1  180.0000771  0.4184000  2
   1852   3769   3760   3751     1  0.0000000  1.6024720  3
   1856   1857   1869   1881     1  0.0000000  0.6508444  3
   1856   1860   1872   1878     1  0.0000000  0.6508444  3
   1856   1863   1866   1875     1  0.0000000  0.6508444  3
   1857   1856   1860   1872     1  180.0000771  2.0083200  2
   1857   1856   1860   1872     1  0.0000000  1.2552000  3
   1857   1856   1863   1866     1  180.0000771  2.0083200  2
   1857   1856   1863   1866     1  0.0000000  1.2552000  3
   1857   1869   1881   3827     1  0.0000000  0.6508444  3
   1860   1856   1857   1869     1  180.0000771  2.0083200  2
   1860   1856   1857   1869     1  0.0000000  1.2552000  3
   1860   1856   1863   1866     1  180.0000771  2.0083200  2
   1860   1856   1863   1866     1  0.0000000  1.2552000  3
   1860   1872   1878   3798     1  0.0000000  0.6508444  3
   1863   1856   1857   1869     1  180.0000771  2.0083200  2
   1863   1856   1857   1869     1  0.0000000  1.2552000  3
   1863   1856   1860   1872     1  180.0000771  2.0083200  2
   1863   1856   1860   1872     1  0.0000000  1.2552000  3
   1863   1866   1875   1884     1  0.0000000  0.6508444  3
   1869   1881   3827   3818     1  180.0000771  0.4184000  2
   1869   1881   3827   3818     1  0.0000000  1.6024720  3
   1872   1878   3798   3789     1  180.0000771  0.4184000  2
   1872   1878   3798   3789     1  0.0000000  1.6024720  3
   1878   3798   3789   3780     1  180.0000771  0.4184000  2
   1878   3798   3789   3780     1  0.0000000  1.6024720  3
   1881   3827   3818   3809     1  180.0000771  0.4184000  2
   1881   3827   3818   3809     1  0.0000000  1.6024720  3
   1885   1886   1898   1910     1  0.0000000  0.6508444  3
   1885   1889   1901   1907     1  0.0000000  0.6508444  3
   1885   1892   1895   1904     1  0.0000000  0.6508444  3
   1886   1885   1889   1901     1  180.0000771  2.0083200  2
   1886   1885   1889   1901     1  0.0000000  1.2552000  3
   1886   1885   1892   1895     1  180.0000771  2.0083200  2
   1886   1885   1892   1895     1  0.0000000  1.2552000  3
   1886   1898   1910   3885     1  0.0000000  0.6508444  3
   1889   1885   1886   1898     1  180.0000771  2.0083200  2
   1889   1885   1886   1898     1  0.0000000  1.2552000  3
   1889   1885   1892   1895     1  180.0000771  2.0083200  2
   1889   1885   1892   1895     1  0.0000000  1.2552000  3
   1889   1901   1907   3856     1  0.0000000  0.6508444  3
   1892   1885   1886   1898     1  180.0000771  2.0083200  2
   1892   1885   1886   1898     1  0.0000000  1.2552000  3
   1892   1885   1889   1901     1  180.0000771  2.0083200  2
   1892   1885   1889   1901     1  0.0000000  1.2552000  3
   1892   1895   1904   1913     1  0.0000000  0.6508444  3
   1898   1910   3885   3876     1  180.0000771  0.4184000  2
   1898   1910   3885   3876     1  0.0000000  1.6024720  3
   1901   1907   3856   3847     1  180.0000771  0.4184000  2
   1901   1907   3856   3847     1  0.0000000  1.6024720  3
   1907   3856   3847   3838     1  180.0000771  0.4184000  2
   1907   3856   3847   3838     1  0.0000000  1.6024720  3
   1910   3885   3876   3867     1  180.0000771  0.4184000  2
   1910   3885   3876   3867     1  0.0000000  1.6024720  3
   1914   1915   1927   1939     1  0.0000000  0.6508444  3
   1914   1918   1930   1936     1  0.0000000  0.6508444  3
   1914   1921   1924   1933     1  0.0000000  0.6508444  3
   1915   1914   1918   1930     1  180.0000771  2.0083200  2
   1915   1914   1918   1930     1  0.0000000  1.2552000  3
   1915   1914   1921   1924     1  180.0000771  2.0083200  2
   1915   1914   1921   1924     1  0.0000000  1.2552000  3
   1915   1927   1939   3943     1  0.0000000  0.6508444  3
   1918   1914   1915   1927     1  180.0000771  2.0083200  2
   1918   1914   1915   1927     1  0.0000000  1.2552000  3
   1918   1914   1921   1924     1  180.0000771  2.0083200  2
   1918   1914   1921   1924     1  0.0000000  1.2552000  3
   1918   1930   1936   3914     1  0.0000000  0.6508444  3
   1921   1914   1915   1927     1  180.0000771  2.0083200  2
   1921   1914   1915   1927     1  0.0000000  1.2552000  3
   1921   1914   1918   1930     1  180.0000771  2.0083200  2
   1921   1914   1918   1930     1  0.0000000  1.2552000  3
   1921   1924   1933   1942     1  0.0000000  0.6508444  3
   1927   1939   3943   3934     1  180.0000771  0.4184000  2
   1927   1939   3943   3934     1  0.0000000  1.6024720  3
   1930   1936   3914   3905     1  180.0000771  0.4184000  2
   1930   1936   3914   3905     1  0.0000000  1.6024720  3
   1936   3914   3905   3896     1  180.0000771  0.4184000  2
   1936   3914   3905   3896     1  0.0000000  1.6024720  3
   1939   3943   3934   3925     1  180.0000771  0.4184000  2
   1939   3943   3934   3925     1  0.0000000  1.6024720  3
   1943   1944   1956   1968     1  0.0000000  0.6508444  3
   1943   1947   1959   1965     1  0.0000000  0.6508444  3
   1943   1950   1953   1962     1  0.0000000  0.6508444  3
   1944   1943   1947   1959     1  180.0000771  2.0083200  2
   1944   1943   1947   1959     1  0.0000000  1.2552000  3
   1944   1943   1950   1953     1  180.0000771  2.0083200  2
   1944   1943   1950   1953     1  0.0000000  1.2552000  3
   1944   1956   1968   4001     1  0.0000000  0.6508444  3
   1947   1943   1944   1956     1  180.0000771  2.0083200  2
   1947   1943   1944   1956     1  0.0000000  1.2552000  3
   1947   1943   1950   1953     1  180.0000771  2.0083200  2
   1947   1943   1950   1953     1  0.0000000  1.2552000  3
   1947   1959   1965   3972     1  0.0000000  0.6508444  3
   1950   1943   1944   1956     1  180.0000771  2.0083200  2
   1950   1943   1944   1956     1  0.0000000  1.2552000  3
   1950   1943   1947   1959     1  180.0000771  2.0083200  2
   1950   1943   1947   1959     1  0.0000000  1.2552000  3
   1950   1953   1962   1971     1  0.0000000  0.6508444  3
   1956   1968   4001   3992     1  180.0000771  0.4184000  2
   1956   1968   4001   3992     1  0.0000000  1.6024720  3
   1959   1965   3972   3963     1  180.0000771  0.4184000  2
   1959   1965   3972   3963     1  0.0000000  1.6024720  3
   1965   3972   3963   3954     1  180.0000771  0.4184000  2
   1965   3972   3963   3954     1  0.0000000  1.6024720  3
   1968   4001   3992   3983     1  180.0000771  0.4184000  2
   1968   4001   3992   3983     1  0.0000000  1.6024720  3
   1972   1973   1985   1997     1  0.0000000  0.6508444  3
   1972   1976   1988   1994     1  0.0000000  0.6508444  3
   1972   1979   1982   1991     1  0.0000000  0.6508444  3
   1973   1972   1976   1988     1  180.0000771  2.0083200  2
   1973   1972   1976   1988     1  0.0000000  1.2552000  3
   1973   1972   1979   1982     1  180.0000771  2.0083200  2
   1973   1972   1979   1982     1  0.0000000  1.2552000  3
   1973   1985   1997   4059     1  0.0000000  0.6508444  3
   1976   1972   1973   1985     1  180.0000771  2.0083200  2
   1976   1972   1973   1985     1  0.0000000  1.2552000  3
   1976   1972   1979   1982     1  180.0000771  2.0083200  2
   1976   1972   1979   1982     1  0.0000000  1.2552000  3
   1976   1988   1994   4030     1  0.0000000  0.6508444  3
   1979   1972   1973   1985     1  180.0000771  2.0083200  2
   1979   1972   1973   1985     1  0.0000000  1.2552000  3
   1979   1972   1976   1988     1  180.0000771  2.0083200  2
   1979   1972   1976   1988     1  0.0000000  1.2552000  3
   1979   1982   1991   2000     1  0.0000000  0.6508444  3
   1985   1997   4059   4050     1  180.0000771  0.4184000  2
   1985   1997   4059   4050     1  0.0000000  1.6024720  3
   1988   1994   4030   4021     1  180.0000771  0.4184000  2
   1988   1994   4030   4021     1  0.0000000  1.6024720  3
   1994   4030   4021   4012     1  180.0000771  0.4184000  2
   1994   4030   4021   4012     1  0.0000000  1.6024720  3
   1997   4059   4050   4041     1  180.0000771  0.4184000  2
   1997   4059   4050   4041     1  0.0000000  1.6024720  3
   2001   2002   2014   2026     1  0.0000000  0.6508444  3
   2001   2005   2017   2023     1  0.0000000  0.6508444  3
   2001   2008   2011   2020     1  0.0000000  0.6508444  3
   2002   2001   2005   2017     1  180.0000771  2.0083200  2
   2002   2001   2005   2017     1  0.0000000  1.2552000  3
   2002   2001   2008   2011     1  180.0000771  2.0083200  2
   2002   2001   2008   2011     1  0.0000000  1.2552000  3
   2002   2014   2026   4117     1  0.0000000  0.6508444  3
   2005   2001   2002   2014     1  180.0000771  2.0083200  2
   2005   2001   2002   2014     1  0.0000000  1.2552000  3
   2005   2001   2008   2011     1  180.0000771  2.0083200  2
   2005   2001   2008   2011     1  0.0000000  1.2552000  3
   2005   2017   2023   4088     1  0.0000000  0.6508444  3
   2008   2001   2002   2014     1  180.0000771  2.0083200  2
   2008   2001   2002   2014     1  0.0000000  1.2552000  3
   2008   2001   2005   2017     1  180.0000771  2.0083200  2
   2008   2001   2005   2017     1  0.0000000  1.2552000  3
   2008   2011   2020   2029     1  0.0000000  0.6508444  3
   2014   2026   4117   4108     1  180.0000771  0.4184000  2
   2014   2026   4117   4108     1  0.0000000  1.6024720  3
   2017   2023   4088   4079     1  180.0000771  0.4184000  2
   2017   2023   4088   4079     1  0.0000000  1.6024720  3
   2023   4088   4079   4070     1  180.0000771  0.4184000  2
   2023   4088   4079   4070     1  0.0000000  1.6024720  3
   2026   4117   4108   4099     1  180.0000771  0.4184000  2
   2026   4117   4108   4099     1  0.0000000  1.6024720  3
   2030   2031   2043   2055     1  0.0000000  0.6508444  3
   2030   2034   2046   2052     1  0.0000000  0.6508444  3
   2030   2037   2040   2049     1  0.0000000  0.6508444  3
   2031   2030   2034   2046     1  180.0000771  2.0083200  2
   2031   2030   2034   2046     1  0.0000000  1.2552000  3
   2031   2030   2037   2040     1  180.0000771  2.0083200  2
   2031   2030   2037   2040     1  0.0000000  1.2552000  3
   2031   2043   2055   4175     1  0.0000000  0.6508444  3
   2034   2030   2031   2043     1  180.0000771  2.0083200  2
   2034   2030   2031   2043     1  0.0000000  1.2552000  3
   2034   2030   2037   2040     1  180.0000771  2.0083200  2
   2034   2030   2037   2040     1  0.0000000  1.2552000  3
   2034   2046   2052   4146     1  0.0000000  0.6508444  3
   2037   2030   2031   2043     1  180.0000771  2.0083200  2
   2037   2030   2031   2043     1  0.0000000  1.2552000  3
   2037   2030   2034   2046     1  180.0000771  2.0083200  2
   2037   2030   2034   2046     1  0.0000000  1.2552000  3
   2037   2040   2049   2058     1  0.0000000  0.6508444  3
   2043   2055   4175   4166     1  180.0000771  0.4184000  2
   2043   2055   4175   4166     1  0.0000000  1.6024720  3
   2046   2052   4146   4137     1  180.0000771  0.4184000  2
   2046   2052   4146   4137     1  0.0000000  1.6024720  3
   2052   4146   4137   4128     1  180.0000771  0.4184000  2
   2052   4146   4137   4128     1  0.0000000  1.6024720  3
   2055   4175   4166   4157     1  180.0000771  0.4184000  2
   2055   4175   4166   4157     1  0.0000000  1.6024720  3
   2059   2060   2072   2084     1  0.0000000  0.6508444  3
   2059   2063   2075   2081     1  0.0000000  0.6508444  3
   2059   2066   2069   2078     1  0.0000000  0.6508444  3
   2060   2059   2063   2075     1  180.0000771  2.0083200  2
   2060   2059   2063   2075     1  0.0000000  1.2552000  3
   2060   2059   2066   2069     1  180.0000771  2.0083200  2
   2060   2059   2066   2069     1  0.0000000  1.2552000  3
   2060   2072   2084   4233     1  0.0000000  0.6508444  3
   2063   2059   2060   2072     1  180.0000771  2.0083200  2
   2063   2059   2060   2072     1  0.0000000  1.2552000  3
   2063   2059   2066   2069     1  180.0000771  2.0083200  2
   2063   2059   2066   2069     1  0.0000000  1.2552000  3
   2063   2075   2081   4204     1  0.0000000  0.6508444  3
   2066   2059   2060   2072     1  180.0000771  2.0083200  2
   2066   2059   2060   2072     1  0.0000000  1.2552000  3
   2066   2059   2063   2075     1  180.0000771  2.0083200  2
   2066   2059   2063   2075     1  0.0000000  1.2552000  3
   2066   2069   2078   2087     1  0.0000000  0.6508444  3
   2072   2084   4233   4224     1  180.0000771  0.4184000  2
   2072   2084   4233   4224     1  0.0000000  1.6024720  3
   2075   2081   4204   4195     1  180.0000771  0.4184000  2
   2075   2081   4204   4195     1  0.0000000  1.6024720  3
   2081   4204   4195   4186     1  180.0000771  0.4184000  2
   2081   4204   4195   4186     1  0.0000000  1.6024720  3
   2084   4233   4224   4215     1  180.0000771  0.4184000  2
   2084   4233   4224   4215     1  0.0000000  1.6024720  3
   2088   2089   2101   2113     1  0.0000000  0.6508444  3
   2088   2092   2104   2110     1  0.0000000  0.6508444  3
   2088   2095   2098   2107     1  0.0000000  0.6508444  3
   2089   2088   2092   2104     1  180.0000771  2.0083200  2
   2089   2088   2092   2104     1  0.0000000  1.2552000  3
   2089   2088   2095   2098     1  180.0000771  2.0083200  2
   2089   2088   2095   2098     1  0.0000000  1.2552000  3
   2089   2101   2113   4291     1  0.0000000  0.6508444  3
   2092   2088   2089   2101     1  180.0000771  2.0083200  2
   2092   2088   2089   2101     1  0.0000000  1.2552000  3
   2092   2088   2095   2098     1  180.0000771  2.0083200  2
   2092   2088   2095   2098     1  0.0000000  1.2552000  3
   2092   2104   2110   4262     1  0.0000000  0.6508444  3
   2095   2088   2089   2101     1  180.0000771  2.0083200  2
   2095   2088   2089   2101     1  0.0000000  1.2552000  3
   2095   2088   2092   2104     1  180.0000771  2.0083200  2
   2095   2088   2092   2104     1  0.0000000  1.2552000  3
   2095   2098   2107   2116     1  0.0000000  0.6508444  3
   2101   2113   4291   4282     1  180.0000771  0.4184000  2
   2101   2113   4291   4282     1  0.0000000  1.6024720  3
   2104   2110   4262   4253     1  180.0000771  0.4184000  2
   2104   2110   4262   4253     1  0.0000000  1.6024720  3
   2110   4262   4253   4244     1  180.0000771  0.4184000  2
   2110   4262   4253   4244     1  0.0000000  1.6024720  3
   2113   4291   4282   4273     1  180.0000771  0.4184000  2
   2113   4291   4282   4273     1  0.0000000  1.6024720  3
   2117   2118   2130   2142     1  0.0000000  0.6508444  3
   2117   2121   2133   2139     1  0.0000000  0.6508444  3
   2117   2124   2127   2136     1  0.0000000  0.6508444  3
   2118   2117   2121   2133     1  180.0000771  2.0083200  2
   2118   2117   2121   2133     1  0.0000000  1.2552000  3
   2118   2117   2124   2127     1  180.0000771  2.0083200  2
   2118   2117   2124   2127     1  0.0000000  1.2552000  3
   2118   2130   2142   4349     1  0.0000000  0.6508444  3
   2121   2117   2118   2130     1  180.0000771  2.0083200  2
   2121   2117   2118   2130     1  0.0000000  1.2552000  3
   2121   2117   2124   2127     1  180.0000771  2.0083200  2
   2121   2117   2124   2127     1  0.0000000  1.2552000  3
   2121   2133   2139   4320     1  0.0000000  0.6508444  3
   2124   2117   2118   2130     1  180.0000771  2.0083200  2
   2124   2117   2118   2130     1  0.0000000  1.2552000  3
   2124   2117   2121   2133     1  180.0000771  2.0083200  2
   2124   2117   2121   2133     1  0.0000000  1.2552000  3
   2124   2127   2136   2145     1  0.0000000  0.6508444  3
   2130   2142   4349   4340     1  180.0000771  0.4184000  2
   2130   2142   4349   4340     1  0.0000000  1.6024720  3
   2133   2139   4320   4311     1  180.0000771  0.4184000  2
   2133   2139   4320   4311     1  0.0000000  1.6024720  3
   2139   4320   4311   4302     1  180.0000771  0.4184000  2
   2139   4320   4311   4302     1  0.0000000  1.6024720  3
   2142   4349   4340   4331     1  180.0000771  0.4184000  2
   2142   4349   4340   4331     1  0.0000000  1.6024720  3
   2146   2147   2159   2171     1  0.0000000  0.6508444  3
   2146   2150   2162   2168     1  0.0000000  0.6508444  3
   2146   2153   2156   2165     1  0.0000000  0.6508444  3
   2147   2146   2150   2162     1  180.0000771  2.0083200  2
   2147   2146   2150   2162     1  0.0000000  1.2552000  3
   2147   2146   2153   2156     1  180.0000771  2.0083200  2
   2147   2146   2153   2156     1  0.0000000  1.2552000  3
   2147   2159   2171   4407     1  0.0000000  0.6508444  3
   2150   2146   2147   2159     1  180.0000771  2.0083200  2
   2150   2146   2147   2159     1  0.0000000  1.2552000  3
   2150   2146   2153   2156     1  180.0000771  2.0083200  2
   2150   2146   2153   2156     1  0.0000000  1.2552000  3
   2150   2162   2168   4378     1  0.0000000  0.6508444  3
   2153   2146   2147   2159     1  180.0000771  2.0083200  2
   2153   2146   2147   2159     1  0.0000000  1.2552000  3
   2153   2146   2150   2162     1  180.0000771  2.0083200  2
   2153   2146   2150   2162     1  0.0000000  1.2552000  3
   2153   2156   2165   2174     1  0.0000000  0.6508444  3
   2159   2171   4407   4398     1  180.0000771  0.4184000  2
   2159   2171   4407   4398     1  0.0000000  1.6024720  3
   2162   2168   4378   4369     1  180.0000771  0.4184000  2
   2162   2168   4378   4369     1  0.0000000  1.6024720  3
   2168   4378   4369   4360     1  180.0000771  0.4184000  2
   2168   4378   4369   4360     1  0.0000000  1.6024720  3
   2171   4407   4398   4389     1  180.0000771  0.4184000  2
   2171   4407   4398   4389     1  0.0000000  1.6024720  3
   2175   2176   2188   2200     1  0.0000000  0.6508444  3
   2175   2179   2191   2197     1  0.0000000  0.6508444  3
   2175   2182   2185   2194     1  0.0000000  0.6508444  3
   2176   2175   2179   2191     1  180.0000771  2.0083200  2
   2176   2175   2179   2191     1  0.0000000  1.2552000  3
   2176   2175   2182   2185     1  180.0000771  2.0083200  2
   2176   2175   2182   2185     1  0.0000000  1.2552000  3
   2176   2188   2200   4465     1  0.0000000  0.6508444  3
   2179   2175   2176   2188     1  180.0000771  2.0083200  2
   2179   2175   2176   2188     1  0.0000000  1.2552000  3
   2179   2175   2182   2185     1  180.0000771  2.0083200  2
   2179   2175   2182   2185     1  0.0000000  1.2552000  3
   2179   2191   2197   4436     1  0.0000000  0.6508444  3
   2182   2175   2176   2188     1  180.0000771  2.0083200  2
   2182   2175   2176   2188     1  0.0000000  1.2552000  3
   2182   2175   2179   2191     1  180.0000771  2.0083200  2
   2182   2175   2179   2191     1  0.0000000  1.2552000  3
   2182   2185   2194   2203     1  0.0000000  0.6508444  3
   2188   2200   4465   4456     1  180.0000771  0.4184000  2
   2188   2200   4465   4456     1  0.0000000  1.6024720  3
   2191   2197   4436   4427     1  180.0000771  0.4184000  2
   2191   2197   4436   4427     1  0.0000000  1.6024720  3
   2197   4436   4427   4418     1  180.0000771  0.4184000  2
   2197   4436   4427   4418     1  0.0000000  1.6024720  3
   2200   4465   4456   4447     1  180.0000771  0.4184000  2
   2200   4465   4456   4447     1  0.0000000  1.6024720  3
   2204   2205   2217   2229     1  0.0000000  0.6508444  3
   2204   2208   2220   2226     1  0.0000000  0.6508444  3
   2204   2211   2214   2223     1  0.0000000  0.6508444  3
   2205   2204   2208   2220     1  180.0000771  2.0083200  2
   2205   2204   2208   2220     1  0.0000000  1.2552000  3
   2205   2204   2211   2214     1  180.0000771  2.0083200  2
   2205   2204   2211   2214     1  0.0000000  1.2552000  3
   2205   2217   2229   4523     1  0.0000000  0.6508444  3
   2208   2204   2205   2217     1  180.0000771  2.0083200  2
   2208   2204   2205   2217     1  0.0000000  1.2552000  3
   2208   2204   2211   2214     1  180.0000771  2.0083200  2
   2208   2204   2211   2214     1  0.0000000  1.2552000  3
   2208   2220   2226   4494     1  0.0000000  0.6508444  3
   2211   2204   2205   2217     1  180.0000771  2.0083200  2
   2211   2204   2205   2217     1  0.0000000  1.2552000  3
   2211   2204   2208   2220     1  180.0000771  2.0083200  2
   2211   2204   2208   2220     1  0.0000000  1.2552000  3
   2211   2214   2223   2232     1  0.0000000  0.6508444  3
   2217   2229   4523   4514     1  180.0000771  0.4184000  2
   2217   2229   4523   4514     1  0.0000000  1.6024720  3
   2220   2226   4494   4485     1  180.0000771  0.4184000  2
   2220   2226   4494   4485     1  0.0000000  1.6024720  3
   2226   4494   4485   4476     1  180.0000771  0.4184000  2
   2226   4494   4485   4476     1  0.0000000  1.6024720  3
   2229   4523   4514   4505     1  180.0000771  0.4184000  2
   2229   4523   4514   4505     1  0.0000000  1.6024720  3
   2233   2234   2246   2258     1  0.0000000  0.6508444  3
   2233   2237   2249   2255     1  0.0000000  0.6508444  3
   2233   2240   2243   2252     1  0.0000000  0.6508444  3
   2234   2233   2237   2249     1  180.0000771  2.0083200  2
   2234   2233   2237   2249     1  0.0000000  1.2552000  3
   2234   2233   2240   2243     1  180.0000771  2.0083200  2
   2234   2233   2240   2243     1  0.0000000  1.2552000  3
   2234   2246   2258   4581     1  0.0000000  0.6508444  3
   2237   2233   2234   2246     1  180.0000771  2.0083200  2
   2237   2233   2234   2246     1  0.0000000  1.2552000  3
   2237   2233   2240   2243     1  180.0000771  2.0083200  2
   2237   2233   2240   2243     1  0.0000000  1.2552000  3
   2237   2249   2255   4552     1  0.0000000  0.6508444  3
   2240   2233   2234   2246     1  180.0000771  2.0083200  2
   2240   2233   2234   2246     1  0.0000000  1.2552000  3
   2240   2233   2237   2249     1  180.0000771  2.0083200  2
   2240   2233   2237   2249     1  0.0000000  1.2552000  3
   2240   2243   2252   2261     1  0.0000000  0.6508444  3
   2246   2258   4581   4572     1  180.0000771  0.4184000  2
   2246   2258   4581   4572     1  0.0000000  1.6024720  3
   2249   2255   4552   4543     1  180.0000771  0.4184000  2
   2249   2255   4552   4543     1  0.0000000  1.6024720  3
   2255   4552   4543   4534     1  180.0000771  0.4184000  2
   2255   4552   4543   4534     1  0.0000000  1.6024720  3
   2258   4581   4572   4563     1  180.0000771  0.4184000  2
   2258   4581   4572   4563     1  0.0000000  1.6024720  3
   2262   2263   2275   2287     1  0.0000000  0.6508444  3
   2262   2266   2278   2284     1  0.0000000  0.6508444  3
   2262   2269   2272   2281     1  0.0000000  0.6508444  3
   2263   2262   2266   2278     1  180.0000771  2.0083200  2
   2263   2262   2266   2278     1  0.0000000  1.2552000  3
   2263   2262   2269   2272     1  180.0000771  2.0083200  2
   2263   2262   2269   2272     1  0.0000000  1.2552000  3
   2263   2275   2287   4639     1  0.0000000  0.6508444  3
   2266   2262   2263   2275     1  180.0000771  2.0083200  2
   2266   2262   2263   2275     1  0.0000000  1.2552000  3
   2266   2262   2269   2272     1  180.0000771  2.0083200  2
   2266   2262   2269   2272     1  0.0000000  1.2552000  3
   2266   2278   2284   4610     1  0.0000000  0.6508444  3
   2269   2262   2263   2275     1  180.0000771  2.0083200  2
   2269   2262   2263   2275     1  0.0000000  1.2552000  3
   2269   2262   2266   2278     1  180.0000771  2.0083200  2
   2269   2262   2266   2278     1  0.0000000  1.2552000  3
   2269   2272   2281   2290     1  0.0000000  0.6508444  3
   2275   2287   4639   4630     1  180.0000771  0.4184000  2
   2275   2287   4639   4630     1  0.0000000  1.6024720  3
   2278   2284   4610   4601     1  180.0000771  0.4184000  2
   2278   2284   4610   4601     1  0.0000000  1.6024720  3
   2284   4610   4601   4592     1  180.0000771  0.4184000  2
   2284   4610   4601   4592     1  0.0000000  1.6024720  3
   2287   4639   4630   4621     1  180.0000771  0.4184000  2
   2287   4639   4630   4621     1  0.0000000  1.6024720  3
   2291   2292   2304   2316     1  0.0000000  0.6508444  3
   2291   2295   2307   2313     1  0.0000000  0.6508444  3
   2291   2298   2301   2310     1  0.0000000  0.6508444  3
   2292   2291   2295   2307     1  180.0000771  2.0083200  2
   2292   2291   2295   2307     1  0.0000000  1.2552000  3
   2292   2291   2298   2301     1  180.0000771  2.0083200  2
   2292   2291   2298   2301     1  0.0000000  1.2552000  3
   2292   2304   2316   4697     1  0.0000000  0.6508444  3
   2295   2291   2292   2304     1  180.0000771  2.0083200  2
   2295   2291   2292   2304     1  0.0000000  1.2552000  3
   2295   2291   2298   2301     1  180.0000771  2.0083200  2
   2295   2291   2298   2301     1  0.0000000  1.2552000  3
   2295   2307   2313   4668     1  0.0000000  0.6508444  3
   2298   2291   2292   2304     1  180.0000771  2.0083200  2
   2298   2291   2292   2304     1  0.0000000  1.2552000  3
   2298   2291   2295   2307     1  180.0000771  2.0083200  2
   2298   2291   2295   2307     1  0.0000000  1.2552000  3
   2298   2301   2310   2319     1  0.0000000  0.6508444  3
   2304   2316   4697   4688     1  180.0000771  0.4184000  2
   2304   2316   4697   4688     1  0.0000000  1.6024720  3
   2307   2313   4668   4659     1  180.0000771  0.4184000  2
   2307   2313   4668   4659     1  0.0000000  1.6024720  3
   2313   4668   4659   4650     1  180.0000771  0.4184000  2
   2313   4668   4659   4650     1  0.0000000  1.6024720  3
   2316   4697   4688   4679     1  180.0000771  0.4184000  2
   2316   4697   4688   4679     1  0.0000000  1.6024720  3
   2320   2321   2333   2345     1  0.0000000  0.6508444  3
   2320   2324   2336   2342     1  0.0000000  0.6508444  3
   2320   2327   2330   2339     1  0.0000000  0.6508444  3
   2321   2320   2324   2336     1  180.0000771  2.0083200  2
   2321   2320   2324   2336     1  0.0000000  1.2552000  3
   2321   2320   2327   2330     1  180.0000771  2.0083200  2
   2321   2320   2327   2330     1  0.0000000  1.2552000  3
   2321   2333   2345   4755     1  0.0000000  0.6508444  3
   2324   2320   2321   2333     1  180.0000771  2.0083200  2
   2324   2320   2321   2333     1  0.0000000  1.2552000  3
   2324   2320   2327   2330     1  180.0000771  2.0083200  2
   2324   2320   2327   2330     1  0.0000000  1.2552000  3
   2324   2336   2342   4726     1  0.0000000  0.6508444  3
   2327   2320   2321   2333     1  180.0000771  2.0083200  2
   2327   2320   2321   2333     1  0.0000000  1.2552000  3
   2327   2320   2324   2336     1  180.0000771  2.0083200  2
   2327   2320   2324   2336     1  0.0000000  1.2552000  3
   2327   2330   2339   2348     1  0.0000000  0.6508444  3
   2333   2345   4755   4746     1  180.0000771  0.4184000  2
   2333   2345   4755   4746     1  0.0000000  1.6024720  3
   2336   2342   4726   4717     1  180.0000771  0.4184000  2
   2336   2342   4726   4717     1  0.0000000  1.6024720  3
   2342   4726   4717   4708     1  180.0000771  0.4184000  2
   2342   4726   4717   4708     1  0.0000000  1.6024720  3
   2345   4755   4746   4737     1  180.0000771  0.4184000  2
   2345   4755   4746   4737     1  0.0000000  1.6024720  3
   2349   2350   2362   2374     1  0.0000000  0.6508444  3
   2349   2353   2365   2371     1  0.0000000  0.6508444  3
   2349   2356   2359   2368     1  0.0000000  0.6508444  3
   2350   2349   2353   2365     1  180.0000771  2.0083200  2
   2350   2349   2353   2365     1  0.0000000  1.2552000  3
   2350   2349   2356   2359     1  180.0000771  2.0083200  2
   2350   2349   2356   2359     1  0.0000000  1.2552000  3
   2350   2362   2374   4813     1  0.0000000  0.6508444  3
   2353   2349   2350   2362     1  180.0000771  2.0083200  2
   2353   2349   2350   2362     1  0.0000000  1.2552000  3
   2353   2349   2356   2359     1  180.0000771  2.0083200  2
   2353   2349   2356   2359     1  0.0000000  1.2552000  3
   2353   2365   2371   4784     1  0.0000000  0.6508444  3
   2356   2349   2350   2362     1  180.0000771  2.0083200  2
   2356   2349   2350   2362     1  0.0000000  1.2552000  3
   2356   2349   2353   2365     1  180.0000771  2.0083200  2
   2356   2349   2353   2365     1  0.0000000  1.2552000  3
   2356   2359   2368   2377     1  0.0000000  0.6508444  3
   2362   2374   4813   4804     1  180.0000771  0.4184000  2
   2362   2374   4813   4804     1  0.0000000  1.6024720  3
   2365   2371   4784   4775     1  180.0000771  0.4184000  2
   2365   2371   4784   4775     1  0.0000000  1.6024720  3
   2371   4784   4775   4766     1  180.0000771  0.4184000  2
   2371   4784   4775   4766     1  0.0000000  1.6024720  3
   2374   4813   4804   4795     1  180.0000771  0.4184000  2
   2374   4813   4804   4795     1  0.0000000  1.6024720  3
   2378   2379   2391   2403     1  0.0000000  0.6508444  3
   2378   2382   2394   2400     1  0.0000000  0.6508444  3
   2378   2385   2388   2397     1  0.0000000  0.6508444  3
   2379   2378   2382   2394     1  180.0000771  2.0083200  2
   2379   2378   2382   2394     1  0.0000000  1.2552000  3
   2379   2378   2385   2388     1  180.0000771  2.0083200  2
   2379   2378   2385   2388     1  0.0000000  1.2552000  3
   2379   2391   2403   4871     1  0.0000000  0.6508444  3
   2382   2378   2379   2391     1  180.0000771  2.0083200  2
   2382   2378   2379   2391     1  0.0000000  1.2552000  3
   2382   2378   2385   2388     1  180.0000771  2.0083200  2
   2382   2378   2385   2388     1  0.0000000  1.2552000  3
   2382   2394   2400   4842     1  0.0000000  0.6508444  3
   2385   2378   2379   2391     1  180.0000771  2.0083200  2
   2385   2378   2379   2391     1  0.0000000  1.2552000  3
   2385   2378   2382   2394     1  180.0000771  2.0083200  2
   2385   2378   2382   2394     1  0.0000000  1.2552000  3
   2385   2388   2397   2406     1  0.0000000  0.6508444  3
   2391   2403   4871   4862     1  180.0000771  0.4184000  2
   2391   2403   4871   4862     1  0.0000000  1.6024720  3
   2394   2400   4842   4833     1  180.0000771  0.4184000  2
   2394   2400   4842   4833     1  0.0000000  1.6024720  3
   2400   4842   4833   4824     1  180.0000771  0.4184000  2
   2400   4842   4833   4824     1  0.0000000  1.6024720  3
   2403   4871   4862   4853     1  180.0000771  0.4184000  2
   2403   4871   4862   4853     1  0.0000000  1.6024720  3
   2407   2408   2420   2432     1  0.0000000  0.6508444  3
   2407   2411   2423   2429     1  0.0000000  0.6508444  3
   2407   2414   2417   2426     1  0.0000000  0.6508444  3
   2408   2407   2411   2423     1  180.0000771  2.0083200  2
   2408   2407   2411   2423     1  0.0000000  1.2552000  3
   2408   2407   2414   2417     1  180.0000771  2.0083200  2
   2408   2407   2414   2417     1  0.0000000  1.2552000  3
   2408   2420   2432   4929     1  0.0000000  0.6508444  3
   2411   2407   2408   2420     1  180.0000771  2.0083200  2
   2411   2407   2408   2420     1  0.0000000  1.2552000  3
   2411   2407   2414   2417     1  180.0000771  2.0083200  2
   2411   2407   2414   2417     1  0.0000000  1.2552000  3
   2411   2423   2429   4900     1  0.0000000  0.6508444  3
   2414   2407   2408   2420     1  180.0000771  2.0083200  2
   2414   2407   2408   2420     1  0.0000000  1.2552000  3
   2414   2407   2411   2423     1  180.0000771  2.0083200  2
   2414   2407   2411   2423     1  0.0000000  1.2552000  3
   2414   2417   2426   2435     1  0.0000000  0.6508444  3
   2420   2432   4929   4920     1  180.0000771  0.4184000  2
   2420   2432   4929   4920     1  0.0000000  1.6024720  3
   2423   2429   4900   4891     1  180.0000771  0.4184000  2
   2423   2429   4900   4891     1  0.0000000  1.6024720  3
   2429   4900   4891   4882     1  180.0000771  0.4184000  2
   2429   4900   4891   4882     1  0.0000000  1.6024720  3
   2432   4929   4920   4911     1  180.0000771  0.4184000  2
   2432   4929   4920   4911     1  0.0000000  1.6024720  3
   2436   2437   2449   2461     1  0.0000000  0.6508444  3
   2436   2440   2452   2458     1  0.0000000  0.6508444  3
   2436   2443   2446   2455     1  0.0000000  0.6508444  3
   2437   2436   2440   2452     1  180.0000771  2.0083200  2
   2437   2436   2440   2452     1  0.0000000  1.2552000  3
   2437   2436   2443   2446     1  180.0000771  2.0083200  2
   2437   2436   2443   2446     1  0.0000000  1.2552000  3
   2437   2449   2461   4987     1  0.0000000  0.6508444  3
   2440   2436   2437   2449     1  180.0000771  2.0083200  2
   2440   2436   2437   2449     1  0.0000000  1.2552000  3
   2440   2436   2443   2446     1  180.0000771  2.0083200  2
   2440   2436   2443   2446     1  0.0000000  1.2552000  3
   2440   2452   2458   4958     1  0.0000000  0.6508444  3
   2443   2436   2437   2449     1  180.0000771  2.0083200  2
   2443   2436   2437   2449     1  0.0000000  1.2552000  3
   2443   2436   2440   2452     1  180.0000771  2.0083200  2
   2443   2436   2440   2452     1  0.0000000  1.2552000  3
   2443   2446   2455   2464     1  0.0000000  0.6508444  3
   2449   2461   4987   4978     1  180.0000771  0.4184000  2
   2449   2461   4987   4978     1  0.0000000  1.6024720  3
   2452   2458   4958   4949     1  180.0000771  0.4184000  2
   2452   2458   4958   4949     1  0.0000000  1.6024720  3
   2458   4958   4949   4940     1  180.0000771  0.4184000  2
   2458   4958   4949   4940     1  0.0000000  1.6024720  3
   2461   4987   4978   4969     1  180.0000771  0.4184000  2
   2461   4987   4978   4969     1  0.0000000  1.6024720  3
   2465   2466   2478   2490     1  0.0000000  0.6508444  3
   2465   2469   2481   2487     1  0.0000000  0.6508444  3
   2465   2472   2475   2484     1  0.0000000  0.6508444  3
   2466   2465   2469   2481     1  180.0000771  2.0083200  2
   2466   2465   2469   2481     1  0.0000000  1.2552000  3
   2466   2465   2472   2475     1  180.0000771  2.0083200  2
   2466   2465   2472   2475     1  0.0000000  1.2552000  3
   2466   2478   2490   5045     1  0.0000000  0.6508444  3
   2469   2465   2466   2478     1  180.0000771  2.0083200  2
   2469   2465   2466   2478     1  0.0000000  1.2552000  3
   2469   2465   2472   2475     1  180.0000771  2.0083200  2
   2469   2465   2472   2475     1  0.0000000  1.2552000  3
   2469   2481   2487   5016     1  0.0000000  0.6508444  3
   2472   2465   2466   2478     1  180.0000771  2.0083200  2
   2472   2465   2466   2478     1  0.0000000  1.2552000  3
   2472   2465   2469   2481     1  180.0000771  2.0083200  2
   2472   2465   2469   2481     1  0.0000000  1.2552000  3
   2472   2475   2484   2493     1  0.0000000  0.6508444  3
   2478   2490   5045   5036     1  180.0000771  0.4184000  2
   2478   2490   5045   5036     1  0.0000000  1.6024720  3
   2481   2487   5016   5007     1  180.0000771  0.4184000  2
   2481   2487   5016   5007     1  0.0000000  1.6024720  3
   2487   5016   5007   4998     1  180.0000771  0.4184000  2
   2487   5016   5007   4998     1  0.0000000  1.6024720  3
   2490   5045   5036   5027     1  180.0000771  0.4184000  2
   2490   5045   5036   5027     1  0.0000000  1.6024720  3
   2494   2495   2507   2519     1  0.0000000  0.6508444  3
   2494   2498   2510   2516     1  0.0000000  0.6508444  3
   2494   2501   2504   2513     1  0.0000000  0.6508444  3
   2495   2494   2498   2510     1  180.0000771  2.0083200  2
   2495   2494   2498   2510     1  0.0000000  1.2552000  3
   2495   2494   2501   2504     1  180.0000771  2.0083200  2
   2495   2494   2501   2504     1  0.0000000  1.2552000  3
   2495   2507   2519   5103     1  0.0000000  0.6508444  3
   2498   2494   2495   2507     1  180.0000771  2.0083200  2
   2498   2494   2495   2507     1  0.0000000  1.2552000  3
   2498   2494   2501   2504     1  180.0000771  2.0083200  2
   2498   2494   2501   2504     1  0.0000000  1.2552000  3
   2498   2510   2516   5074     1  0.0000000  0.6508444  3
   2501   2494   2495   2507     1  180.0000771  2.0083200  2
   2501   2494   2495   2507     1  0.0000000  1.2552000  3
   2501   2494   2498   2510     1  180.0000771  2.0083200  2
   2501   2494   2498   2510     1  0.0000000  1.2552000  3
   2501   2504   2513   2522     1  0.0000000  0.6508444  3
   2507   2519   5103   5094     1  180.0000771  0.4184000  2
   2507   2519   5103   5094     1  0.0000000  1.6024720  3
   2510   2516   5074   5065     1  180.0000771  0.4184000  2
   2510   2516   5074   5065     1  0.0000000  1.6024720  3
   2516   5074   5065   5056     1  180.0000771  0.4184000  2
   2516   5074   5065   5056     1  0.0000000  1.6024720  3
   2519   5103   5094   5085     1  180.0000771  0.4184000  2
   2519   5103   5094   5085     1  0.0000000  1.6024720  3
   2523   2524   2536   2548     1  0.0000000  0.6508444  3
   2523   2527   2539   2545     1  0.0000000  0.6508444  3
   2523   2530   2533   2542     1  0.0000000  0.6508444  3
   2524   2523   2527   2539     1  180.0000771  2.0083200  2
   2524   2523   2527   2539     1  0.0000000  1.2552000  3
   2524   2523   2530   2533     1  180.0000771  2.0083200  2
   2524   2523   2530   2533     1  0.0000000  1.2552000  3
   2524   2536   2548   5161     1  0.0000000  0.6508444  3
   2527   2523   2524   2536     1  180.0000771  2.0083200  2
   2527   2523   2524   2536     1  0.0000000  1.2552000  3
   2527   2523   2530   2533     1  180.0000771  2.0083200  2
   2527   2523   2530   2533     1  0.0000000  1.2552000  3
   2527   2539   2545   5132     1  0.0000000  0.6508444  3
   2530   2523   2524   2536     1  180.0000771  2.0083200  2
   2530   2523   2524   2536     1  0.0000000  1.2552000  3
   2530   2523   2527   2539     1  180.0000771  2.0083200  2
   2530   2523   2527   2539     1  0.0000000  1.2552000  3
   2530   2533   2542   2551     1  0.0000000  0.6508444  3
   2536   2548   5161   5152     1  180.0000771  0.4184000  2
   2536   2548   5161   5152     1  0.0000000  1.6024720  3
   2539   2545   5132   5123     1  180.0000771  0.4184000  2
   2539   2545   5132   5123     1  0.0000000  1.6024720  3
   2545   5132   5123   5114     1  180.0000771  0.4184000  2
   2545   5132   5123   5114     1  0.0000000  1.6024720  3
   2548   5161   5152   5143     1  180.0000771  0.4184000  2
   2548   5161   5152   5143     1  0.0000000  1.6024720  3
   2552   2553   2565   2577     1  0.0000000  0.6508444  3
   2552   2556   2568   2574     1  0.0000000  0.6508444  3
   2552   2559   2562   2571     1  0.0000000  0.6508444  3
   2553   2552   2556   2568     1  180.0000771  2.0083200  2
   2553   2552   2556   2568     1  0.0000000  1.2552000  3
   2553   2552   2559   2562     1  180.0000771  2.0083200  2
   2553   2552   2559   2562     1  0.0000000  1.2552000  3
   2553   2565   2577   5219     1  0.0000000  0.6508444  3
   2556   2552   2553   2565     1  180.0000771  2.0083200  2
   2556   2552   2553   2565     1  0.0000000  1.2552000  3
   2556   2552   2559   2562     1  180.0000771  2.0083200  2
   2556   2552   2559   2562     1  0.0000000  1.2552000  3
   2556   2568   2574   5190     1  0.0000000  0.6508444  3
   2559   2552   2553   2565     1  180.0000771  2.0083200  2
   2559   2552   2553   2565     1  0.0000000  1.2552000  3
   2559   2552   2556   2568     1  180.0000771  2.0083200  2
   2559   2552   2556   2568     1  0.0000000  1.2552000  3
   2559   2562   2571   2580     1  0.0000000  0.6508444  3
   2565   2577   5219   5210     1  180.0000771  0.4184000  2
   2565   2577   5219   5210     1  0.0000000  1.6024720  3
   2568   2574   5190   5181     1  180.0000771  0.4184000  2
   2568   2574   5190   5181     1  0.0000000  1.6024720  3
   2574   5190   5181   5172     1  180.0000771  0.4184000  2
   2574   5190   5181   5172     1  0.0000000  1.6024720  3
   2577   5219   5210   5201     1  180.0000771  0.4184000  2
   2577   5219   5210   5201     1  0.0000000  1.6024720  3
   2581   2582   2594   2606     1  0.0000000  0.6508444  3
   2581   2585   2597   2603     1  0.0000000  0.6508444  3
   2581   2588   2591   2600     1  0.0000000  0.6508444  3
   2582   2581   2585   2597     1  180.0000771  2.0083200  2
   2582   2581   2585   2597     1  0.0000000  1.2552000  3
   2582   2581   2588   2591     1  180.0000771  2.0083200  2
   2582   2581   2588   2591     1  0.0000000  1.2552000  3
   2582   2594   2606   5277     1  0.0000000  0.6508444  3
   2585   2581   2582   2594     1  180.0000771  2.0083200  2
   2585   2581   2582   2594     1  0.0000000  1.2552000  3
   2585   2581   2588   2591     1  180.0000771  2.0083200  2
   2585   2581   2588   2591     1  0.0000000  1.2552000  3
   2585   2597   2603   5248     1  0.0000000  0.6508444  3
   2588   2581   2582   2594     1  180.0000771  2.0083200  2
   2588   2581   2582   2594     1  0.0000000  1.2552000  3
   2588   2581   2585   2597     1  180.0000771  2.0083200  2
   2588   2581   2585   2597     1  0.0000000  1.2552000  3
   2588   2591   2600   2609     1  0.0000000  0.6508444  3
   2594   2606   5277   5268     1  180.0000771  0.4184000  2
   2594   2606   5277   5268     1  0.0000000  1.6024720  3
   2597   2603   5248   5239     1  180.0000771  0.4184000  2
   2597   2603   5248   5239     1  0.0000000  1.6024720  3
   2603   5248   5239   5230     1  180.0000771  0.4184000  2
   2603   5248   5239   5230     1  0.0000000  1.6024720  3
   2606   5277   5268   5259     1  180.0000771  0.4184000  2
   2606   5277   5268   5259     1  0.0000000  1.6024720  3
   2610   2611   2623   2635     1  0.0000000  0.6508444  3
   2610   2614   2626   2632     1  0.0000000  0.6508444  3
   2610   2617   2620   2629     1  0.0000000  0.6508444  3
   2611   2610   2614   2626     1  180.0000771  2.0083200  2
   2611   2610   2614   2626     1  0.0000000  1.2552000  3
   2611   2610   2617   2620     1  180.0000771  2.0083200  2
   2611   2610   2617   2620     1  0.0000000  1.2552000  3
   2611   2623   2635   5335     1  0.0000000  0.6508444  3
   2614   2610   2611   2623     1  180.0000771  2.0083200  2
   2614   2610   2611   2623     1  0.0000000  1.2552000  3
   2614   2610   2617   2620     1  180.0000771  2.0083200  2
   2614   2610   2617   2620     1  0.0000000  1.2552000  3
   2614   2626   2632   5306     1  0.0000000  0.6508444  3
   2617   2610   2611   2623     1  180.0000771  2.0083200  2
   2617   2610   2611   2623     1  0.0000000  1.2552000  3
   2617   2610   2614   2626     1  180.0000771  2.0083200  2
   2617   2610   2614   2626     1  0.0000000  1.2552000  3
   2617   2620   2629   2638     1  0.0000000  0.6508444  3
   2623   2635   5335   5326     1  180.0000771  0.4184000  2
   2623   2635   5335   5326     1  0.0000000  1.6024720  3
   2626   2632   5306   5297     1  180.0000771  0.4184000  2
   2626   2632   5306   5297     1  0.0000000  1.6024720  3
   2632   5306   5297   5288     1  180.0000771  0.4184000  2
   2632   5306   5297   5288     1  0.0000000  1.6024720  3
   2635   5335   5326   5317     1  180.0000771  0.4184000  2
   2635   5335   5326   5317     1  0.0000000  1.6024720  3
   2639   2640   2652   2664     1  0.0000000  0.6508444  3
   2639   2643   2655   2661     1  0.0000000  0.6508444  3
   2639   2646   2649   2658     1  0.0000000  0.6508444  3
   2640   2639   2643   2655     1  180.0000771  2.0083200  2
   2640   2639   2643   2655     1  0.0000000  1.2552000  3
   2640   2639   2646   2649     1  180.0000771  2.0083200  2
   2640   2639   2646   2649     1  0.0000000  1.2552000  3
   2640   2652   2664   5393     1  0.0000000  0.6508444  3
   2643   2639   2640   2652     1  180.0000771  2.0083200  2
   2643   2639   2640   2652     1  0.0000000  1.2552000  3
   2643   2639   2646   2649     1  180.0000771  2.0083200  2
   2643   2639   2646   2649     1  0.0000000  1.2552000  3
   2643   2655   2661   5364     1  0.0000000  0.6508444  3
   2646   2639   2640   2652     1  180.0000771  2.0083200  2
   2646   2639   2640   2652     1  0.0000000  1.2552000  3
   2646   2639   2643   2655     1  180.0000771  2.0083200  2
   2646   2639   2643   2655     1  0.0000000  1.2552000  3
   2646   2649   2658   2667     1  0.0000000  0.6508444  3
   2652   2664   5393   5384     1  180.0000771  0.4184000  2
   2652   2664   5393   5384     1  0.0000000  1.6024720  3
   2655   2661   5364   5355     1  180.0000771  0.4184000  2
   2655   2661   5364   5355     1  0.0000000  1.6024720  3
   2661   5364   5355   5346     1  180.0000771  0.4184000  2
   2661   5364   5355   5346     1  0.0000000  1.6024720  3
   2664   5393   5384   5375     1  180.0000771  0.4184000  2
   2664   5393   5384   5375     1  0.0000000  1.6024720  3
   2668   2669   2681   2693     1  0.0000000  0.6508444  3
   2668   2672   2684   2690     1  0.0000000  0.6508444  3
   2668   2675   2678   2687     1  0.0000000  0.6508444  3
   2669   2668   2672   2684     1  180.0000771  2.0083200  2
   2669   2668   2672   2684     1  0.0000000  1.2552000  3
   2669   2668   2675   2678     1  180.0000771  2.0083200  2
   2669   2668   2675   2678     1  0.0000000  1.2552000  3
   2669   2681   2693   5451     1  0.0000000  0.6508444  3
   2672   2668   2669   2681     1  180.0000771  2.0083200  2
   2672   2668   2669   2681     1  0.0000000  1.2552000  3
   2672   2668   2675   2678     1  180.0000771  2.0083200  2
   2672   2668   2675   2678     1  0.0000000  1.2552000  3
   2672   2684   2690   5422     1  0.0000000  0.6508444  3
   2675   2668   2669   2681     1  180.0000771  2.0083200  2
   2675   2668   2669   2681     1  0.0000000  1.2552000  3
   2675   2668   2672   2684     1  180.0000771  2.0083200  2
   2675   2668   2672   2684     1  0.0000000  1.2552000  3
   2675   2678   2687   2696     1  0.0000000  0.6508444  3
   2681   2693   5451   5442     1  180.0000771  0.4184000  2
   2681   2693   5451   5442     1  0.0000000  1.6024720  3
   2684   2690   5422   5413     1  180.0000771  0.4184000  2
   2684   2690   5422   5413     1  0.0000000  1.6024720  3
   2690   5422   5413   5404     1  180.0000771  0.4184000  2
   2690   5422   5413   5404     1  0.0000000  1.6024720  3
   2693   5451   5442   5433     1  180.0000771  0.4184000  2
   2693   5451   5442   5433     1  0.0000000  1.6024720  3
   2697   2698   2710   2722     1  0.0000000  0.6508444  3
   2697   2701   2713   2719     1  0.0000000  0.6508444  3
   2697   2704   2707   2716     1  0.0000000  0.6508444  3
   2698   2697   2701   2713     1  180.0000771  2.0083200  2
   2698   2697   2701   2713     1  0.0000000  1.2552000  3
   2698   2697   2704   2707     1  180.0000771  2.0083200  2
   2698   2697   2704   2707     1  0.0000000  1.2552000  3
   2698   2710   2722   5509     1  0.0000000  0.6508444  3
   2701   2697   2698   2710     1  180.0000771  2.0083200  2
   2701   2697   2698   2710     1  0.0000000  1.2552000  3
   2701   2697   2704   2707     1  180.0000771  2.0083200  2
   2701   2697   2704   2707     1  0.0000000  1.2552000  3
   2701   2713   2719   5480     1  0.0000000  0.6508444  3
   2704   2697   2698   2710     1  180.0000771  2.0083200  2
   2704   2697   2698   2710     1  0.0000000  1.2552000  3
   2704   2697   2701   2713     1  180.0000771  2.0083200  2
   2704   2697   2701   2713     1  0.0000000  1.2552000  3
   2704   2707   2716   2725     1  0.0000000  0.6508444  3
   2710   2722   5509   5500     1  180.0000771  0.4184000  2
   2710   2722   5509   5500     1  0.0000000  1.6024720  3
   2713   2719   5480   5471     1  180.0000771  0.4184000  2
   2713   2719   5480   5471     1  0.0000000  1.6024720  3
   2719   5480   5471   5462     1  180.0000771  0.4184000  2
   2719   5480   5471   5462     1  0.0000000  1.6024720  3
   2722   5509   5500   5491     1  180.0000771  0.4184000  2
   2722   5509   5500   5491     1  0.0000000  1.6024720  3
   2726   2727   2739   2751     1  0.0000000  0.6508444  3
   2726   2730   2742   2748     1  0.0000000  0.6508444  3
   2726   2733   2736   2745     1  0.0000000  0.6508444  3
   2727   2726   2730   2742     1  180.0000771  2.0083200  2
   2727   2726   2730   2742     1  0.0000000  1.2552000  3
   2727   2726   2733   2736     1  180.0000771  2.0083200  2
   2727   2726   2733   2736     1  0.0000000  1.2552000  3
   2727   2739   2751   5543     1  0.0000000  0.6508444  3
   2730   2726   2727   2739     1  180.0000771  2.0083200  2
   2730   2726   2727   2739     1  0.0000000  1.2552000  3
   2730   2726   2733   2736     1  180.0000771  2.0083200  2
   2730   2726   2733   2736     1  0.0000000  1.2552000  3
   2730   2742   2748   5520     1  0.0000000  0.6508444  3
   2733   2726   2727   2739     1  180.0000771  2.0083200  2
   2733   2726   2727   2739     1  0.0000000  1.2552000  3
   2733   2726   2730   2742     1  180.0000771  2.0083200  2
   2733   2726   2730   2742     1  0.0000000  1.2552000  3
   2733   2736   2745   2754     1  0.0000000  0.6508444  3
   2739   2751   5543   5539     1  180.0000771  0.4184000  2
   2739   2751   5543   5539     1  0.0000000  1.6024720  3
   2742   2748   5520   5516     1  180.0000771  0.4184000  2
   2742   2748   5520   5516     1  0.0000000  1.6024720  3
   2748   5520   5516   5515     1  180.0000771  0.4184000  2
   2748   5520   5516   5515     1  0.0000000  1.6024720  3
   2748   5520   5516   5532     1  180.0000771  5.6484000  1
   2748   5520   5516   5532     1  180.0000771  3.5564000  2
   2748   5520   5516   5532     1  0.0000000  0.4184000  3
   2751   5543   5539   5555     1  180.0000771  5.6484000  1
   2751   5543   5539   5555     1  180.0000771  3.5564000  2
   2751   5543   5539   5555     1  0.0000000  0.4184000  3
   2751   5543   5539   5538     1  180.0000771  0.4184000  2
   2751   5543   5539   5538     1  0.0000000  1.6024720  3
   2755   2756   2768   2780     1  0.0000000  0.6508444  3
   2755   2759   2771   2777     1  0.0000000  0.6508444  3
   2755   2762   2765   2774     1  0.0000000  0.6508444  3
   2756   2755   2759   2771     1  180.0000771  2.0083200  2
   2756   2755   2759   2771     1  0.0000000  1.2552000  3
   2756   2755   2762   2765     1  180.0000771  2.0083200  2
   2756   2755   2762   2765     1  0.0000000  1.2552000  3
   2756   2768   2780   5589     1  0.0000000  0.6508444  3
   2759   2755   2756   2768     1  180.0000771  2.0083200  2
   2759   2755   2756   2768     1  0.0000000  1.2552000  3
   2759   2755   2762   2765     1  180.0000771  2.0083200  2
   2759   2755   2762   2765     1  0.0000000  1.2552000  3
   2759   2771   2777   5566     1  0.0000000  0.6508444  3
   2762   2755   2756   2768     1  180.0000771  2.0083200  2
   2762   2755   2756   2768     1  0.0000000  1.2552000  3
   2762   2755   2759   2771     1  180.0000771  2.0083200  2
   2762   2755   2759   2771     1  0.0000000  1.2552000  3
   2762   2765   2774   2783     1  0.0000000  0.6508444  3
   2768   2780   5589   5585     1  180.0000771  0.4184000  2
   2768   2780   5589   5585     1  0.0000000  1.6024720  3
   2771   2777   5566   5562     1  180.0000771  0.4184000  2
   2771   2777   5566   5562     1  0.0000000  1.6024720  3
   2777   5566   5562   5561     1  180.0000771  0.4184000  2
   2777   5566   5562   5561     1  0.0000000  1.6024720  3
   2777   5566   5562   5578     1  180.0000771  5.6484000  1
   2777   5566   5562   5578     1  180.0000771  3.5564000  2
   2777   5566   5562   5578     1  0.0000000  0.4184000  3
   2780   5589   5585   5601     1  180.0000771  5.6484000  1
   2780   5589   5585   5601     1  180.0000771  3.5564000  2
   2780   5589   5585   5601     1  0.0000000  0.4184000  3
   2780   5589   5585   5584     1  180.0000771  0.4184000  2
   2780   5589   5585   5584     1  0.0000000  1.6024720  3
   2784   2785   2797   2809     1  0.0000000  0.6508444  3
   2784   2788   2800   2806     1  0.0000000  0.6508444  3
   2784   2791   2794   2803     1  0.0000000  0.6508444  3
   2785   2784   2788   2800     1  180.0000771  2.0083200  2
   2785   2784   2788   2800     1  0.0000000  1.2552000  3
   2785   2784   2791   2794     1  180.0000771  2.0083200  2
   2785   2784   2791   2794     1  0.0000000  1.2552000  3
   2785   2797   2809   5635     1  0.0000000  0.6508444  3
   2788   2784   2785   2797     1  180.0000771  2.0083200  2
   2788   2784   2785   2797     1  0.0000000  1.2552000  3
   2788   2784   2791   2794     1  180.0000771  2.0083200  2
   2788   2784   2791   2794     1  0.0000000  1.2552000  3
   2788   2800   2806   5612     1  0.0000000  0.6508444  3
   2791   2784   2785   2797     1  180.0000771  2.0083200  2
   2791   2784   2785   2797     1  0.0000000  1.2552000  3
   2791   2784   2788   2800     1  180.0000771  2.0083200  2
   2791   2784   2788   2800     1  0.0000000  1.2552000  3
   2791   2794   2803   2812     1  0.0000000  0.6508444  3
   2797   2809   5635   5631     1  180.0000771  0.4184000  2
   2797   2809   5635   5631     1  0.0000000  1.6024720  3
   2800   2806   5612   5608     1  180.0000771  0.4184000  2
   2800   2806   5612   5608     1  0.0000000  1.6024720  3
   2806   5612   5608   5607     1  180.0000771  0.4184000  2
   2806   5612   5608   5607     1  0.0000000  1.6024720  3
   2806   5612   5608   5624     1  180.0000771  5.6484000  1
   2806   5612   5608   5624     1  180.0000771  3.5564000  2
   2806   5612   5608   5624     1  0.0000000  0.4184000  3
   2809   5635   5631   5647     1  180.0000771  5.6484000  1
   2809   5635   5631   5647     1  180.0000771  3.5564000  2
   2809   5635   5631   5647     1  0.0000000  0.4184000  3
   2809   5635   5631   5630     1  180.0000771  0.4184000  2
   2809   5635   5631   5630     1  0.0000000  1.6024720  3
   2813   2814   2826   2838     1  0.0000000  0.6508444  3
   2813   2817   2829   2835     1  0.0000000  0.6508444  3
   2813   2820   2823   2832     1  0.0000000  0.6508444  3
   2814   2813   2817   2829     1  180.0000771  2.0083200  2
   2814   2813   2817   2829     1  0.0000000  1.2552000  3
   2814   2813   2820   2823     1  180.0000771  2.0083200  2
   2814   2813   2820   2823     1  0.0000000  1.2552000  3
   2814   2826   2838   5681     1  0.0000000  0.6508444  3
   2817   2813   2814   2826     1  180.0000771  2.0083200  2
   2817   2813   2814   2826     1  0.0000000  1.2552000  3
   2817   2813   2820   2823     1  180.0000771  2.0083200  2
   2817   2813   2820   2823     1  0.0000000  1.2552000  3
   2817   2829   2835   5658     1  0.0000000  0.6508444  3
   2820   2813   2814   2826     1  180.0000771  2.0083200  2
   2820   2813   2814   2826     1  0.0000000  1.2552000  3
   2820   2813   2817   2829     1  180.0000771  2.0083200  2
   2820   2813   2817   2829     1  0.0000000  1.2552000  3
   2820   2823   2832   2841     1  0.0000000  0.6508444  3
   2826   2838   5681   5677     1  180.0000771  0.4184000  2
   2826   2838   5681   5677     1  0.0000000  1.6024720  3
   2829   2835   5658   5654     1  180.0000771  0.4184000  2
   2829   2835   5658   5654     1  0.0000000  1.6024720  3
   2835   5658   5654   5653     1  180.0000771  0.4184000  2
   2835   5658   5654   5653     1  0.0000000  1.6024720  3
   2835   5658   5654   5670     1  180.0000771  5.6484000  1
   2835   5658   5654   5670     1  180.0000771  3.5564000  2
   2835   5658   5654   5670     1  0.0000000  0.4184000  3
   2838   5681   5677   5693     1  180.0000771  5.6484000  1
   2838   5681   5677   5693     1  180.0000771  3.5564000  2
   2838   5681   5677   5693     1  0.0000000  0.4184000  3
   2838   5681   5677   5676     1  180.0000771  0.4184000  2
   2838   5681   5677   5676     1  0.0000000  1.6024720  3
   2842   2843   2855   2867     1  0.0000000  0.6508444  3
   2842   2846   2858   2864     1  0.0000000  0.6508444  3
   2842   2849   2852   2861     1  0.0000000  0.6508444  3
   2843   2842   2846   2858     1  180.0000771  2.0083200  2
   2843   2842   2846   2858     1  0.0000000  1.2552000  3
   2843   2842   2849   2852     1  180.0000771  2.0083200  2
   2843   2842   2849   2852     1  0.0000000  1.2552000  3
   2843   2855   2867   5727     1  0.0000000  0.6508444  3
   2846   2842   2843   2855     1  180.0000771  2.0083200  2
   2846   2842   2843   2855     1  0.0000000  1.2552000  3
   2846   2842   2849   2852     1  180.0000771  2.0083200  2
   2846   2842   2849   2852     1  0.0000000  1.2552000  3
   2846   2858   2864   5704     1  0.0000000  0.6508444  3
   2849   2842   2843   2855     1  180.0000771  2.0083200  2
   2849   2842   2843   2855     1  0.0000000  1.2552000  3
   2849   2842   2846   2858     1  180.0000771  2.0083200  2
   2849   2842   2846   2858     1  0.0000000  1.2552000  3
   2849   2852   2861   2870     1  0.0000000  0.6508444  3
   2855   2867   5727   5723     1  180.0000771  0.4184000  2
   2855   2867   5727   5723     1  0.0000000  1.6024720  3
   2858   2864   5704   5700     1  180.0000771  0.4184000  2
   2858   2864   5704   5700     1  0.0000000  1.6024720  3
   2864   5704   5700   5699     1  180.0000771  0.4184000  2
   2864   5704   5700   5699     1  0.0000000  1.6024720  3
   2864   5704   5700   5716     1  180.0000771  5.6484000  1
   2864   5704   5700   5716     1  180.0000771  3.5564000  2
   2864   5704   5700   5716     1  0.0000000  0.4184000  3
   2867   5727   5723   5739     1  180.0000771  5.6484000  1
   2867   5727   5723   5739     1  180.0000771  3.5564000  2
   2867   5727   5723   5739     1  0.0000000  0.4184000  3
   2867   5727   5723   5722     1  180.0000771  0.4184000  2
   2867   5727   5723   5722     1  0.0000000  1.6024720  3
   2871   2872   2884   2896     1  0.0000000  0.6508444  3
   2871   2875   2887   2893     1  0.0000000  0.6508444  3
   2871   2878   2881   2890     1  0.0000000  0.6508444  3
   2872   2871   2875   2887     1  180.0000771  2.0083200  2
   2872   2871   2875   2887     1  0.0000000  1.2552000  3
   2872   2871   2878   2881     1  180.0000771  2.0083200  2
   2872   2871   2878   2881     1  0.0000000  1.2552000  3
   2872   2884   2896   5773     1  0.0000000  0.6508444  3
   2875   2871   2872   2884     1  180.0000771  2.0083200  2
   2875   2871   2872   2884     1  0.0000000  1.2552000  3
   2875   2871   2878   2881     1  180.0000771  2.0083200  2
   2875   2871   2878   2881     1  0.0000000  1.2552000  3
   2875   2887   2893   5750     1  0.0000000  0.6508444  3
   2878   2871   2872   2884     1  180.0000771  2.0083200  2
   2878   2871   2872   2884     1  0.0000000  1.2552000  3
   2878   2871   2875   2887     1  180.0000771  2.0083200  2
   2878   2871   2875   2887     1  0.0000000  1.2552000  3
   2878   2881   2890   2899     1  0.0000000  0.6508444  3
   2884   2896   5773   5769     1  180.0000771  0.4184000  2
   2884   2896   5773   5769     1  0.0000000  1.6024720  3
   2887   2893   5750   5746     1  180.0000771  0.4184000  2
   2887   2893   5750   5746     1  0.0000000  1.6024720  3
   2893   5750   5746   5745     1  180.0000771  0.4184000  2
   2893   5750   5746   5745     1  0.0000000  1.6024720  3
   2893   5750   5746   5762     1  180.0000771  5.6484000  1
   2893   5750   5746   5762     1  180.0000771  3.5564000  2
   2893   5750   5746   5762     1  0.0000000  0.4184000  3
   2896   5773   5769   5785     1  180.0000771  5.6484000  1
   2896   5773   5769   5785     1  180.0000771  3.5564000  2
   2896   5773   5769   5785     1  0.0000000  0.4184000  3
   2896   5773   5769   5768     1  180.0000771  0.4184000  2
   2896   5773   5769   5768     1  0.0000000  1.6024720  3
   2900   2901   2913   2925     1  0.0000000  0.6508444  3
   2900   2904   2916   2922     1  0.0000000  0.6508444  3
   2900   2907   2910   2919     1  0.0000000  0.6508444  3
   2901   2900   2904   2916     1  180.0000771  2.0083200  2
   2901   2900   2904   2916     1  0.0000000  1.2552000  3
   2901   2900   2907   2910     1  180.0000771  2.0083200  2
   2901   2900   2907   2910     1  0.0000000  1.2552000  3
   2901   2913   2925   5819     1  0.0000000  0.6508444  3
   2904   2900   2901   2913     1  180.0000771  2.0083200  2
   2904   2900   2901   2913     1  0.0000000  1.2552000  3
   2904   2900   2907   2910     1  180.0000771  2.0083200  2
   2904   2900   2907   2910     1  0.0000000  1.2552000  3
   2904   2916   2922   5796     1  0.0000000  0.6508444  3
   2907   2900   2901   2913     1  180.0000771  2.0083200  2
   2907   2900   2901   2913     1  0.0000000  1.2552000  3
   2907   2900   2904   2916     1  180.0000771  2.0083200  2
   2907   2900   2904   2916     1  0.0000000  1.2552000  3
   2907   2910   2919   2928     1  0.0000000  0.6508444  3
   2913   2925   5819   5815     1  180.0000771  0.4184000  2
   2913   2925   5819   5815     1  0.0000000  1.6024720  3
   2916   2922   5796   5792     1  180.0000771  0.4184000  2
   2916   2922   5796   5792     1  0.0000000  1.6024720  3
   2922   5796   5792   5791     1  180.0000771  0.4184000  2
   2922   5796   5792   5791     1  0.0000000  1.6024720  3
   2922   5796   5792   5808     1  180.0000771  5.6484000  1
   2922   5796   5792   5808     1  180.0000771  3.5564000  2
   2922   5796   5792   5808     1  0.0000000  0.4184000  3
   2925   5819   5815   5831     1  180.0000771  5.6484000  1
   2925   5819   5815   5831     1  180.0000771  3.5564000  2
   2925   5819   5815   5831     1  0.0000000  0.4184000  3
   2925   5819   5815   5814     1  180.0000771  0.4184000  2
   2925   5819   5815   5814     1  0.0000000  1.6024720  3
   2929   2930   2942   2954     1  0.0000000  0.6508444  3
   2929   2933   2945   2951     1  0.0000000  0.6508444  3
   2929   2936   2939   2948     1  0.0000000  0.6508444  3
   2930   2929   2933   2945     1  180.0000771  2.0083200  2
   2930   2929   2933   2945     1  0.0000000  1.2552000  3
   2930   2929   2936   2939     1  180.0000771  2.0083200  2
   2930   2929   2936   2939     1  0.0000000  1.2552000  3
   2930   2942   2954   5865     1  0.0000000  0.6508444  3
   2933   2929   2930   2942     1  180.0000771  2.0083200  2
   2933   2929   2930   2942     1  0.0000000  1.2552000  3
   2933   2929   2936   2939     1  180.0000771  2.0083200  2
   2933   2929   2936   2939     1  0.0000000  1.2552000  3
   2933   2945   2951   5842     1  0.0000000  0.6508444  3
   2936   2929   2930   2942     1  180.0000771  2.0083200  2
   2936   2929   2930   2942     1  0.0000000  1.2552000  3
   2936   2929   2933   2945     1  180.0000771  2.0083200  2
   2936   2929   2933   2945     1  0.0000000  1.2552000  3
   2936   2939   2948   2957     1  0.0000000  0.6508444  3
   2942   2954   5865   5861     1  180.0000771  0.4184000  2
   2942   2954   5865   5861     1  0.0000000  1.6024720  3
   2945   2951   5842   5838     1  180.0000771  0.4184000  2
   2945   2951   5842   5838     1  0.0000000  1.6024720  3
   2951   5842   5838   5837     1  180.0000771  0.4184000  2
   2951   5842   5838   5837     1  0.0000000  1.6024720  3
   2951   5842   5838   5854     1  180.0000771  5.6484000  1
   2951   5842   5838   5854     1  180.0000771  3.5564000  2
   2951   5842   5838   5854     1  0.0000000  0.4184000  3
   2954   5865   5861   5877     1  180.0000771  5.6484000  1
   2954   5865   5861   5877     1  180.0000771  3.5564000  2
   2954   5865   5861   5877     1  0.0000000  0.4184000  3
   2954   5865   5861   5860     1  180.0000771  0.4184000  2
   2954   5865   5861   5860     1  0.0000000  1.6024720  3
   2958   2959   2971   2983     1  0.0000000  0.6508444  3
   2958   2962   2974   2980     1  0.0000000  0.6508444  3
   2958   2965   2968   2977     1  0.0000000  0.6508444  3
   2959   2958   2962   2974     1  180.0000771  2.0083200  2
   2959   2958   2962   2974     1  0.0000000  1.2552000  3
   2959   2958   2965   2968     1  180.0000771  2.0083200  2
   2959   2958   2965   2968     1  0.0000000  1.2552000  3
   2959   2971   2983   5911     1  0.0000000  0.6508444  3
   2962   2958   2959   2971     1  180.0000771  2.0083200  2
   2962   2958   2959   2971     1  0.0000000  1.2552000  3
   2962   2958   2965   2968     1  180.0000771  2.0083200  2
   2962   2958   2965   2968     1  0.0000000  1.2552000  3
   2962   2974   2980   5888     1  0.0000000  0.6508444  3
   2965   2958   2959   2971     1  180.0000771  2.0083200  2
   2965   2958   2959   2971     1  0.0000000  1.2552000  3
   2965   2958   2962   2974     1  180.0000771  2.0083200  2
   2965   2958   2962   2974     1  0.0000000  1.2552000  3
   2965   2968   2977   2986     1  0.0000000  0.6508444  3
   2971   2983   5911   5907     1  180.0000771  0.4184000  2
   2971   2983   5911   5907     1  0.0000000  1.6024720  3
   2974   2980   5888   5884     1  180.0000771  0.4184000  2
   2974   2980   5888   5884     1  0.0000000  1.6024720  3
   2980   5888   5884   5883     1  180.0000771  0.4184000  2
   2980   5888   5884   5883     1  0.0000000  1.6024720  3
   2980   5888   5884   5900     1  180.0000771  5.6484000  1
   2980   5888   5884   5900     1  180.0000771  3.5564000  2
   2980   5888   5884   5900     1  0.0000000  0.4184000  3
   2983   5911   5907   5923     1  180.0000771  5.6484000  1
   2983   5911   5907   5923     1  180.0000771  3.5564000  2
   2983   5911   5907   5923     1  0.0000000  0.4184000  3
   2983   5911   5907   5906     1  180.0000771  0.4184000  2
   2983   5911   5907   5906     1  0.0000000  1.6024720  3
   2987   2988   3000   3012     1  0.0000000  0.6508444  3
   2987   2991   3003   3009     1  0.0000000  0.6508444  3
   2987   2994   2997   3006     1  0.0000000  0.6508444  3
   2988   2987   2991   3003     1  180.0000771  2.0083200  2
   2988   2987   2991   3003     1  0.0000000  1.2552000  3
   2988   2987   2994   2997     1  180.0000771  2.0083200  2
   2988   2987   2994   2997     1  0.0000000  1.2552000  3
   2988   3000   3012   5957     1  0.0000000  0.6508444  3
   2991   2987   2988   3000     1  180.0000771  2.0083200  2
   2991   2987   2988   3000     1  0.0000000  1.2552000  3
   2991   2987   2994   2997     1  180.0000771  2.0083200  2
   2991   2987   2994   2997     1  0.0000000  1.2552000  3
   2991   3003   3009   5934     1  0.0000000  0.6508444  3
   2994   2987   2988   3000     1  180.0000771  2.0083200  2
   2994   2987   2988   3000     1  0.0000000  1.2552000  3
   2994   2987   2991   3003     1  180.0000771  2.0083200  2
   2994   2987   2991   3003     1  0.0000000  1.2552000  3
   2994   2997   3006   3015     1  0.0000000  0.6508444  3
   3000   3012   5957   5953     1  180.0000771  0.4184000  2
   3000   3012   5957   5953     1  0.0000000  1.6024720  3
   3003   3009   5934   5930     1  180.0000771  0.4184000  2
   3003   3009   5934   5930     1  0.0000000  1.6024720  3
   3009   5934   5930   5929     1  180.0000771  0.4184000  2
   3009   5934   5930   5929     1  0.0000000  1.6024720  3
   3009   5934   5930   5946     1  180.0000771  5.6484000  1
   3009   5934   5930   5946     1  180.0000771  3.5564000  2
   3009   5934   5930   5946     1  0.0000000  0.4184000  3
   3012   5957   5953   5969     1  180.0000771  5.6484000  1
   3012   5957   5953   5969     1  180.0000771  3.5564000  2
   3012   5957   5953   5969     1  0.0000000  0.4184000  3
   3012   5957   5953   5952     1  180.0000771  0.4184000  2
   3012   5957   5953   5952     1  0.0000000  1.6024720  3
   3016   3017   3029   3041     1  0.0000000  0.6508444  3
   3016   3020   3032   3038     1  0.0000000  0.6508444  3
   3016   3023   3026   3035     1  0.0000000  0.6508444  3
   3017   3016   3020   3032     1  180.0000771  2.0083200  2
   3017   3016   3020   3032     1  0.0000000  1.2552000  3
   3017   3016   3023   3026     1  180.0000771  2.0083200  2
   3017   3016   3023   3026     1  0.0000000  1.2552000  3
   3017   3029   3041   6003     1  0.0000000  0.6508444  3
   3020   3016   3017   3029     1  180.0000771  2.0083200  2
   3020   3016   3017   3029     1  0.0000000  1.2552000  3
   3020   3016   3023   3026     1  180.0000771  2.0083200  2
   3020   3016   3023   3026     1  0.0000000  1.2552000  3
   3020   3032   3038   5980     1  0.0000000  0.6508444  3
   3023   3016   3017   3029     1  180.0000771  2.0083200  2
   3023   3016   3017   3029     1  0.0000000  1.2552000  3
   3023   3016   3020   3032     1  180.0000771  2.0083200  2
   3023   3016   3020   3032     1  0.0000000  1.2552000  3
   3023   3026   3035   3044     1  0.0000000  0.6508444  3
   3029   3041   6003   5999     1  180.0000771  0.4184000  2
   3029   3041   6003   5999     1  0.0000000  1.6024720  3
   3032   3038   5980   5976     1  180.0000771  0.4184000  2
   3032   3038   5980   5976     1  0.0000000  1.6024720  3
   3038   5980   5976   5975     1  180.0000771  0.4184000  2
   3038   5980   5976   5975     1  0.0000000  1.6024720  3
   3038   5980   5976   5992     1  180.0000771  5.6484000  1
   3038   5980   5976   5992     1  180.0000771  3.5564000  2
   3038   5980   5976   5992     1  0.0000000  0.4184000  3
   3041   6003   5999   6015     1  180.0000771  5.6484000  1
   3041   6003   5999   6015     1  180.0000771  3.5564000  2
   3041   6003   5999   6015     1  0.0000000  0.4184000  3
   3041   6003   5999   5998     1  180.0000771  0.4184000  2
   3041   6003   5999   5998     1  0.0000000  1.6024720  3
   3045   3046   3058   3070     1  0.0000000  0.6508444  3
   3045   3049   3061   3067     1  0.0000000  0.6508444  3
   3045   3052   3055   3064     1  0.0000000  0.6508444  3
   3046   3045   3049   3061     1  180.0000771  2.0083200  2
   3046   3045   3049   3061     1  0.0000000  1.2552000  3
   3046   3045   3052   3055     1  180.0000771  2.0083200  2
   3046   3045   3052   3055     1  0.0000000  1.2552000  3
   3046   3058   3070   6049     1  0.0000000  0.6508444  3
   3049   3045   3046   3058     1  180.0000771  2.0083200  2
   3049   3045   3046   3058     1  0.0000000  1.2552000  3
   3049   3045   3052   3055     1  180.0000771  2.0083200  2
   3049   3045   3052   3055     1  0.0000000  1.2552000  3
   3049   3061   3067   6026     1  0.0000000  0.6508444  3
   3052   3045   3046   3058     1  180.0000771  2.0083200  2
   3052   3045   3046   3058     1  0.0000000  1.2552000  3
   3052   3045   3049   3061     1  180.0000771  2.0083200  2
   3052   3045   3049   3061     1  0.0000000  1.2552000  3
   3052   3055   3064   3073     1  0.0000000  0.6508444  3
   3058   3070   6049   6045     1  180.0000771  0.4184000  2
   3058   3070   6049   6045     1  0.0000000  1.6024720  3
   3061   3067   6026   6022     1  180.0000771  0.4184000  2
   3061   3067   6026   6022     1  0.0000000  1.6024720  3
   3067   6026   6022   6021     1  180.0000771  0.4184000  2
   3067   6026   6022   6021     1  0.0000000  1.6024720  3
   3067   6026   6022   6038     1  180.0000771  5.6484000  1
   3067   6026   6022   6038     1  180.0000771  3.5564000  2
   3067   6026   6022   6038     1  0.0000000  0.4184000  3
   3070   6049   6045   6061     1  180.0000771  5.6484000  1
   3070   6049   6045   6061     1  180.0000771  3.5564000  2
   3070   6049   6045   6061     1  0.0000000  0.4184000  3
   3070   6049   6045   6044     1  180.0000771  0.4184000  2
   3070   6049   6045   6044     1  0.0000000  1.6024720  3
   3074   3075   3087   3099     1  0.0000000  0.6508444  3
   3074   3078   3090   3096     1  0.0000000  0.6508444  3
   3074   3081   3084   3093     1  0.0000000  0.6508444  3
   3075   3074   3078   3090     1  180.0000771  2.0083200  2
   3075   3074   3078   3090     1  0.0000000  1.2552000  3
   3075   3074   3081   3084     1  180.0000771  2.0083200  2
   3075   3074   3081   3084     1  0.0000000  1.2552000  3
   3075   3087   3099   6095     1  0.0000000  0.6508444  3
   3078   3074   3075   3087     1  180.0000771  2.0083200  2
   3078   3074   3075   3087     1  0.0000000  1.2552000  3
   3078   3074   3081   3084     1  180.0000771  2.0083200  2
   3078   3074   3081   3084     1  0.0000000  1.2552000  3
   3078   3090   3096   6072     1  0.0000000  0.6508444  3
   3081   3074   3075   3087     1  180.0000771  2.0083200  2
   3081   3074   3075   3087     1  0.0000000  1.2552000  3
   3081   3074   3078   3090     1  180.0000771  2.0083200  2
   3081   3074   3078   3090     1  0.0000000  1.2552000  3
   3081   3084   3093   3102     1  0.0000000  0.6508444  3
   3087   3099   6095   6091     1  180.0000771  0.4184000  2
   3087   3099   6095   6091     1  0.0000000  1.6024720  3
   3090   3096   6072   6068     1  180.0000771  0.4184000  2
   3090   3096   6072   6068     1  0.0000000  1.6024720  3
   3096   6072   6068   6067     1  180.0000771  0.4184000  2
   3096   6072   6068   6067     1  0.0000000  1.6024720  3
   3096   6072   6068   6084     1  180.0000771  5.6484000  1
   3096   6072   6068   6084     1  180.0000771  3.5564000  2
   3096   6072   6068   6084     1  0.0000000  0.4184000  3
   3099   6095   6091   6107     1  180.0000771  5.6484000  1
   3099   6095   6091   6107     1  180.0000771  3.5564000  2
   3099   6095   6091   6107     1  0.0000000  0.4184000  3
   3099   6095   6091   6090     1  180.0000771  0.4184000  2
   3099   6095   6091   6090     1  0.0000000  1.6024720  3
   3103   3104   3116   3128     1  0.0000000  0.6508444  3
   3103   3107   3119   3125     1  0.0000000  0.6508444  3
   3103   3110   3113   3122     1  0.0000000  0.6508444  3
   3104   3103   3107   3119     1  180.0000771  2.0083200  2
   3104   3103   3107   3119     1  0.0000000  1.2552000  3
   3104   3103   3110   3113     1  180.0000771  2.0083200  2
   3104   3103   3110   3113     1  0.0000000  1.2552000  3
   3104   3116   3128   6141     1  0.0000000  0.6508444  3
   3107   3103   3104   3116     1  180.0000771  2.0083200  2
   3107   3103   3104   3116     1  0.0000000  1.2552000  3
   3107   3103   3110   3113     1  180.0000771  2.0083200  2
   3107   3103   3110   3113     1  0.0000000  1.2552000  3
   3107   3119   3125   6118     1  0.0000000  0.6508444  3
   3110   3103   3104   3116     1  180.0000771  2.0083200  2
   3110   3103   3104   3116     1  0.0000000  1.2552000  3
   3110   3103   3107   3119     1  180.0000771  2.0083200  2
   3110   3103   3107   3119     1  0.0000000  1.2552000  3
   3110   3113   3122   3131     1  0.0000000  0.6508444  3
   3116   3128   6141   6137     1  180.0000771  0.4184000  2
   3116   3128   6141   6137     1  0.0000000  1.6024720  3
   3119   3125   6118   6114     1  180.0000771  0.4184000  2
   3119   3125   6118   6114     1  0.0000000  1.6024720  3
   3125   6118   6114   6113     1  180.0000771  0.4184000  2
   3125   6118   6114   6113     1  0.0000000  1.6024720  3
   3125   6118   6114   6130     1  180.0000771  5.6484000  1
   3125   6118   6114   6130     1  180.0000771  3.5564000  2
   3125   6118   6114   6130     1  0.0000000  0.4184000  3
   3128   6141   6137   6153     1  180.0000771  5.6484000  1
   3128   6141   6137   6153     1  180.0000771  3.5564000  2
   3128   6141   6137   6153     1  0.0000000  0.4184000  3
   3128   6141   6137   6136     1  180.0000771  0.4184000  2
   3128   6141   6137   6136     1  0.0000000  1.6024720  3
   3132   3133   3145   3157     1  0.0000000  0.6508444  3
   3132   3136   3148   3154     1  0.0000000  0.6508444  3
   3132   3139   3142   3151     1  0.0000000  0.6508444  3
   3133   3132   3136   3148     1  180.0000771  2.0083200  2
   3133   3132   3136   3148     1  0.0000000  1.2552000  3
   3133   3132   3139   3142     1  180.0000771  2.0083200  2
   3133   3132   3139   3142     1  0.0000000  1.2552000  3
   3133   3145   3157   6187     1  0.0000000  0.6508444  3
   3136   3132   3133   3145     1  180.0000771  2.0083200  2
   3136   3132   3133   3145     1  0.0000000  1.2552000  3
   3136   3132   3139   3142     1  180.0000771  2.0083200  2
   3136   3132   3139   3142     1  0.0000000  1.2552000  3
   3136   3148   3154   6164     1  0.0000000  0.6508444  3
   3139   3132   3133   3145     1  180.0000771  2.0083200  2
   3139   3132   3133   3145     1  0.0000000  1.2552000  3
   3139   3132   3136   3148     1  180.0000771  2.0083200  2
   3139   3132   3136   3148     1  0.0000000  1.2552000  3
   3139   3142   3151   3160     1  0.0000000  0.6508444  3
   3145   3157   6187   6183     1  180.0000771  0.4184000  2
   3145   3157   6187   6183     1  0.0000000  1.6024720  3
   3148   3154   6164   6160     1  180.0000771  0.4184000  2
   3148   3154   6164   6160     1  0.0000000  1.6024720  3
   3154   6164   6160   6159     1  180.0000771  0.4184000  2
   3154   6164   6160   6159     1  0.0000000  1.6024720  3
   3154   6164   6160   6176     1  180.0000771  5.6484000  1
   3154   6164   6160   6176     1  180.0000771  3.5564000  2
   3154   6164   6160   6176     1  0.0000000  0.4184000  3
   3157   6187   6183   6199     1  180.0000771  5.6484000  1
   3157   6187   6183   6199     1  180.0000771  3.5564000  2
   3157   6187   6183   6199     1  0.0000000  0.4184000  3
   3157   6187   6183   6182     1  180.0000771  0.4184000  2
   3157   6187   6183   6182     1  0.0000000  1.6024720  3
   3161   3162   3174   3186     1  0.0000000  0.6508444  3
   3161   3165   3177   3183     1  0.0000000  0.6508444  3
   3161   3168   3171   3180     1  0.0000000  0.6508444  3
   3162   3161   3165   3177     1  180.0000771  2.0083200  2
   3162   3161   3165   3177     1  0.0000000  1.2552000  3
   3162   3161   3168   3171     1  180.0000771  2.0083200  2
   3162   3161   3168   3171     1  0.0000000  1.2552000  3
   3162   3174   3186   6233     1  0.0000000  0.6508444  3
   3165   3161   3162   3174     1  180.0000771  2.0083200  2
   3165   3161   3162   3174     1  0.0000000  1.2552000  3
   3165   3161   3168   3171     1  180.0000771  2.0083200  2
   3165   3161   3168   3171     1  0.0000000  1.2552000  3
   3165   3177   3183   6210     1  0.0000000  0.6508444  3
   3168   3161   3162   3174     1  180.0000771  2.0083200  2
   3168   3161   3162   3174     1  0.0000000  1.2552000  3
   3168   3161   3165   3177     1  180.0000771  2.0083200  2
   3168   3161   3165   3177     1  0.0000000  1.2552000  3
   3168   3171   3180   3189     1  0.0000000  0.6508444  3
   3174   3186   6233   6229     1  180.0000771  0.4184000  2
   3174   3186   6233   6229     1  0.0000000  1.6024720  3
   3177   3183   6210   6206     1  180.0000771  0.4184000  2
   3177   3183   6210   6206     1  0.0000000  1.6024720  3
   3183   6210   6206   6205     1  180.0000771  0.4184000  2
   3183   6210   6206   6205     1  0.0000000  1.6024720  3
   3183   6210   6206   6222     1  180.0000771  5.6484000  1
   3183   6210   6206   6222     1  180.0000771  3.5564000  2
   3183   6210   6206   6222     1  0.0000000  0.4184000  3
   3186   6233   6229   6245     1  180.0000771  5.6484000  1
   3186   6233   6229   6245     1  180.0000771  3.5564000  2
   3186   6233   6229   6245     1  0.0000000  0.4184000  3
   3186   6233   6229   6228     1  180.0000771  0.4184000  2
   3186   6233   6229   6228     1  0.0000000  1.6024720  3
   3190   3191   3203   3215     1  0.0000000  0.6508444  3
   3190   3194   3206   3212     1  0.0000000  0.6508444  3
   3190   3197   3200   3209     1  0.0000000  0.6508444  3
   3191   3190   3194   3206     1  180.0000771  2.0083200  2
   3191   3190   3194   3206     1  0.0000000  1.2552000  3
   3191   3190   3197   3200     1  180.0000771  2.0083200  2
   3191   3190   3197   3200     1  0.0000000  1.2552000  3
   3191   3203   3215   6279     1  0.0000000  0.6508444  3
   3194   3190   3191   3203     1  180.0000771  2.0083200  2
   3194   3190   3191   3203     1  0.0000000  1.2552000  3
   3194   3190   3197   3200     1  180.0000771  2.0083200  2
   3194   3190   3197   3200     1  0.0000000  1.2552000  3
   3194   3206   3212   6256     1  0.0000000  0.6508444  3
   3197   3190   3191   3203     1  180.0000771  2.0083200  2
   3197   3190   3191   3203     1  0.0000000  1.2552000  3
   3197   3190   3194   3206     1  180.0000771  2.0083200  2
   3197   3190   3194   3206     1  0.0000000  1.2552000  3
   3197   3200   3209   3218     1  0.0000000  0.6508444  3
   3203   3215   6279   6275     1  180.0000771  0.4184000  2
   3203   3215   6279   6275     1  0.0000000  1.6024720  3
   3206   3212   6256   6252     1  180.0000771  0.4184000  2
   3206   3212   6256   6252     1  0.0000000  1.6024720  3
   3212   6256   6252   6251     1  180.0000771  0.4184000  2
   3212   6256   6252   6251     1  0.0000000  1.6024720  3
   3212   6256   6252   6268     1  180.0000771  5.6484000  1
   3212   6256   6252   6268     1  180.0000771  3.5564000  2
   3212   6256   6252   6268     1  0.0000000  0.4184000  3
   3215   6279   6275   6291     1  180.0000771  5.6484000  1
   3215   6279   6275   6291     1  180.0000771  3.5564000  2
   3215   6279   6275   6291     1  0.0000000  0.4184000  3
   3215   6279   6275   6274     1  180.0000771  0.4184000  2
   3215   6279   6275   6274     1  0.0000000  1.6024720  3
   3219   3220   3232   3244     1  0.0000000  0.6508444  3
   3219   3223   3235   3241     1  0.0000000  0.6508444  3
   3219   3226   3229   3238     1  0.0000000  0.6508444  3
   3220   3219   3223   3235     1  180.0000771  2.0083200  2
   3220   3219   3223   3235     1  0.0000000  1.2552000  3
   3220   3219   3226   3229     1  180.0000771  2.0083200  2
   3220   3219   3226   3229     1  0.0000000  1.2552000  3
   3220   3232   3244   6325     1  0.0000000  0.6508444  3
   3223   3219   3220   3232     1  180.0000771  2.0083200  2
   3223   3219   3220   3232     1  0.0000000  1.2552000  3
   3223   3219   3226   3229     1  180.0000771  2.0083200  2
   3223   3219   3226   3229     1  0.0000000  1.2552000  3
   3223   3235   3241   6302     1  0.0000000  0.6508444  3
   3226   3219   3220   3232     1  180.0000771  2.0083200  2
   3226   3219   3220   3232     1  0.0000000  1.2552000  3
   3226   3219   3223   3235     1  180.0000771  2.0083200  2
   3226   3219   3223   3235     1  0.0000000  1.2552000  3
   3226   3229   3238   3247     1  0.0000000  0.6508444  3
   3232   3244   6325   6321     1  180.0000771  0.4184000  2
   3232   3244   6325   6321     1  0.0000000  1.6024720  3
   3235   3241   6302   6298     1  180.0000771  0.4184000  2
   3235   3241   6302   6298     1  0.0000000  1.6024720  3
   3241   6302   6298   6297     1  180.0000771  0.4184000  2
   3241   6302   6298   6297     1  0.0000000  1.6024720  3
   3241   6302   6298   6314     1  180.0000771  5.6484000  1
   3241   6302   6298   6314     1  180.0000771  3.5564000  2
   3241   6302   6298   6314     1  0.0000000  0.4184000  3
   3244   6325   6321   6337     1  180.0000771  5.6484000  1
   3244   6325   6321   6337     1  180.0000771  3.5564000  2
   3244   6325   6321   6337     1  0.0000000  0.4184000  3
   3244   6325   6321   6320     1  180.0000771  0.4184000  2
   3244   6325   6321   6320     1  0.0000000  1.6024720  3
   3248   3249   3261   3273     1  0.0000000  0.6508444  3
   3248   3252   3264   3270     1  0.0000000  0.6508444  3
   3248   3255   3258   3267     1  0.0000000  0.6508444  3
   3249   3248   3252   3264     1  180.0000771  2.0083200  2
   3249   3248   3252   3264     1  0.0000000  1.2552000  3
   3249   3248   3255   3258     1  180.0000771  2.0083200  2
   3249   3248   3255   3258     1  0.0000000  1.2552000  3
   3249   3261   3273   6371     1  0.0000000  0.6508444  3
   3252   3248   3249   3261     1  180.0000771  2.0083200  2
   3252   3248   3249   3261     1  0.0000000  1.2552000  3
   3252   3248   3255   3258     1  180.0000771  2.0083200  2
   3252   3248   3255   3258     1  0.0000000  1.2552000  3
   3252   3264   3270   6348     1  0.0000000  0.6508444  3
   3255   3248   3249   3261     1  180.0000771  2.0083200  2
   3255   3248   3249   3261     1  0.0000000  1.2552000  3
   3255   3248   3252   3264     1  180.0000771  2.0083200  2
   3255   3248   3252   3264     1  0.0000000  1.2552000  3
   3255   3258   3267   3276     1  0.0000000  0.6508444  3
   3261   3273   6371   6367     1  180.0000771  0.4184000  2
   3261   3273   6371   6367     1  0.0000000  1.6024720  3
   3264   3270   6348   6344     1  180.0000771  0.4184000  2
   3264   3270   6348   6344     1  0.0000000  1.6024720  3
   3270   6348   6344   6343     1  180.0000771  0.4184000  2
   3270   6348   6344   6343     1  0.0000000  1.6024720  3
   3270   6348   6344   6360     1  180.0000771  5.6484000  1
   3270   6348   6344   6360     1  180.0000771  3.5564000  2
   3270   6348   6344   6360     1  0.0000000  0.4184000  3
   3273   6371   6367   6383     1  180.0000771  5.6484000  1
   3273   6371   6367   6383     1  180.0000771  3.5564000  2
   3273   6371   6367   6383     1  0.0000000  0.4184000  3
   3273   6371   6367   6366     1  180.0000771  0.4184000  2
   3273   6371   6367   6366     1  0.0000000  1.6024720  3
   3277   3278   3290   3302     1  0.0000000  0.6508444  3
   3277   3281   3293   3299     1  0.0000000  0.6508444  3
   3277   3284   3287   3296     1  0.0000000  0.6508444  3
   3278   3277   3281   3293     1  180.0000771  2.0083200  2
   3278   3277   3281   3293     1  0.0000000  1.2552000  3
   3278   3277   3284   3287     1  180.0000771  2.0083200  2
   3278   3277   3284   3287     1  0.0000000  1.2552000  3
   3278   3290   3302   6417     1  0.0000000  0.6508444  3
   3281   3277   3278   3290     1  180.0000771  2.0083200  2
   3281   3277   3278   3290     1  0.0000000  1.2552000  3
   3281   3277   3284   3287     1  180.0000771  2.0083200  2
   3281   3277   3284   3287     1  0.0000000  1.2552000  3
   3281   3293   3299   6394     1  0.0000000  0.6508444  3
   3284   3277   3278   3290     1  180.0000771  2.0083200  2
   3284   3277   3278   3290     1  0.0000000  1.2552000  3
   3284   3277   3281   3293     1  180.0000771  2.0083200  2
   3284   3277   3281   3293     1  0.0000000  1.2552000  3
   3284   3287   3296   3305     1  0.0000000  0.6508444  3
   3290   3302   6417   6413     1  180.0000771  0.4184000  2
   3290   3302   6417   6413     1  0.0000000  1.6024720  3
   3293   3299   6394   6390     1  180.0000771  0.4184000  2
   3293   3299   6394   6390     1  0.0000000  1.6024720  3
   3299   6394   6390   6389     1  180.0000771  0.4184000  2
   3299   6394   6390   6389     1  0.0000000  1.6024720  3
   3299   6394   6390   6406     1  180.0000771  5.6484000  1
   3299   6394   6390   6406     1  180.0000771  3.5564000  2
   3299   6394   6390   6406     1  0.0000000  0.4184000  3
   3302   6417   6413   6429     1  180.0000771  5.6484000  1
   3302   6417   6413   6429     1  180.0000771  3.5564000  2
   3302   6417   6413   6429     1  0.0000000  0.4184000  3
   3302   6417   6413   6412     1  180.0000771  0.4184000  2
   3302   6417   6413   6412     1  0.0000000  1.6024720  3
   3306   3307   3319   3331     1  0.0000000  0.6508444  3
   3306   3310   3322   3328     1  0.0000000  0.6508444  3
   3306   3313   3316   3325     1  0.0000000  0.6508444  3
   3307   3306   3310   3322     1  180.0000771  2.0083200  2
   3307   3306   3310   3322     1  0.0000000  1.2552000  3
   3307   3306   3313   3316     1  180.0000771  2.0083200  2
   3307   3306   3313   3316     1  0.0000000  1.2552000  3
   3307   3319   3331   6463     1  0.0000000  0.6508444  3
   3310   3306   3307   3319     1  180.0000771  2.0083200  2
   3310   3306   3307   3319     1  0.0000000  1.2552000  3
   3310   3306   3313   3316     1  180.0000771  2.0083200  2
   3310   3306   3313   3316     1  0.0000000  1.2552000  3
   3310   3322   3328   6440     1  0.0000000  0.6508444  3
   3313   3306   3307   3319     1  180.0000771  2.0083200  2
   3313   3306   3307   3319     1  0.0000000  1.2552000  3
   3313   3306   3310   3322     1  180.0000771  2.0083200  2
   3313   3306   3310   3322     1  0.0000000  1.2552000  3
   3313   3316   3325   3334     1  0.0000000  0.6508444  3
   3319   3331   6463   6459     1  180.0000771  0.4184000  2
   3319   3331   6463   6459     1  0.0000000  1.6024720  3
   3322   3328   6440   6436     1  180.0000771  0.4184000  2
   3322   3328   6440   6436     1  0.0000000  1.6024720  3
   3328   6440   6436   6435     1  180.0000771  0.4184000  2
   3328   6440   6436   6435     1  0.0000000  1.6024720  3
   3328   6440   6436   6452     1  180.0000771  5.6484000  1
   3328   6440   6436   6452     1  180.0000771  3.5564000  2
   3328   6440   6436   6452     1  0.0000000  0.4184000  3
   3331   6463   6459   6475     1  180.0000771  5.6484000  1
   3331   6463   6459   6475     1  180.0000771  3.5564000  2
   3331   6463   6459   6475     1  0.0000000  0.4184000  3
   3331   6463   6459   6458     1  180.0000771  0.4184000  2
   3331   6463   6459   6458     1  0.0000000  1.6024720  3
   3335   3336   3348   3360     1  0.0000000  0.6508444  3
   3335   3339   3351   3357     1  0.0000000  0.6508444  3
   3335   3342   3345   3354     1  0.0000000  0.6508444  3
   3336   3335   3339   3351     1  180.0000771  2.0083200  2
   3336   3335   3339   3351     1  0.0000000  1.2552000  3
   3336   3335   3342   3345     1  180.0000771  2.0083200  2
   3336   3335   3342   3345     1  0.0000000  1.2552000  3
   3336   3348   3360   6509     1  0.0000000  0.6508444  3
   3339   3335   3336   3348     1  180.0000771  2.0083200  2
   3339   3335   3336   3348     1  0.0000000  1.2552000  3
   3339   3335   3342   3345     1  180.0000771  2.0083200  2
   3339   3335   3342   3345     1  0.0000000  1.2552000  3
   3339   3351   3357   6486     1  0.0000000  0.6508444  3
   3342   3335   3336   3348     1  180.0000771  2.0083200  2
   3342   3335   3336   3348     1  0.0000000  1.2552000  3
   3342   3335   3339   3351     1  180.0000771  2.0083200  2
   3342   3335   3339   3351     1  0.0000000  1.2552000  3
   3342   3345   3354   3363     1  0.0000000  0.6508444  3
   3348   3360   6509   6505     1  180.0000771  0.4184000  2
   3348   3360   6509   6505     1  0.0000000  1.6024720  3
   3351   3357   6486   6482     1  180.0000771  0.4184000  2
   3351   3357   6486   6482     1  0.0000000  1.6024720  3
   3357   6486   6482   6481     1  180.0000771  0.4184000  2
   3357   6486   6482   6481     1  0.0000000  1.6024720  3
   3357   6486   6482   6498     1  180.0000771  5.6484000  1
   3357   6486   6482   6498     1  180.0000771  3.5564000  2
   3357   6486   6482   6498     1  0.0000000  0.4184000  3
   3360   6509   6505   6521     1  180.0000771  5.6484000  1
   3360   6509   6505   6521     1  180.0000771  3.5564000  2
   3360   6509   6505   6521     1  0.0000000  0.4184000  3
   3360   6509   6505   6504     1  180.0000771  0.4184000  2
   3360   6509   6505   6504     1  0.0000000  1.6024720  3
   3364   3365   3377   3389     1  0.0000000  0.6508444  3
   3364   3368   3380   3386     1  0.0000000  0.6508444  3
   3364   3371   3374   3383     1  0.0000000  0.6508444  3
   3365   3364   3368   3380     1  180.0000771  2.0083200  2
   3365   3364   3368   3380     1  0.0000000  1.2552000  3
   3365   3364   3371   3374     1  180.0000771  2.0083200  2
   3365   3364   3371   3374     1  0.0000000  1.2552000  3
   3365   3377   3389   6555     1  0.0000000  0.6508444  3
   3368   3364   3365   3377     1  180.0000771  2.0083200  2
   3368   3364   3365   3377     1  0.0000000  1.2552000  3
   3368   3364   3371   3374     1  180.0000771  2.0083200  2
   3368   3364   3371   3374     1  0.0000000  1.2552000  3
   3368   3380   3386   6532     1  0.0000000  0.6508444  3
   3371   3364   3365   3377     1  180.0000771  2.0083200  2
   3371   3364   3365   3377     1  0.0000000  1.2552000  3
   3371   3364   3368   3380     1  180.0000771  2.0083200  2
   3371   3364   3368   3380     1  0.0000000  1.2552000  3
   3371   3374   3383   3392     1  0.0000000  0.6508444  3
   3377   3389   6555   6551     1  180.0000771  0.4184000  2
   3377   3389   6555   6551     1  0.0000000  1.6024720  3
   3380   3386   6532   6528     1  180.0000771  0.4184000  2
   3380   3386   6532   6528     1  0.0000000  1.6024720  3
   3386   6532   6528   6527     1  180.0000771  0.4184000  2
   3386   6532   6528   6527     1  0.0000000  1.6024720  3
   3386   6532   6528   6544     1  180.0000771  5.6484000  1
   3386   6532   6528   6544     1  180.0000771  3.5564000  2
   3386   6532   6528   6544     1  0.0000000  0.4184000  3
   3389   6555   6551   6567     1  180.0000771  5.6484000  1
   3389   6555   6551   6567     1  180.0000771  3.5564000  2
   3389   6555   6551   6567     1  0.0000000  0.4184000  3
   3389   6555   6551   6550     1  180.0000771  0.4184000  2
   3389   6555   6551   6550     1  0.0000000  1.6024720  3
   3393   3394   3406   3418     1  0.0000000  0.6508444  3
   3393   3397   3409   3415     1  0.0000000  0.6508444  3
   3393   3400   3403   3412     1  0.0000000  0.6508444  3
   3394   3393   3397   3409     1  180.0000771  2.0083200  2
   3394   3393   3397   3409     1  0.0000000  1.2552000  3
   3394   3393   3400   3403     1  180.0000771  2.0083200  2
   3394   3393   3400   3403     1  0.0000000  1.2552000  3
   3394   3406   3418   6601     1  0.0000000  0.6508444  3
   3397   3393   3394   3406     1  180.0000771  2.0083200  2
   3397   3393   3394   3406     1  0.0000000  1.2552000  3
   3397   3393   3400   3403     1  180.0000771  2.0083200  2
   3397   3393   3400   3403     1  0.0000000  1.2552000  3
   3397   3409   3415   6578     1  0.0000000  0.6508444  3
   3400   3393   3394   3406     1  180.0000771  2.0083200  2
   3400   3393   3394   3406     1  0.0000000  1.2552000  3
   3400   3393   3397   3409     1  180.0000771  2.0083200  2
   3400   3393   3397   3409     1  0.0000000  1.2552000  3
   3400   3403   3412   3421     1  0.0000000  0.6508444  3
   3406   3418   6601   6597     1  180.0000771  0.4184000  2
   3406   3418   6601   6597     1  0.0000000  1.6024720  3
   3409   3415   6578   6574     1  180.0000771  0.4184000  2
   3409   3415   6578   6574     1  0.0000000  1.6024720  3
   3415   6578   6574   6573     1  180.0000771  0.4184000  2
   3415   6578   6574   6573     1  0.0000000  1.6024720  3
   3415   6578   6574   6590     1  180.0000771  5.6484000  1
   3415   6578   6574   6590     1  180.0000771  3.5564000  2
   3415   6578   6574   6590     1  0.0000000  0.4184000  3
   3418   6601   6597   6613     1  180.0000771  5.6484000  1
   3418   6601   6597   6613     1  180.0000771  3.5564000  2
   3418   6601   6597   6613     1  0.0000000  0.4184000  3
   3418   6601   6597   6596     1  180.0000771  0.4184000  2
   3418   6601   6597   6596     1  0.0000000  1.6024720  3
   3422   3423   3435   3447     1  0.0000000  0.6508444  3
   3422   3426   3438   3444     1  0.0000000  0.6508444  3
   3422   3429   3432   3441     1  0.0000000  0.6508444  3
   3423   3422   3426   3438     1  180.0000771  2.0083200  2
   3423   3422   3426   3438     1  0.0000000  1.2552000  3
   3423   3422   3429   3432     1  180.0000771  2.0083200  2
   3423   3422   3429   3432     1  0.0000000  1.2552000  3
   3423   3435   3447   6647     1  0.0000000  0.6508444  3
   3426   3422   3423   3435     1  180.0000771  2.0083200  2
   3426   3422   3423   3435     1  0.0000000  1.2552000  3
   3426   3422   3429   3432     1  180.0000771  2.0083200  2
   3426   3422   3429   3432     1  0.0000000  1.2552000  3
   3426   3438   3444   6624     1  0.0000000  0.6508444  3
   3429   3422   3423   3435     1  180.0000771  2.0083200  2
   3429   3422   3423   3435     1  0.0000000  1.2552000  3
   3429   3422   3426   3438     1  180.0000771  2.0083200  2
   3429   3422   3426   3438     1  0.0000000  1.2552000  3
   3429   3432   3441   3450     1  0.0000000  0.6508444  3
   3435   3447   6647   6643     1  180.0000771  0.4184000  2
   3435   3447   6647   6643     1  0.0000000  1.6024720  3
   3438   3444   6624   6620     1  180.0000771  0.4184000  2
   3438   3444   6624   6620     1  0.0000000  1.6024720  3
   3444   6624   6620   6619     1  180.0000771  0.4184000  2
   3444   6624   6620   6619     1  0.0000000  1.6024720  3
   3444   6624   6620   6636     1  180.0000771  5.6484000  1
   3444   6624   6620   6636     1  180.0000771  3.5564000  2
   3444   6624   6620   6636     1  0.0000000  0.4184000  3
   3447   6647   6643   6659     1  180.0000771  5.6484000  1
   3447   6647   6643   6659     1  180.0000771  3.5564000  2
   3447   6647   6643   6659     1  0.0000000  0.4184000  3
   3447   6647   6643   6642     1  180.0000771  0.4184000  2
   3447   6647   6643   6642     1  0.0000000  1.6024720  3
   3451   3452   3464   3476     1  0.0000000  0.6508444  3
   3451   3455   3467   3473     1  0.0000000  0.6508444  3
   3451   3458   3461   3470     1  0.0000000  0.6508444  3
   3452   3451   3455   3467     1  180.0000771  2.0083200  2
   3452   3451   3455   3467     1  0.0000000  1.2552000  3
   3452   3451   3458   3461     1  180.0000771  2.0083200  2
   3452   3451   3458   3461     1  0.0000000  1.2552000  3
   3452   3464   3476   6693     1  0.0000000  0.6508444  3
   3455   3451   3452   3464     1  180.0000771  2.0083200  2
   3455   3451   3452   3464     1  0.0000000  1.2552000  3
   3455   3451   3458   3461     1  180.0000771  2.0083200  2
   3455   3451   3458   3461     1  0.0000000  1.2552000  3
   3455   3467   3473   6670     1  0.0000000  0.6508444  3
   3458   3451   3452   3464     1  180.0000771  2.0083200  2
   3458   3451   3452   3464     1  0.0000000  1.2552000  3
   3458   3451   3455   3467     1  180.0000771  2.0083200  2
   3458   3451   3455   3467     1  0.0000000  1.2552000  3
   3458   3461   3470   3479     1  0.0000000  0.6508444  3
   3464   3476   6693   6689     1  180.0000771  0.4184000  2
   3464   3476   6693   6689     1  0.0000000  1.6024720  3
   3467   3473   6670   6666     1  180.0000771  0.4184000  2
   3467   3473   6670   6666     1  0.0000000  1.6024720  3
   3473   6670   6666   6665     1  180.0000771  0.4184000  2
   3473   6670   6666   6665     1  0.0000000  1.6024720  3
   3473   6670   6666   6682     1  180.0000771  5.6484000  1
   3473   6670   6666   6682     1  180.0000771  3.5564000  2
   3473   6670   6666   6682     1  0.0000000  0.4184000  3
   3476   6693   6689   6705     1  180.0000771  5.6484000  1
   3476   6693   6689   6705     1  180.0000771  3.5564000  2
   3476   6693   6689   6705     1  0.0000000  0.4184000  3
   3476   6693   6689   6688     1  180.0000771  0.4184000  2
   3476   6693   6689   6688     1  0.0000000  1.6024720  3
   3480   3481   3493   3505     1  0.0000000  0.6508444  3
   3480   3484   3496   3502     1  0.0000000  0.6508444  3
   3480   3487   3490   3499     1  0.0000000  0.6508444  3
   3481   3480   3484   3496     1  180.0000771  2.0083200  2
   3481   3480   3484   3496     1  0.0000000  1.2552000  3
   3481   3480   3487   3490     1  180.0000771  2.0083200  2
   3481   3480   3487   3490     1  0.0000000  1.2552000  3
   3481   3493   3505   6739     1  0.0000000  0.6508444  3
   3484   3480   3481   3493     1  180.0000771  2.0083200  2
   3484   3480   3481   3493     1  0.0000000  1.2552000  3
   3484   3480   3487   3490     1  180.0000771  2.0083200  2
   3484   3480   3487   3490     1  0.0000000  1.2552000  3
   3484   3496   3502   6716     1  0.0000000  0.6508444  3
   3487   3480   3481   3493     1  180.0000771  2.0083200  2
   3487   3480   3481   3493     1  0.0000000  1.2552000  3
   3487   3480   3484   3496     1  180.0000771  2.0083200  2
   3487   3480   3484   3496     1  0.0000000  1.2552000  3
   3487   3490   3499   3508     1  0.0000000  0.6508444  3
   3493   3505   6739   6735     1  180.0000771  0.4184000  2
   3493   3505   6739   6735     1  0.0000000  1.6024720  3
   3496   3502   6716   6712     1  180.0000771  0.4184000  2
   3496   3502   6716   6712     1  0.0000000  1.6024720  3
   3502   6716   6712   6711     1  180.0000771  0.4184000  2
   3502   6716   6712   6711     1  0.0000000  1.6024720  3
   3502   6716   6712   6728     1  180.0000771  5.6484000  1
   3502   6716   6712   6728     1  180.0000771  3.5564000  2
   3502   6716   6712   6728     1  0.0000000  0.4184000  3
   3505   6739   6735   6751     1  180.0000771  5.6484000  1
   3505   6739   6735   6751     1  180.0000771  3.5564000  2
   3505   6739   6735   6751     1  0.0000000  0.4184000  3
   3505   6739   6735   6734     1  180.0000771  0.4184000  2
   3505   6739   6735   6734     1  0.0000000  1.6024720  3
   3509   3510   3522   3534     1  0.0000000  0.6508444  3
   3509   3513   3525   3531     1  0.0000000  0.6508444  3
   3509   3516   3519   3528     1  0.0000000  0.6508444  3
   3510   3509   3513   3525     1  180.0000771  2.0083200  2
   3510   3509   3513   3525     1  0.0000000  1.2552000  3
   3510   3509   3516   3519     1  180.0000771  2.0083200  2
   3510   3509   3516   3519     1  0.0000000  1.2552000  3
   3510   3522   3534   6785     1  0.0000000  0.6508444  3
   3513   3509   3510   3522     1  180.0000771  2.0083200  2
   3513   3509   3510   3522     1  0.0000000  1.2552000  3
   3513   3509   3516   3519     1  180.0000771  2.0083200  2
   3513   3509   3516   3519     1  0.0000000  1.2552000  3
   3513   3525   3531   6762     1  0.0000000  0.6508444  3
   3516   3509   3510   3522     1  180.0000771  2.0083200  2
   3516   3509   3510   3522     1  0.0000000  1.2552000  3
   3516   3509   3513   3525     1  180.0000771  2.0083200  2
   3516   3509   3513   3525     1  0.0000000  1.2552000  3
   3516   3519   3528   3537     1  0.0000000  0.6508444  3
   3522   3534   6785   6781     1  180.0000771  0.4184000  2
   3522   3534   6785   6781     1  0.0000000  1.6024720  3
   3525   3531   6762   6758     1  180.0000771  0.4184000  2
   3525   3531   6762   6758     1  0.0000000  1.6024720  3
   3531   6762   6758   6757     1  180.0000771  0.4184000  2
   3531   6762   6758   6757     1  0.0000000  1.6024720  3
   3531   6762   6758   6774     1  180.0000771  5.6484000  1
   3531   6762   6758   6774     1  180.0000771  3.5564000  2
   3531   6762   6758   6774     1  0.0000000  0.4184000  3
   3534   6785   6781   6797     1  180.0000771  5.6484000  1
   3534   6785   6781   6797     1  180.0000771  3.5564000  2
   3534   6785   6781   6797     1  0.0000000  0.4184000  3
   3534   6785   6781   6780     1  180.0000771  0.4184000  2
   3534   6785   6781   6780     1  0.0000000  1.6024720  3
   3538   3539   3551   3563     1  0.0000000  0.6508444  3
   3538   3542   3554   3560     1  0.0000000  0.6508444  3
   3538   3545   3548   3557     1  0.0000000  0.6508444  3
   3539   3538   3542   3554     1  180.0000771  2.0083200  2
   3539   3538   3542   3554     1  0.0000000  1.2552000  3
   3539   3538   3545   3548     1  180.0000771  2.0083200  2
   3539   3538   3545   3548     1  0.0000000  1.2552000  3
   3539   3551   3563   6831     1  0.0000000  0.6508444  3
   3542   3538   3539   3551     1  180.0000771  2.0083200  2
   3542   3538   3539   3551     1  0.0000000  1.2552000  3
   3542   3538   3545   3548     1  180.0000771  2.0083200  2
   3542   3538   3545   3548     1  0.0000000  1.2552000  3
   3542   3554   3560   6808     1  0.0000000  0.6508444  3
   3545   3538   3539   3551     1  180.0000771  2.0083200  2
   3545   3538   3539   3551     1  0.0000000  1.2552000  3
   3545   3538   3542   3554     1  180.0000771  2.0083200  2
   3545   3538   3542   3554     1  0.0000000  1.2552000  3
   3545   3548   3557   3566     1  0.0000000  0.6508444  3
   3551   3563   6831   6827     1  180.0000771  0.4184000  2
   3551   3563   6831   6827     1  0.0000000  1.6024720  3
   3554   3560   6808   6804     1  180.0000771  0.4184000  2
   3554   3560   6808   6804     1  0.0000000  1.6024720  3
   3560   6808   6804   6803     1  180.0000771  0.4184000  2
   3560   6808   6804   6803     1  0.0000000  1.6024720  3
   3560   6808   6804   6820     1  180.0000771  5.6484000  1
   3560   6808   6804   6820     1  180.0000771  3.5564000  2
   3560   6808   6804   6820     1  0.0000000  0.4184000  3
   3563   6831   6827   6843     1  180.0000771  5.6484000  1
   3563   6831   6827   6843     1  180.0000771  3.5564000  2
   3563   6831   6827   6843     1  0.0000000  0.4184000  3
   3563   6831   6827   6826     1  180.0000771  0.4184000  2
   3563   6831   6827   6826     1  0.0000000  1.6024720  3
   3567   3568   3580   3592     1  0.0000000  0.6508444  3
   3567   3571   3583   3589     1  0.0000000  0.6508444  3
   3567   3574   3577   3586     1  0.0000000  0.6508444  3
   3568   3567   3571   3583     1  180.0000771  2.0083200  2
   3568   3567   3571   3583     1  0.0000000  1.2552000  3
   3568   3567   3574   3577     1  180.0000771  2.0083200  2
   3568   3567   3574   3577     1  0.0000000  1.2552000  3
   3568   3580   3592   6877     1  0.0000000  0.6508444  3
   3571   3567   3568   3580     1  180.0000771  2.0083200  2
   3571   3567   3568   3580     1  0.0000000  1.2552000  3
   3571   3567   3574   3577     1  180.0000771  2.0083200  2
   3571   3567   3574   3577     1  0.0000000  1.2552000  3
   3571   3583   3589   6854     1  0.0000000  0.6508444  3
   3574   3567   3568   3580     1  180.0000771  2.0083200  2
   3574   3567   3568   3580     1  0.0000000  1.2552000  3
   3574   3567   3571   3583     1  180.0000771  2.0083200  2
   3574   3567   3571   3583     1  0.0000000  1.2552000  3
   3574   3577   3586   3595     1  0.0000000  0.6508444  3
   3580   3592   6877   6873     1  180.0000771  0.4184000  2
   3580   3592   6877   6873     1  0.0000000  1.6024720  3
   3583   3589   6854   6850     1  180.0000771  0.4184000  2
   3583   3589   6854   6850     1  0.0000000  1.6024720  3
   3589   6854   6850   6849     1  180.0000771  0.4184000  2
   3589   6854   6850   6849     1  0.0000000  1.6024720  3
   3589   6854   6850   6866     1  180.0000771  5.6484000  1
   3589   6854   6850   6866     1  180.0000771  3.5564000  2
   3589   6854   6850   6866     1  0.0000000  0.4184000  3
   3592   6877   6873   6889     1  180.0000771  5.6484000  1
   3592   6877   6873   6889     1  180.0000771  3.5564000  2
   3592   6877   6873   6889     1  0.0000000  0.4184000  3
   3592   6877   6873   6872     1  180.0000771  0.4184000  2
   3592   6877   6873   6872     1  0.0000000  1.6024720  3
   3596   3597   3609   3621     1  0.0000000  0.6508444  3
   3596   3600   3612   3618     1  0.0000000  0.6508444  3
   3596   3603   3606   3615     1  0.0000000  0.6508444  3
   3597   3596   3600   3612     1  180.0000771  2.0083200  2
   3597   3596   3600   3612     1  0.0000000  1.2552000  3
   3597   3596   3603   3606     1  180.0000771  2.0083200  2
   3597   3596   3603   3606     1  0.0000000  1.2552000  3
   3597   3609   3621   6923     1  0.0000000  0.6508444  3
   3600   3596   3597   3609     1  180.0000771  2.0083200  2
   3600   3596   3597   3609     1  0.0000000  1.2552000  3
   3600   3596   3603   3606     1  180.0000771  2.0083200  2
   3600   3596   3603   3606     1  0.0000000  1.2552000  3
   3600   3612   3618   6900     1  0.0000000  0.6508444  3
   3603   3596   3597   3609     1  180.0000771  2.0083200  2
   3603   3596   3597   3609     1  0.0000000  1.2552000  3
   3603   3596   3600   3612     1  180.0000771  2.0083200  2
   3603   3596   3600   3612     1  0.0000000  1.2552000  3
   3603   3606   3615   3624     1  0.0000000  0.6508444  3
   3609   3621   6923   6919     1  180.0000771  0.4184000  2
   3609   3621   6923   6919     1  0.0000000  1.6024720  3
   3612   3618   6900   6896     1  180.0000771  0.4184000  2
   3612   3618   6900   6896     1  0.0000000  1.6024720  3
   3618   6900   6896   6895     1  180.0000771  0.4184000  2
   3618   6900   6896   6895     1  0.0000000  1.6024720  3
   3618   6900   6896   6912     1  180.0000771  5.6484000  1
   3618   6900   6896   6912     1  180.0000771  3.5564000  2
   3618   6900   6896   6912     1  0.0000000  0.4184000  3
   3621   6923   6919   6935     1  180.0000771  5.6484000  1
   3621   6923   6919   6935     1  180.0000771  3.5564000  2
   3621   6923   6919   6935     1  0.0000000  0.4184000  3
   3621   6923   6919   6918     1  180.0000771  0.4184000  2
   3621   6923   6919   6918     1  0.0000000  1.6024720  3
   3625   3626   3638   3650     1  0.0000000  0.6508444  3
   3625   3629   3641   3647     1  0.0000000  0.6508444  3
   3625   3632   3635   3644     1  0.0000000  0.6508444  3
   3626   3625   3629   3641     1  180.0000771  2.0083200  2
   3626   3625   3629   3641     1  0.0000000  1.2552000  3
   3626   3625   3632   3635     1  180.0000771  2.0083200  2
   3626   3625   3632   3635     1  0.0000000  1.2552000  3
   3626   3638   3650   6969     1  0.0000000  0.6508444  3
   3629   3625   3626   3638     1  180.0000771  2.0083200  2
   3629   3625   3626   3638     1  0.0000000  1.2552000  3
   3629   3625   3632   3635     1  180.0000771  2.0083200  2
   3629   3625   3632   3635     1  0.0000000  1.2552000  3
   3629   3641   3647   6946     1  0.0000000  0.6508444  3
   3632   3625   3626   3638     1  180.0000771  2.0083200  2
   3632   3625   3626   3638     1  0.0000000  1.2552000  3
   3632   3625   3629   3641     1  180.0000771  2.0083200  2
   3632   3625   3629   3641     1  0.0000000  1.2552000  3
   3632   3635   3644   3653     1  0.0000000  0.6508444  3
   3638   3650   6969   6965     1  180.0000771  0.4184000  2
   3638   3650   6969   6965     1  0.0000000  1.6024720  3
   3641   3647   6946   6942     1  180.0000771  0.4184000  2
   3641   3647   6946   6942     1  0.0000000  1.6024720  3
   3647   6946   6942   6941     1  180.0000771  0.4184000  2
   3647   6946   6942   6941     1  0.0000000  1.6024720  3
   3647   6946   6942   6958     1  180.0000771  5.6484000  1
   3647   6946   6942   6958     1  180.0000771  3.5564000  2
   3647   6946   6942   6958     1  0.0000000  0.4184000  3
   3650   6969   6965   6981     1  180.0000771  5.6484000  1
   3650   6969   6965   6981     1  180.0000771  3.5564000  2
   3650   6969   6965   6981     1  0.0000000  0.4184000  3
   3650   6969   6965   6964     1  180.0000771  0.4184000  2
   3650   6969   6965   6964     1  0.0000000  1.6024720  3
   3654   3655   3667   3679     1  0.0000000  0.6508444  3
   3654   3658   3670   3676     1  0.0000000  0.6508444  3
   3654   3661   3664   3673     1  0.0000000  0.6508444  3
   3655   3654   3658   3670     1  180.0000771  2.0083200  2
   3655   3654   3658   3670     1  0.0000000  1.2552000  3
   3655   3654   3661   3664     1  180.0000771  2.0083200  2
   3655   3654   3661   3664     1  0.0000000  1.2552000  3
   3655   3667   3679   7015     1  0.0000000  0.6508444  3
   3658   3654   3655   3667     1  180.0000771  2.0083200  2
   3658   3654   3655   3667     1  0.0000000  1.2552000  3
   3658   3654   3661   3664     1  180.0000771  2.0083200  2
   3658   3654   3661   3664     1  0.0000000  1.2552000  3
   3658   3670   3676   6992     1  0.0000000  0.6508444  3
   3661   3654   3655   3667     1  180.0000771  2.0083200  2
   3661   3654   3655   3667     1  0.0000000  1.2552000  3
   3661   3654   3658   3670     1  180.0000771  2.0083200  2
   3661   3654   3658   3670     1  0.0000000  1.2552000  3
   3661   3664   3673   3682     1  0.0000000  0.6508444  3
   3667   3679   7015   7011     1  180.0000771  0.4184000  2
   3667   3679   7015   7011     1  0.0000000  1.6024720  3
   3670   3676   6992   6988     1  180.0000771  0.4184000  2
   3670   3676   6992   6988     1  0.0000000  1.6024720  3
   3676   6992   6988   6987     1  180.0000771  0.4184000  2
   3676   6992   6988   6987     1  0.0000000  1.6024720  3
   3676   6992   6988   7004     1  180.0000771  5.6484000  1
   3676   6992   6988   7004     1  180.0000771  3.5564000  2
   3676   6992   6988   7004     1  0.0000000  0.4184000  3
   3679   7015   7011   7027     1  180.0000771  5.6484000  1
   3679   7015   7011   7027     1  180.0000771  3.5564000  2
   3679   7015   7011   7027     1  0.0000000  0.4184000  3
   3679   7015   7011   7010     1  180.0000771  0.4184000  2
   3679   7015   7011   7010     1  0.0000000  1.6024720  3
   3683   3684   3696   3708     1  0.0000000  0.6508444  3
   3683   3687   3699   3705     1  0.0000000  0.6508444  3
   3683   3690   3693   3702     1  0.0000000  0.6508444  3
   3684   3683   3687   3699     1  180.0000771  2.0083200  2
   3684   3683   3687   3699     1  0.0000000  1.2552000  3
   3684   3683   3690   3693     1  180.0000771  2.0083200  2
   3684   3683   3690   3693     1  0.0000000  1.2552000  3
   3684   3696   3708   7061     1  0.0000000  0.6508444  3
   3687   3683   3684   3696     1  180.0000771  2.0083200  2
   3687   3683   3684   3696     1  0.0000000  1.2552000  3
   3687   3683   3690   3693     1  180.0000771  2.0083200  2
   3687   3683   3690   3693     1  0.0000000  1.2552000  3
   3687   3699   3705   7038     1  0.0000000  0.6508444  3
   3690   3683   3684   3696     1  180.0000771  2.0083200  2
   3690   3683   3684   3696     1  0.0000000  1.2552000  3
   3690   3683   3687   3699     1  180.0000771  2.0083200  2
   3690   3683   3687   3699     1  0.0000000  1.2552000  3
   3690   3693   3702   3711     1  0.0000000  0.6508444  3
   3696   3708   7061   7057     1  180.0000771  0.4184000  2
   3696   3708   7061   7057     1  0.0000000  1.6024720  3
   3699   3705   7038   7034     1  180.0000771  0.4184000  2
   3699   3705   7038   7034     1  0.0000000  1.6024720  3
   3705   7038   7034   7033     1  180.0000771  0.4184000  2
   3705   7038   7034   7033     1  0.0000000  1.6024720  3
   3705   7038   7034   7050     1  180.0000771  5.6484000  1
   3705   7038   7034   7050     1  180.0000771  3.5564000  2
   3705   7038   7034   7050     1  0.0000000  0.4184000  3
   3708   7061   7057   7073     1  180.0000771  5.6484000  1
   3708   7061   7057   7073     1  180.0000771  3.5564000  2
   3708   7061   7057   7073     1  0.0000000  0.4184000  3
   3708   7061   7057   7056     1  180.0000771  0.4184000  2
   3708   7061   7057   7056     1  0.0000000  1.6024720  3
   3712   3713   3725   3737     1  0.0000000  0.6508444  3
   3712   3716   3728   3734     1  0.0000000  0.6508444  3
   3712   3719   3722   3731     1  0.0000000  0.6508444  3
   3713   3712   3716   3728     1  180.0000771  2.0083200  2
   3713   3712   3716   3728     1  0.0000000  1.2552000  3
   3713   3712   3719   3722     1  180.0000771  2.0083200  2
   3713   3712   3719   3722     1  0.0000000  1.2552000  3
   3713   3725   3737   7107     1  0.0000000  0.6508444  3
   3716   3712   3713   3725     1  180.0000771  2.0083200  2
   3716   3712   3713   3725     1  0.0000000  1.2552000  3
   3716   3712   3719   3722     1  180.0000771  2.0083200  2
   3716   3712   3719   3722     1  0.0000000  1.2552000  3
   3716   3728   3734   7084     1  0.0000000  0.6508444  3
   3719   3712   3713   3725     1  180.0000771  2.0083200  2
   3719   3712   3713   3725     1  0.0000000  1.2552000  3
   3719   3712   3716   3728     1  180.0000771  2.0083200  2
   3719   3712   3716   3728     1  0.0000000  1.2552000  3
   3719   3722   3731   3740     1  0.0000000  0.6508444  3
   3725   3737   7107   7103     1  180.0000771  0.4184000  2
   3725   3737   7107   7103     1  0.0000000  1.6024720  3
   3728   3734   7084   7080     1  180.0000771  0.4184000  2
   3728   3734   7084   7080     1  0.0000000  1.6024720  3
   3734   7084   7080   7079     1  180.0000771  0.4184000  2
   3734   7084   7080   7079     1  0.0000000  1.6024720  3
   3734   7084   7080   7096     1  180.0000771  5.6484000  1
   3734   7084   7080   7096     1  180.0000771  3.5564000  2
   3734   7084   7080   7096     1  0.0000000  0.4184000  3
   3737   7107   7103   7119     1  180.0000771  5.6484000  1
   3737   7107   7103   7119     1  180.0000771  3.5564000  2
   3737   7107   7103   7119     1  0.0000000  0.4184000  3
   3737   7107   7103   7102     1  180.0000771  0.4184000  2
   3737   7107   7103   7102     1  0.0000000  1.6024720  3
   3741   3742   3754   3766     1  0.0000000  0.6508444  3
   3741   3745   3757   3763     1  0.0000000  0.6508444  3
   3741   3748   3751   3760     1  0.0000000  0.6508444  3
   3742   3741   3745   3757     1  180.0000771  2.0083200  2
   3742   3741   3745   3757     1  0.0000000  1.2552000  3
   3742   3741   3748   3751     1  180.0000771  2.0083200  2
   3742   3741   3748   3751     1  0.0000000  1.2552000  3
   3742   3754   3766   7153     1  0.0000000  0.6508444  3
   3745   3741   3742   3754     1  180.0000771  2.0083200  2
   3745   3741   3742   3754     1  0.0000000  1.2552000  3
   3745   3741   3748   3751     1  180.0000771  2.0083200  2
   3745   3741   3748   3751     1  0.0000000  1.2552000  3
   3745   3757   3763   7130     1  0.0000000  0.6508444  3
   3748   3741   3742   3754     1  180.0000771  2.0083200  2
   3748   3741   3742   3754     1  0.0000000  1.2552000  3
   3748   3741   3745   3757     1  180.0000771  2.0083200  2
   3748   3741   3745   3757     1  0.0000000  1.2552000  3
   3748   3751   3760   3769     1  0.0000000  0.6508444  3
   3754   3766   7153   7149     1  180.0000771  0.4184000  2
   3754   3766   7153   7149     1  0.0000000  1.6024720  3
   3757   3763   7130   7126     1  180.0000771  0.4184000  2
   3757   3763   7130   7126     1  0.0000000  1.6024720  3
   3763   7130   7126   7125     1  180.0000771  0.4184000  2
   3763   7130   7126   7125     1  0.0000000  1.6024720  3
   3763   7130   7126   7142     1  180.0000771  5.6484000  1
   3763   7130   7126   7142     1  180.0000771  3.5564000  2
   3763   7130   7126   7142     1  0.0000000  0.4184000  3
   3766   7153   7149   7165     1  180.0000771  5.6484000  1
   3766   7153   7149   7165     1  180.0000771  3.5564000  2
   3766   7153   7149   7165     1  0.0000000  0.4184000  3
   3766   7153   7149   7148     1  180.0000771  0.4184000  2
   3766   7153   7149   7148     1  0.0000000  1.6024720  3
   3770   3771   3783   3795     1  0.0000000  0.6508444  3
   3770   3774   3786   3792     1  0.0000000  0.6508444  3
   3770   3777   3780   3789     1  0.0000000  0.6508444  3
   3771   3770   3774   3786     1  180.0000771  2.0083200  2
   3771   3770   3774   3786     1  0.0000000  1.2552000  3
   3771   3770   3777   3780     1  180.0000771  2.0083200  2
   3771   3770   3777   3780     1  0.0000000  1.2552000  3
   3771   3783   3795   7199     1  0.0000000  0.6508444  3
   3774   3770   3771   3783     1  180.0000771  2.0083200  2
   3774   3770   3771   3783     1  0.0000000  1.2552000  3
   3774   3770   3777   3780     1  180.0000771  2.0083200  2
   3774   3770   3777   3780     1  0.0000000  1.2552000  3
   3774   3786   3792   7176     1  0.0000000  0.6508444  3
   3777   3770   3771   3783     1  180.0000771  2.0083200  2
   3777   3770   3771   3783     1  0.0000000  1.2552000  3
   3777   3770   3774   3786     1  180.0000771  2.0083200  2
   3777   3770   3774   3786     1  0.0000000  1.2552000  3
   3777   3780   3789   3798     1  0.0000000  0.6508444  3
   3783   3795   7199   7195     1  180.0000771  0.4184000  2
   3783   3795   7199   7195     1  0.0000000  1.6024720  3
   3786   3792   7176   7172     1  180.0000771  0.4184000  2
   3786   3792   7176   7172     1  0.0000000  1.6024720  3
   3792   7176   7172   7171     1  180.0000771  0.4184000  2
   3792   7176   7172   7171     1  0.0000000  1.6024720  3
   3792   7176   7172   7188     1  180.0000771  5.6484000  1
   3792   7176   7172   7188     1  180.0000771  3.5564000  2
   3792   7176   7172   7188     1  0.0000000  0.4184000  3
   3795   7199   7195   7211     1  180.0000771  5.6484000  1
   3795   7199   7195   7211     1  180.0000771  3.5564000  2
   3795   7199   7195   7211     1  0.0000000  0.4184000  3
   3795   7199   7195   7194     1  180.0000771  0.4184000  2
   3795   7199   7195   7194     1  0.0000000  1.6024720  3
   3799   3800   3812   3824     1  0.0000000  0.6508444  3
   3799   3803   3815   3821     1  0.0000000  0.6508444  3
   3799   3806   3809   3818     1  0.0000000  0.6508444  3
   3800   3799   3803   3815     1  180.0000771  2.0083200  2
   3800   3799   3803   3815     1  0.0000000  1.2552000  3
   3800   3799   3806   3809     1  180.0000771  2.0083200  2
   3800   3799   3806   3809     1  0.0000000  1.2552000  3
   3800   3812   3824   7245     1  0.0000000  0.6508444  3
   3803   3799   3800   3812     1  180.0000771  2.0083200  2
   3803   3799   3800   3812     1  0.0000000  1.2552000  3
   3803   3799   3806   3809     1  180.0000771  2.0083200  2
   3803   3799   3806   3809     1  0.0000000  1.2552000  3
   3803   3815   3821   7222     1  0.0000000  0.6508444  3
   3806   3799   3800   3812     1  180.0000771  2.0083200  2
   3806   3799   3800   3812     1  0.0000000  1.2552000  3
   3806   3799   3803   3815     1  180.0000771  2.0083200  2
   3806   3799   3803   3815     1  0.0000000  1.2552000  3
   3806   3809   3818   3827     1  0.0000000  0.6508444  3
   3812   3824   7245   7241     1  180.0000771  0.4184000  2
   3812   3824   7245   7241     1  0.0000000  1.6024720  3
   3815   3821   7222   7218     1  180.0000771  0.4184000  2
   3815   3821   7222   7218     1  0.0000000  1.6024720  3
   3821   7222   7218   7217     1  180.0000771  0.4184000  2
   3821   7222   7218   7217     1  0.0000000  1.6024720  3
   3821   7222   7218   7234     1  180.0000771  5.6484000  1
   3821   7222   7218   7234     1  180.0000771  3.5564000  2
   3821   7222   7218   7234     1  0.0000000  0.4184000  3
   3824   7245   7241   7257     1  180.0000771  5.6484000  1
   3824   7245   7241   7257     1  180.0000771  3.5564000  2
   3824   7245   7241   7257     1  0.0000000  0.4184000  3
   3824   7245   7241   7240     1  180.0000771  0.4184000  2
   3824   7245   7241   7240     1  0.0000000  1.6024720  3
   3828   3829   3841   3853     1  0.0000000  0.6508444  3
   3828   3832   3844   3850     1  0.0000000  0.6508444  3
   3828   3835   3838   3847     1  0.0000000  0.6508444  3
   3829   3828   3832   3844     1  180.0000771  2.0083200  2
   3829   3828   3832   3844     1  0.0000000  1.2552000  3
   3829   3828   3835   3838     1  180.0000771  2.0083200  2
   3829   3828   3835   3838     1  0.0000000  1.2552000  3
   3829   3841   3853   7291     1  0.0000000  0.6508444  3
   3832   3828   3829   3841     1  180.0000771  2.0083200  2
   3832   3828   3829   3841     1  0.0000000  1.2552000  3
   3832   3828   3835   3838     1  180.0000771  2.0083200  2
   3832   3828   3835   3838     1  0.0000000  1.2552000  3
   3832   3844   3850   7268     1  0.0000000  0.6508444  3
   3835   3828   3829   3841     1  180.0000771  2.0083200  2
   3835   3828   3829   3841     1  0.0000000  1.2552000  3
   3835   3828   3832   3844     1  180.0000771  2.0083200  2
   3835   3828   3832   3844     1  0.0000000  1.2552000  3
   3835   3838   3847   3856     1  0.0000000  0.6508444  3
   3841   3853   7291   7287     1  180.0000771  0.4184000  2
   3841   3853   7291   7287     1  0.0000000  1.6024720  3
   3844   3850   7268   7264     1  180.0000771  0.4184000  2
   3844   3850   7268   7264     1  0.0000000  1.6024720  3
   3850   7268   7264   7263     1  180.0000771  0.4184000  2
   3850   7268   7264   7263     1  0.0000000  1.6024720  3
   3850   7268   7264   7280     1  180.0000771  5.6484000  1
   3850   7268   7264   7280     1  180.0000771  3.5564000  2
   3850   7268   7264   7280     1  0.0000000  0.4184000  3
   3853   7291   7287   7303     1  180.0000771  5.6484000  1
   3853   7291   7287   7303     1  180.0000771  3.5564000  2
   3853   7291   7287   7303     1  0.0000000  0.4184000  3
   3853   7291   7287   7286     1  180.0000771  0.4184000  2
   3853   7291   7287   7286     1  0.0000000  1.6024720  3
   3857   3858   3870   3882     1  0.0000000  0.6508444  3
   3857   3861   3873   3879     1  0.0000000  0.6508444  3
   3857   3864   3867   3876     1  0.0000000  0.6508444  3
   3858   3857   3861   3873     1  180.0000771  2.0083200  2
   3858   3857   3861   3873     1  0.0000000  1.2552000  3
   3858   3857   3864   3867     1  180.0000771  2.0083200  2
   3858   3857   3864   3867     1  0.0000000  1.2552000  3
   3858   3870   3882   7337     1  0.0000000  0.6508444  3
   3861   3857   3858   3870     1  180.0000771  2.0083200  2
   3861   3857   3858   3870     1  0.0000000  1.2552000  3
   3861   3857   3864   3867     1  180.0000771  2.0083200  2
   3861   3857   3864   3867     1  0.0000000  1.2552000  3
   3861   3873   3879   7314     1  0.0000000  0.6508444  3
   3864   3857   3858   3870     1  180.0000771  2.0083200  2
   3864   3857   3858   3870     1  0.0000000  1.2552000  3
   3864   3857   3861   3873     1  180.0000771  2.0083200  2
   3864   3857   3861   3873     1  0.0000000  1.2552000  3
   3864   3867   3876   3885     1  0.0000000  0.6508444  3
   3870   3882   7337   7333     1  180.0000771  0.4184000  2
   3870   3882   7337   7333     1  0.0000000  1.6024720  3
   3873   3879   7314   7310     1  180.0000771  0.4184000  2
   3873   3879   7314   7310     1  0.0000000  1.6024720  3
   3879   7314   7310   7309     1  180.0000771  0.4184000  2
   3879   7314   7310   7309     1  0.0000000  1.6024720  3
   3879   7314   7310   7326     1  180.0000771  5.6484000  1
   3879   7314   7310   7326     1  180.0000771  3.5564000  2
   3879   7314   7310   7326     1  0.0000000  0.4184000  3
   3882   7337   7333   7349     1  180.0000771  5.6484000  1
   3882   7337   7333   7349     1  180.0000771  3.5564000  2
   3882   7337   7333   7349     1  0.0000000  0.4184000  3
   3882   7337   7333   7332     1  180.0000771  0.4184000  2
   3882   7337   7333   7332     1  0.0000000  1.6024720  3
   3886   3887   3899   3911     1  0.0000000  0.6508444  3
   3886   3890   3902   3908     1  0.0000000  0.6508444  3
   3886   3893   3896   3905     1  0.0000000  0.6508444  3
   3887   3886   3890   3902     1  180.0000771  2.0083200  2
   3887   3886   3890   3902     1  0.0000000  1.2552000  3
   3887   3886   3893   3896     1  180.0000771  2.0083200  2
   3887   3886   3893   3896     1  0.0000000  1.2552000  3
   3887   3899   3911   7383     1  0.0000000  0.6508444  3
   3890   3886   3887   3899     1  180.0000771  2.0083200  2
   3890   3886   3887   3899     1  0.0000000  1.2552000  3
   3890   3886   3893   3896     1  180.0000771  2.0083200  2
   3890   3886   3893   3896     1  0.0000000  1.2552000  3
   3890   3902   3908   7360     1  0.0000000  0.6508444  3
   3893   3886   3887   3899     1  180.0000771  2.0083200  2
   3893   3886   3887   3899     1  0.0000000  1.2552000  3
   3893   3886   3890   3902     1  180.0000771  2.0083200  2
   3893   3886   3890   3902     1  0.0000000  1.2552000  3
   3893   3896   3905   3914     1  0.0000000  0.6508444  3
   3899   3911   7383   7379     1  180.0000771  0.4184000  2
   3899   3911   7383   7379     1  0.0000000  1.6024720  3
   3902   3908   7360   7356     1  180.0000771  0.4184000  2
   3902   3908   7360   7356     1  0.0000000  1.6024720  3
   3908   7360   7356   7355     1  180.0000771  0.4184000  2
   3908   7360   7356   7355     1  0.0000000  1.6024720  3
   3908   7360   7356   7372     1  180.0000771  5.6484000  1
   3908   7360   7356   7372     1  180.0000771  3.5564000  2
   3908   7360   7356   7372     1  0.0000000  0.4184000  3
   3911   7383   7379   7395     1  180.0000771  5.6484000  1
   3911   7383   7379   7395     1  180.0000771  3.5564000  2
   3911   7383   7379   7395     1  0.0000000  0.4184000  3
   3911   7383   7379   7378     1  180.0000771  0.4184000  2
   3911   7383   7379   7378     1  0.0000000  1.6024720  3
   3915   3916   3928   3940     1  0.0000000  0.6508444  3
   3915   3919   3931   3937     1  0.0000000  0.6508444  3
   3915   3922   3925   3934     1  0.0000000  0.6508444  3
   3916   3915   3919   3931     1  180.0000771  2.0083200  2
   3916   3915   3919   3931     1  0.0000000  1.2552000  3
   3916   3915   3922   3925     1  180.0000771  2.0083200  2
   3916   3915   3922   3925     1  0.0000000  1.2552000  3
   3916   3928   3940   7429     1  0.0000000  0.6508444  3
   3919   3915   3916   3928     1  180.0000771  2.0083200  2
   3919   3915   3916   3928     1  0.0000000  1.2552000  3
   3919   3915   3922   3925     1  180.0000771  2.0083200  2
   3919   3915   3922   3925     1  0.0000000  1.2552000  3
   3919   3931   3937   7406     1  0.0000000  0.6508444  3
   3922   3915   3916   3928     1  180.0000771  2.0083200  2
   3922   3915   3916   3928     1  0.0000000  1.2552000  3
   3922   3915   3919   3931     1  180.0000771  2.0083200  2
   3922   3915   3919   3931     1  0.0000000  1.2552000  3
   3922   3925   3934   3943     1  0.0000000  0.6508444  3
   3928   3940   7429   7425     1  180.0000771  0.4184000  2
   3928   3940   7429   7425     1  0.0000000  1.6024720  3
   3931   3937   7406   7402     1  180.0000771  0.4184000  2
   3931   3937   7406   7402     1  0.0000000  1.6024720  3
   3937   7406   7402   7401     1  180.0000771  0.4184000  2
   3937   7406   7402   7401     1  0.0000000  1.6024720  3
   3937   7406   7402   7418     1  180.0000771  5.6484000  1
   3937   7406   7402   7418     1  180.0000771  3.5564000  2
   3937   7406   7402   7418     1  0.0000000  0.4184000  3
   3940   7429   7425   7441     1  180.0000771  5.6484000  1
   3940   7429   7425   7441     1  180.0000771  3.5564000  2
   3940   7429   7425   7441     1  0.0000000  0.4184000  3
   3940   7429   7425   7424     1  180.0000771  0.4184000  2
   3940   7429   7425   7424     1  0.0000000  1.6024720  3
   3944   3945   3957   3969     1  0.0000000  0.6508444  3
   3944   3948   3960   3966     1  0.0000000  0.6508444  3
   3944   3951   3954   3963     1  0.0000000  0.6508444  3
   3945   3944   3948   3960     1  180.0000771  2.0083200  2
   3945   3944   3948   3960     1  0.0000000  1.2552000  3
   3945   3944   3951   3954     1  180.0000771  2.0083200  2
   3945   3944   3951   3954     1  0.0000000  1.2552000  3
   3945   3957   3969   7475     1  0.0000000  0.6508444  3
   3948   3944   3945   3957     1  180.0000771  2.0083200  2
   3948   3944   3945   3957     1  0.0000000  1.2552000  3
   3948   3944   3951   3954     1  180.0000771  2.0083200  2
   3948   3944   3951   3954     1  0.0000000  1.2552000  3
   3948   3960   3966   7452     1  0.0000000  0.6508444  3
   3951   3944   3945   3957     1  180.0000771  2.0083200  2
   3951   3944   3945   3957     1  0.0000000  1.2552000  3
   3951   3944   3948   3960     1  180.0000771  2.0083200  2
   3951   3944   3948   3960     1  0.0000000  1.2552000  3
   3951   3954   3963   3972     1  0.0000000  0.6508444  3
   3957   3969   7475   7471     1  180.0000771  0.4184000  2
   3957   3969   7475   7471     1  0.0000000  1.6024720  3
   3960   3966   7452   7448     1  180.0000771  0.4184000  2
   3960   3966   7452   7448     1  0.0000000  1.6024720  3
   3966   7452   7448   7447     1  180.0000771  0.4184000  2
   3966   7452   7448   7447     1  0.0000000  1.6024720  3
   3966   7452   7448   7464     1  180.0000771  5.6484000  1
   3966   7452   7448   7464     1  180.0000771  3.5564000  2
   3966   7452   7448   7464     1  0.0000000  0.4184000  3
   3969   7475   7471   7487     1  180.0000771  5.6484000  1
   3969   7475   7471   7487     1  180.0000771  3.5564000  2
   3969   7475   7471   7487     1  0.0000000  0.4184000  3
   3969   7475   7471   7470     1  180.0000771  0.4184000  2
   3969   7475   7471   7470     1  0.0000000  1.6024720  3
   3973   3974   3986   3998     1  0.0000000  0.6508444  3
   3973   3977   3989   3995     1  0.0000000  0.6508444  3
   3973   3980   3983   3992     1  0.0000000  0.6508444  3
   3974   3973   3977   3989     1  180.0000771  2.0083200  2
   3974   3973   3977   3989     1  0.0000000  1.2552000  3
   3974   3973   3980   3983     1  180.0000771  2.0083200  2
   3974   3973   3980   3983     1  0.0000000  1.2552000  3
   3974   3986   3998   7521     1  0.0000000  0.6508444  3
   3977   3973   3974   3986     1  180.0000771  2.0083200  2
   3977   3973   3974   3986     1  0.0000000  1.2552000  3
   3977   3973   3980   3983     1  180.0000771  2.0083200  2
   3977   3973   3980   3983     1  0.0000000  1.2552000  3
   3977   3989   3995   7498     1  0.0000000  0.6508444  3
   3980   3973   3974   3986     1  180.0000771  2.0083200  2
   3980   3973   3974   3986     1  0.0000000  1.2552000  3
   3980   3973   3977   3989     1  180.0000771  2.0083200  2
   3980   3973   3977   3989     1  0.0000000  1.2552000  3
   3980   3983   3992   4001     1  0.0000000  0.6508444  3
   3986   3998   7521   7517     1  180.0000771  0.4184000  2
   3986   3998   7521   7517     1  0.0000000  1.6024720  3
   3989   3995   7498   7494     1  180.0000771  0.4184000  2
   3989   3995   7498   7494     1  0.0000000  1.6024720  3
   3995   7498   7494   7493     1  180.0000771  0.4184000  2
   3995   7498   7494   7493     1  0.0000000  1.6024720  3
   3995   7498   7494   7510     1  180.0000771  5.6484000  1
   3995   7498   7494   7510     1  180.0000771  3.5564000  2
   3995   7498   7494   7510     1  0.0000000  0.4184000  3
   3998   7521   7517   7533     1  180.0000771  5.6484000  1
   3998   7521   7517   7533     1  180.0000771  3.5564000  2
   3998   7521   7517   7533     1  0.0000000  0.4184000  3
   3998   7521   7517   7516     1  180.0000771  0.4184000  2
   3998   7521   7517   7516     1  0.0000000  1.6024720  3
   4002   4003   4015   4027     1  0.0000000  0.6508444  3
   4002   4006   4018   4024     1  0.0000000  0.6508444  3
   4002   4009   4012   4021     1  0.0000000  0.6508444  3
   4003   4002   4006   4018     1  180.0000771  2.0083200  2
   4003   4002   4006   4018     1  0.0000000  1.2552000  3
   4003   4002   4009   4012     1  180.0000771  2.0083200  2
   4003   4002   4009   4012     1  0.0000000  1.2552000  3
   4003   4015   4027   7567     1  0.0000000  0.6508444  3
   4006   4002   4003   4015     1  180.0000771  2.0083200  2
   4006   4002   4003   4015     1  0.0000000  1.2552000  3
   4006   4002   4009   4012     1  180.0000771  2.0083200  2
   4006   4002   4009   4012     1  0.0000000  1.2552000  3
   4006   4018   4024   7544     1  0.0000000  0.6508444  3
   4009   4002   4003   4015     1  180.0000771  2.0083200  2
   4009   4002   4003   4015     1  0.0000000  1.2552000  3
   4009   4002   4006   4018     1  180.0000771  2.0083200  2
   4009   4002   4006   4018     1  0.0000000  1.2552000  3
   4009   4012   4021   4030     1  0.0000000  0.6508444  3
   4015   4027   7567   7563     1  180.0000771  0.4184000  2
   4015   4027   7567   7563     1  0.0000000  1.6024720  3
   4018   4024   7544   7540     1  180.0000771  0.4184000  2
   4018   4024   7544   7540     1  0.0000000  1.6024720  3
   4024   7544   7540   7539     1  180.0000771  0.4184000  2
   4024   7544   7540   7539     1  0.0000000  1.6024720  3
   4024   7544   7540   7556     1  180.0000771  5.6484000  1
   4024   7544   7540   7556     1  180.0000771  3.5564000  2
   4024   7544   7540   7556     1  0.0000000  0.4184000  3
   4027   7567   7563   7579     1  180.0000771  5.6484000  1
   4027   7567   7563   7579     1  180.0000771  3.5564000  2
   4027   7567   7563   7579     1  0.0000000  0.4184000  3
   4027   7567   7563   7562     1  180.0000771  0.4184000  2
   4027   7567   7563   7562     1  0.0000000  1.6024720  3
   4031   4032   4044   4056     1  0.0000000  0.6508444  3
   4031   4035   4047   4053     1  0.0000000  0.6508444  3
   4031   4038   4041   4050     1  0.0000000  0.6508444  3
   4032   4031   4035   4047     1  180.0000771  2.0083200  2
   4032   4031   4035   4047     1  0.0000000  1.2552000  3
   4032   4031   4038   4041     1  180.0000771  2.0083200  2
   4032   4031   4038   4041     1  0.0000000  1.2552000  3
   4032   4044   4056   7613     1  0.0000000  0.6508444  3
   4035   4031   4032   4044     1  180.0000771  2.0083200  2
   4035   4031   4032   4044     1  0.0000000  1.2552000  3
   4035   4031   4038   4041     1  180.0000771  2.0083200  2
   4035   4031   4038   4041     1  0.0000000  1.2552000  3
   4035   4047   4053   7590     1  0.0000000  0.6508444  3
   4038   4031   4032   4044     1  180.0000771  2.0083200  2
   4038   4031   4032   4044     1  0.0000000  1.2552000  3
   4038   4031   4035   4047     1  180.0000771  2.0083200  2
   4038   4031   4035   4047     1  0.0000000  1.2552000  3
   4038   4041   4050   4059     1  0.0000000  0.6508444  3
   4044   4056   7613   7609     1  180.0000771  0.4184000  2
   4044   4056   7613   7609     1  0.0000000  1.6024720  3
   4047   4053   7590   7586     1  180.0000771  0.4184000  2
   4047   4053   7590   7586     1  0.0000000  1.6024720  3
   4053   7590   7586   7585     1  180.0000771  0.4184000  2
   4053   7590   7586   7585     1  0.0000000  1.6024720  3
   4053   7590   7586   7602     1  180.0000771  5.6484000  1
   4053   7590   7586   7602     1  180.0000771  3.5564000  2
   4053   7590   7586   7602     1  0.0000000  0.4184000  3
   4056   7613   7609   7625     1  180.0000771  5.6484000  1
   4056   7613   7609   7625     1  180.0000771  3.5564000  2
   4056   7613   7609   7625     1  0.0000000  0.4184000  3
   4056   7613   7609   7608     1  180.0000771  0.4184000  2
   4056   7613   7609   7608     1  0.0000000  1.6024720  3
   4060   4061   4073   4085     1  0.0000000  0.6508444  3
   4060   4064   4076   4082     1  0.0000000  0.6508444  3
   4060   4067   4070   4079     1  0.0000000  0.6508444  3
   4061   4060   4064   4076     1  180.0000771  2.0083200  2
   4061   4060   4064   4076     1  0.0000000  1.2552000  3
   4061   4060   4067   4070     1  180.0000771  2.0083200  2
   4061   4060   4067   4070     1  0.0000000  1.2552000  3
   4061   4073   4085   7659     1  0.0000000  0.6508444  3
   4064   4060   4061   4073     1  180.0000771  2.0083200  2
   4064   4060   4061   4073     1  0.0000000  1.2552000  3
   4064   4060   4067   4070     1  180.0000771  2.0083200  2
   4064   4060   4067   4070     1  0.0000000  1.2552000  3
   4064   4076   4082   7636     1  0.0000000  0.6508444  3
   4067   4060   4061   4073     1  180.0000771  2.0083200  2
   4067   4060   4061   4073     1  0.0000000  1.2552000  3
   4067   4060   4064   4076     1  180.0000771  2.0083200  2
   4067   4060   4064   4076     1  0.0000000  1.2552000  3
   4067   4070   4079   4088     1  0.0000000  0.6508444  3
   4073   4085   7659   7655     1  180.0000771  0.4184000  2
   4073   4085   7659   7655     1  0.0000000  1.6024720  3
   4076   4082   7636   7632     1  180.0000771  0.4184000  2
   4076   4082   7636   7632     1  0.0000000  1.6024720  3
   4082   7636   7632   7631     1  180.0000771  0.4184000  2
   4082   7636   7632   7631     1  0.0000000  1.6024720  3
   4082   7636   7632   7648     1  180.0000771  5.6484000  1
   4082   7636   7632   7648     1  180.0000771  3.5564000  2
   4082   7636   7632   7648     1  0.0000000  0.4184000  3
   4085   7659   7655   7671     1  180.0000771  5.6484000  1
   4085   7659   7655   7671     1  180.0000771  3.5564000  2
   4085   7659   7655   7671     1  0.0000000  0.4184000  3
   4085   7659   7655   7654     1  180.0000771  0.4184000  2
   4085   7659   7655   7654     1  0.0000000  1.6024720  3
   4089   4090   4102   4114     1  0.0000000  0.6508444  3
   4089   4093   4105   4111     1  0.0000000  0.6508444  3
   4089   4096   4099   4108     1  0.0000000  0.6508444  3
   4090   4089   4093   4105     1  180.0000771  2.0083200  2
   4090   4089   4093   4105     1  0.0000000  1.2552000  3
   4090   4089   4096   4099     1  180.0000771  2.0083200  2
   4090   4089   4096   4099     1  0.0000000  1.2552000  3
   4090   4102   4114   7705     1  0.0000000  0.6508444  3
   4093   4089   4090   4102     1  180.0000771  2.0083200  2
   4093   4089   4090   4102     1  0.0000000  1.2552000  3
   4093   4089   4096   4099     1  180.0000771  2.0083200  2
   4093   4089   4096   4099     1  0.0000000  1.2552000  3
   4093   4105   4111   7682     1  0.0000000  0.6508444  3
   4096   4089   4090   4102     1  180.0000771  2.0083200  2
   4096   4089   4090   4102     1  0.0000000  1.2552000  3
   4096   4089   4093   4105     1  180.0000771  2.0083200  2
   4096   4089   4093   4105     1  0.0000000  1.2552000  3
   4096   4099   4108   4117     1  0.0000000  0.6508444  3
   4102   4114   7705   7701     1  180.0000771  0.4184000  2
   4102   4114   7705   7701     1  0.0000000  1.6024720  3
   4105   4111   7682   7678     1  180.0000771  0.4184000  2
   4105   4111   7682   7678     1  0.0000000  1.6024720  3
   4111   7682   7678   7677     1  180.0000771  0.4184000  2
   4111   7682   7678   7677     1  0.0000000  1.6024720  3
   4111   7682   7678   7694     1  180.0000771  5.6484000  1
   4111   7682   7678   7694     1  180.0000771  3.5564000  2
   4111   7682   7678   7694     1  0.0000000  0.4184000  3
   4114   7705   7701   7717     1  180.0000771  5.6484000  1
   4114   7705   7701   7717     1  180.0000771  3.5564000  2
   4114   7705   7701   7717     1  0.0000000  0.4184000  3
   4114   7705   7701   7700     1  180.0000771  0.4184000  2
   4114   7705   7701   7700     1  0.0000000  1.6024720  3
   4118   4119   4131   4143     1  0.0000000  0.6508444  3
   4118   4122   4134   4140     1  0.0000000  0.6508444  3
   4118   4125   4128   4137     1  0.0000000  0.6508444  3
   4119   4118   4122   4134     1  180.0000771  2.0083200  2
   4119   4118   4122   4134     1  0.0000000  1.2552000  3
   4119   4118   4125   4128     1  180.0000771  2.0083200  2
   4119   4118   4125   4128     1  0.0000000  1.2552000  3
   4119   4131   4143   7751     1  0.0000000  0.6508444  3
   4122   4118   4119   4131     1  180.0000771  2.0083200  2
   4122   4118   4119   4131     1  0.0000000  1.2552000  3
   4122   4118   4125   4128     1  180.0000771  2.0083200  2
   4122   4118   4125   4128     1  0.0000000  1.2552000  3
   4122   4134   4140   7728     1  0.0000000  0.6508444  3
   4125   4118   4119   4131     1  180.0000771  2.0083200  2
   4125   4118   4119   4131     1  0.0000000  1.2552000  3
   4125   4118   4122   4134     1  180.0000771  2.0083200  2
   4125   4118   4122   4134     1  0.0000000  1.2552000  3
   4125   4128   4137   4146     1  0.0000000  0.6508444  3
   4131   4143   7751   7747     1  180.0000771  0.4184000  2
   4131   4143   7751   7747     1  0.0000000  1.6024720  3
   4134   4140   7728   7724     1  180.0000771  0.4184000  2
   4134   4140   7728   7724     1  0.0000000  1.6024720  3
   4140   7728   7724   7723     1  180.0000771  0.4184000  2
   4140   7728   7724   7723     1  0.0000000  1.6024720  3
   4140   7728   7724   7740     1  180.0000771  5.6484000  1
   4140   7728   7724   7740     1  180.0000771  3.5564000  2
   4140   7728   7724   7740     1  0.0000000  0.4184000  3
   4143   7751   7747   7763     1  180.0000771  5.6484000  1
   4143   7751   7747   7763     1  180.0000771  3.5564000  2
   4143   7751   7747   7763     1  0.0000000  0.4184000  3
   4143   7751   7747   7746     1  180.0000771  0.4184000  2
   4143   7751   7747   7746     1  0.0000000  1.6024720  3
   4147   4148   4160   4172     1  0.0000000  0.6508444  3
   4147   4151   4163   4169     1  0.0000000  0.6508444  3
   4147   4154   4157   4166     1  0.0000000  0.6508444  3
   4148   4147   4151   4163     1  180.0000771  2.0083200  2
   4148   4147   4151   4163     1  0.0000000  1.2552000  3
   4148   4147   4154   4157     1  180.0000771  2.0083200  2
   4148   4147   4154   4157     1  0.0000000  1.2552000  3
   4148   4160   4172   7797     1  0.0000000  0.6508444  3
   4151   4147   4148   4160     1  180.0000771  2.0083200  2
   4151   4147   4148   4160     1  0.0000000  1.2552000  3
   4151   4147   4154   4157     1  180.0000771  2.0083200  2
   4151   4147   4154   4157     1  0.0000000  1.2552000  3
   4151   4163   4169   7774     1  0.0000000  0.6508444  3
   4154   4147   4148   4160     1  180.0000771  2.0083200  2
   4154   4147   4148   4160     1  0.0000000  1.2552000  3
   4154   4147   4151   4163     1  180.0000771  2.0083200  2
   4154   4147   4151   4163     1  0.0000000  1.2552000  3
   4154   4157   4166   4175     1  0.0000000  0.6508444  3
   4160   4172   7797   7793     1  180.0000771  0.4184000  2
   4160   4172   7797   7793     1  0.0000000  1.6024720  3
   4163   4169   7774   7770     1  180.0000771  0.4184000  2
   4163   4169   7774   7770     1  0.0000000  1.6024720  3
   4169   7774   7770   7769     1  180.0000771  0.4184000  2
   4169   7774   7770   7769     1  0.0000000  1.6024720  3
   4169   7774   7770   7786     1  180.0000771  5.6484000  1
   4169   7774   7770   7786     1  180.0000771  3.5564000  2
   4169   7774   7770   7786     1  0.0000000  0.4184000  3
   4172   7797   7793   7809     1  180.0000771  5.6484000  1
   4172   7797   7793   7809     1  180.0000771  3.5564000  2
   4172   7797   7793   7809     1  0.0000000  0.4184000  3
   4172   7797   7793   7792     1  180.0000771  0.4184000  2
   4172   7797   7793   7792     1  0.0000000  1.6024720  3
   4176   4177   4189   4201     1  0.0000000  0.6508444  3
   4176   4180   4192   4198     1  0.0000000  0.6508444  3
   4176   4183   4186   4195     1  0.0000000  0.6508444  3
   4177   4176   4180   4192     1  180.0000771  2.0083200  2
   4177   4176   4180   4192     1  0.0000000  1.2552000  3
   4177   4176   4183   4186     1  180.0000771  2.0083200  2
   4177   4176   4183   4186     1  0.0000000  1.2552000  3
   4177   4189   4201   7843     1  0.0000000  0.6508444  3
   4180   4176   4177   4189     1  180.0000771  2.0083200  2
   4180   4176   4177   4189     1  0.0000000  1.2552000  3
   4180   4176   4183   4186     1  180.0000771  2.0083200  2
   4180   4176   4183   4186     1  0.0000000  1.2552000  3
   4180   4192   4198   7820     1  0.0000000  0.6508444  3
   4183   4176   4177   4189     1  180.0000771  2.0083200  2
   4183   4176   4177   4189     1  0.0000000  1.2552000  3
   4183   4176   4180   4192     1  180.0000771  2.0083200  2
   4183   4176   4180   4192     1  0.0000000  1.2552000  3
   4183   4186   4195   4204     1  0.0000000  0.6508444  3
   4189   4201   7843   7839     1  180.0000771  0.4184000  2
   4189   4201   7843   7839     1  0.0000000  1.6024720  3
   4192   4198   7820   7816     1  180.0000771  0.4184000  2
   4192   4198   7820   7816     1  0.0000000  1.6024720  3
   4198   7820   7816   7815     1  180.0000771  0.4184000  2
   4198   7820   7816   7815     1  0.0000000  1.6024720  3
   4198   7820   7816   7832     1  180.0000771  5.6484000  1
   4198   7820   7816   7832     1  180.0000771  3.5564000  2
   4198   7820   7816   7832     1  0.0000000  0.4184000  3
   4201   7843   7839   7855     1  180.0000771  5.6484000  1
   4201   7843   7839   7855     1  180.0000771  3.5564000  2
   4201   7843   7839   7855     1  0.0000000  0.4184000  3
   4201   7843   7839   7838     1  180.0000771  0.4184000  2
   4201   7843   7839   7838     1  0.0000000  1.6024720  3
   4205   4206   4218   4230     1  0.0000000  0.6508444  3
   4205   4209   4221   4227     1  0.0000000  0.6508444  3
   4205   4212   4215   4224     1  0.0000000  0.6508444  3
   4206   4205   4209   4221     1  180.0000771  2.0083200  2
   4206   4205   4209   4221     1  0.0000000  1.2552000  3
   4206   4205   4212   4215     1  180.0000771  2.0083200  2
   4206   4205   4212   4215     1  0.0000000  1.2552000  3
   4206   4218   4230   7889     1  0.0000000  0.6508444  3
   4209   4205   4206   4218     1  180.0000771  2.0083200  2
   4209   4205   4206   4218     1  0.0000000  1.2552000  3
   4209   4205   4212   4215     1  180.0000771  2.0083200  2
   4209   4205   4212   4215     1  0.0000000  1.2552000  3
   4209   4221   4227   7866     1  0.0000000  0.6508444  3
   4212   4205   4206   4218     1  180.0000771  2.0083200  2
   4212   4205   4206   4218     1  0.0000000  1.2552000  3
   4212   4205   4209   4221     1  180.0000771  2.0083200  2
   4212   4205   4209   4221     1  0.0000000  1.2552000  3
   4212   4215   4224   4233     1  0.0000000  0.6508444  3
   4218   4230   7889   7885     1  180.0000771  0.4184000  2
   4218   4230   7889   7885     1  0.0000000  1.6024720  3
   4221   4227   7866   7862     1  180.0000771  0.4184000  2
   4221   4227   7866   7862     1  0.0000000  1.6024720  3
   4227   7866   7862   7861     1  180.0000771  0.4184000  2
   4227   7866   7862   7861     1  0.0000000  1.6024720  3
   4227   7866   7862   7878     1  180.0000771  5.6484000  1
   4227   7866   7862   7878     1  180.0000771  3.5564000  2
   4227   7866   7862   7878     1  0.0000000  0.4184000  3
   4230   7889   7885   7901     1  180.0000771  5.6484000  1
   4230   7889   7885   7901     1  180.0000771  3.5564000  2
   4230   7889   7885   7901     1  0.0000000  0.4184000  3
   4230   7889   7885   7884     1  180.0000771  0.4184000  2
   4230   7889   7885   7884     1  0.0000000  1.6024720  3
   4234   4235   4247   4259     1  0.0000000  0.6508444  3
   4234   4238   4250   4256     1  0.0000000  0.6508444  3
   4234   4241   4244   4253     1  0.0000000  0.6508444  3
   4235   4234   4238   4250     1  180.0000771  2.0083200  2
   4235   4234   4238   4250     1  0.0000000  1.2552000  3
   4235   4234   4241   4244     1  180.0000771  2.0083200  2
   4235   4234   4241   4244     1  0.0000000  1.2552000  3
   4235   4247   4259   7935     1  0.0000000  0.6508444  3
   4238   4234   4235   4247     1  180.0000771  2.0083200  2
   4238   4234   4235   4247     1  0.0000000  1.2552000  3
   4238   4234   4241   4244     1  180.0000771  2.0083200  2
   4238   4234   4241   4244     1  0.0000000  1.2552000  3
   4238   4250   4256   7912     1  0.0000000  0.6508444  3
   4241   4234   4235   4247     1  180.0000771  2.0083200  2
   4241   4234   4235   4247     1  0.0000000  1.2552000  3
   4241   4234   4238   4250     1  180.0000771  2.0083200  2
   4241   4234   4238   4250     1  0.0000000  1.2552000  3
   4241   4244   4253   4262     1  0.0000000  0.6508444  3
   4247   4259   7935   7931     1  180.0000771  0.4184000  2
   4247   4259   7935   7931     1  0.0000000  1.6024720  3
   4250   4256   7912   7908     1  180.0000771  0.4184000  2
   4250   4256   7912   7908     1  0.0000000  1.6024720  3
   4256   7912   7908   7907     1  180.0000771  0.4184000  2
   4256   7912   7908   7907     1  0.0000000  1.6024720  3
   4256   7912   7908   7924     1  180.0000771  5.6484000  1
   4256   7912   7908   7924     1  180.0000771  3.5564000  2
   4256   7912   7908   7924     1  0.0000000  0.4184000  3
   4259   7935   7931   7947     1  180.0000771  5.6484000  1
   4259   7935   7931   7947     1  180.0000771  3.5564000  2
   4259   7935   7931   7947     1  0.0000000  0.4184000  3
   4259   7935   7931   7930     1  180.0000771  0.4184000  2
   4259   7935   7931   7930     1  0.0000000  1.6024720  3
   4263   4264   4276   4288     1  0.0000000  0.6508444  3
   4263   4267   4279   4285     1  0.0000000  0.6508444  3
   4263   4270   4273   4282     1  0.0000000  0.6508444  3
   4264   4263   4267   4279     1  180.0000771  2.0083200  2
   4264   4263   4267   4279     1  0.0000000  1.2552000  3
   4264   4263   4270   4273     1  180.0000771  2.0083200  2
   4264   4263   4270   4273     1  0.0000000  1.2552000  3
   4264   4276   4288   7981     1  0.0000000  0.6508444  3
   4267   4263   4264   4276     1  180.0000771  2.0083200  2
   4267   4263   4264   4276     1  0.0000000  1.2552000  3
   4267   4263   4270   4273     1  180.0000771  2.0083200  2
   4267   4263   4270   4273     1  0.0000000  1.2552000  3
   4267   4279   4285   7958     1  0.0000000  0.6508444  3
   4270   4263   4264   4276     1  180.0000771  2.0083200  2
   4270   4263   4264   4276     1  0.0000000  1.2552000  3
   4270   4263   4267   4279     1  180.0000771  2.0083200  2
   4270   4263   4267   4279     1  0.0000000  1.2552000  3
   4270   4273   4282   4291     1  0.0000000  0.6508444  3
   4276   4288   7981   7977     1  180.0000771  0.4184000  2
   4276   4288   7981   7977     1  0.0000000  1.6024720  3
   4279   4285   7958   7954     1  180.0000771  0.4184000  2
   4279   4285   7958   7954     1  0.0000000  1.6024720  3
   4285   7958   7954   7953     1  180.0000771  0.4184000  2
   4285   7958   7954   7953     1  0.0000000  1.6024720  3
   4285   7958   7954   7970     1  180.0000771  5.6484000  1
   4285   7958   7954   7970     1  180.0000771  3.5564000  2
   4285   7958   7954   7970     1  0.0000000  0.4184000  3
   4288   7981   7977   7993     1  180.0000771  5.6484000  1
   4288   7981   7977   7993     1  180.0000771  3.5564000  2
   4288   7981   7977   7993     1  0.0000000  0.4184000  3
   4288   7981   7977   7976     1  180.0000771  0.4184000  2
   4288   7981   7977   7976     1  0.0000000  1.6024720  3
   4292   4293   4305   4317     1  0.0000000  0.6508444  3
   4292   4296   4308   4314     1  0.0000000  0.6508444  3
   4292   4299   4302   4311     1  0.0000000  0.6508444  3
   4293   4292   4296   4308     1  180.0000771  2.0083200  2
   4293   4292   4296   4308     1  0.0000000  1.2552000  3
   4293   4292   4299   4302     1  180.0000771  2.0083200  2
   4293   4292   4299   4302     1  0.0000000  1.2552000  3
   4293   4305   4317   8027     1  0.0000000  0.6508444  3
   4296   4292   4293   4305     1  180.0000771  2.0083200  2
   4296   4292   4293   4305     1  0.0000000  1.2552000  3
   4296   4292   4299   4302     1  180.0000771  2.0083200  2
   4296   4292   4299   4302     1  0.0000000  1.2552000  3
   4296   4308   4314   8004     1  0.0000000  0.6508444  3
   4299   4292   4293   4305     1  180.0000771  2.0083200  2
   4299   4292   4293   4305     1  0.0000000  1.2552000  3
   4299   4292   4296   4308     1  180.0000771  2.0083200  2
   4299   4292   4296   4308     1  0.0000000  1.2552000  3
   4299   4302   4311   4320     1  0.0000000  0.6508444  3
   4305   4317   8027   8023     1  180.0000771  0.4184000  2
   4305   4317   8027   8023     1  0.0000000  1.6024720  3
   4308   4314   8004   8000     1  180.0000771  0.4184000  2
   4308   4314   8004   8000     1  0.0000000  1.6024720  3
   4314   8004   8000   7999     1  180.0000771  0.4184000  2
   4314   8004   8000   7999     1  0.0000000  1.6024720  3
   4314   8004   8000   8016     1  180.0000771  5.6484000  1
   4314   8004   8000   8016     1  180.0000771  3.5564000  2
   4314   8004   8000   8016     1  0.0000000  0.4184000  3
   4317   8027   8023   8039     1  180.0000771  5.6484000  1
   4317   8027   8023   8039     1  180.0000771  3.5564000  2
   4317   8027   8023   8039     1  0.0000000  0.4184000  3
   4317   8027   8023   8022     1  180.0000771  0.4184000  2
   4317   8027   8023   8022     1  0.0000000  1.6024720  3
   4321   4322   4334   4346     1  0.0000000  0.6508444  3
   4321   4325   4337   4343     1  0.0000000  0.6508444  3
   4321   4328   4331   4340     1  0.0000000  0.6508444  3
   4322   4321   4325   4337     1  180.0000771  2.0083200  2
   4322   4321   4325   4337     1  0.0000000  1.2552000  3
   4322   4321   4328   4331     1  180.0000771  2.0083200  2
   4322   4321   4328   4331     1  0.0000000  1.2552000  3
   4322   4334   4346   8073     1  0.0000000  0.6508444  3
   4325   4321   4322   4334     1  180.0000771  2.0083200  2
   4325   4321   4322   4334     1  0.0000000  1.2552000  3
   4325   4321   4328   4331     1  180.0000771  2.0083200  2
   4325   4321   4328   4331     1  0.0000000  1.2552000  3
   4325   4337   4343   8050     1  0.0000000  0.6508444  3
   4328   4321   4322   4334     1  180.0000771  2.0083200  2
   4328   4321   4322   4334     1  0.0000000  1.2552000  3
   4328   4321   4325   4337     1  180.0000771  2.0083200  2
   4328   4321   4325   4337     1  0.0000000  1.2552000  3
   4328   4331   4340   4349     1  0.0000000  0.6508444  3
   4334   4346   8073   8069     1  180.0000771  0.4184000  2
   4334   4346   8073   8069     1  0.0000000  1.6024720  3
   4337   4343   8050   8046     1  180.0000771  0.4184000  2
   4337   4343   8050   8046     1  0.0000000  1.6024720  3
   4343   8050   8046   8045     1  180.0000771  0.4184000  2
   4343   8050   8046   8045     1  0.0000000  1.6024720  3
   4343   8050   8046   8062     1  180.0000771  5.6484000  1
   4343   8050   8046   8062     1  180.0000771  3.5564000  2
   4343   8050   8046   8062     1  0.0000000  0.4184000  3
   4346   8073   8069   8085     1  180.0000771  5.6484000  1
   4346   8073   8069   8085     1  180.0000771  3.5564000  2
   4346   8073   8069   8085     1  0.0000000  0.4184000  3
   4346   8073   8069   8068     1  180.0000771  0.4184000  2
   4346   8073   8069   8068     1  0.0000000  1.6024720  3
   4350   4351   4363   4375     1  0.0000000  0.6508444  3
   4350   4354   4366   4372     1  0.0000000  0.6508444  3
   4350   4357   4360   4369     1  0.0000000  0.6508444  3
   4351   4350   4354   4366     1  180.0000771  2.0083200  2
   4351   4350   4354   4366     1  0.0000000  1.2552000  3
   4351   4350   4357   4360     1  180.0000771  2.0083200  2
   4351   4350   4357   4360     1  0.0000000  1.2552000  3
   4351   4363   4375   8119     1  0.0000000  0.6508444  3
   4354   4350   4351   4363     1  180.0000771  2.0083200  2
   4354   4350   4351   4363     1  0.0000000  1.2552000  3
   4354   4350   4357   4360     1  180.0000771  2.0083200  2
   4354   4350   4357   4360     1  0.0000000  1.2552000  3
   4354   4366   4372   8096     1  0.0000000  0.6508444  3
   4357   4350   4351   4363     1  180.0000771  2.0083200  2
   4357   4350   4351   4363     1  0.0000000  1.2552000  3
   4357   4350   4354   4366     1  180.0000771  2.0083200  2
   4357   4350   4354   4366     1  0.0000000  1.2552000  3
   4357   4360   4369   4378     1  0.0000000  0.6508444  3
   4363   4375   8119   8115     1  180.0000771  0.4184000  2
   4363   4375   8119   8115     1  0.0000000  1.6024720  3
   4366   4372   8096   8092     1  180.0000771  0.4184000  2
   4366   4372   8096   8092     1  0.0000000  1.6024720  3
   4372   8096   8092   8091     1  180.0000771  0.4184000  2
   4372   8096   8092   8091     1  0.0000000  1.6024720  3
   4372   8096   8092   8108     1  180.0000771  5.6484000  1
   4372   8096   8092   8108     1  180.0000771  3.5564000  2
   4372   8096   8092   8108     1  0.0000000  0.4184000  3
   4375   8119   8115   8131     1  180.0000771  5.6484000  1
   4375   8119   8115   8131     1  180.0000771  3.5564000  2
   4375   8119   8115   8131     1  0.0000000  0.4184000  3
   4375   8119   8115   8114     1  180.0000771  0.4184000  2
   4375   8119   8115   8114     1  0.0000000  1.6024720  3
   4379   4380   4392   4404     1  0.0000000  0.6508444  3
   4379   4383   4395   4401     1  0.0000000  0.6508444  3
   4379   4386   4389   4398     1  0.0000000  0.6508444  3
   4380   4379   4383   4395     1  180.0000771  2.0083200  2
   4380   4379   4383   4395     1  0.0000000  1.2552000  3
   4380   4379   4386   4389     1  180.0000771  2.0083200  2
   4380   4379   4386   4389     1  0.0000000  1.2552000  3
   4380   4392   4404   8165     1  0.0000000  0.6508444  3
   4383   4379   4380   4392     1  180.0000771  2.0083200  2
   4383   4379   4380   4392     1  0.0000000  1.2552000  3
   4383   4379   4386   4389     1  180.0000771  2.0083200  2
   4383   4379   4386   4389     1  0.0000000  1.2552000  3
   4383   4395   4401   8142     1  0.0000000  0.6508444  3
   4386   4379   4380   4392     1  180.0000771  2.0083200  2
   4386   4379   4380   4392     1  0.0000000  1.2552000  3
   4386   4379   4383   4395     1  180.0000771  2.0083200  2
   4386   4379   4383   4395     1  0.0000000  1.2552000  3
   4386   4389   4398   4407     1  0.0000000  0.6508444  3
   4392   4404   8165   8161     1  180.0000771  0.4184000  2
   4392   4404   8165   8161     1  0.0000000  1.6024720  3
   4395   4401   8142   8138     1  180.0000771  0.4184000  2
   4395   4401   8142   8138     1  0.0000000  1.6024720  3
   4401   8142   8138   8137     1  180.0000771  0.4184000  2
   4401   8142   8138   8137     1  0.0000000  1.6024720  3
   4401   8142   8138   8154     1  180.0000771  5.6484000  1
   4401   8142   8138   8154     1  180.0000771  3.5564000  2
   4401   8142   8138   8154     1  0.0000000  0.4184000  3
   4404   8165   8161   8177     1  180.0000771  5.6484000  1
   4404   8165   8161   8177     1  180.0000771  3.5564000  2
   4404   8165   8161   8177     1  0.0000000  0.4184000  3
   4404   8165   8161   8160     1  180.0000771  0.4184000  2
   4404   8165   8161   8160     1  0.0000000  1.6024720  3
   4408   4409   4421   4433     1  0.0000000  0.6508444  3
   4408   4412   4424   4430     1  0.0000000  0.6508444  3
   4408   4415   4418   4427     1  0.0000000  0.6508444  3
   4409   4408   4412   4424     1  180.0000771  2.0083200  2
   4409   4408   4412   4424     1  0.0000000  1.2552000  3
   4409   4408   4415   4418     1  180.0000771  2.0083200  2
   4409   4408   4415   4418     1  0.0000000  1.2552000  3
   4409   4421   4433   8211     1  0.0000000  0.6508444  3
   4412   4408   4409   4421     1  180.0000771  2.0083200  2
   4412   4408   4409   4421     1  0.0000000  1.2552000  3
   4412   4408   4415   4418     1  180.0000771  2.0083200  2
   4412   4408   4415   4418     1  0.0000000  1.2552000  3
   4412   4424   4430   8188     1  0.0000000  0.6508444  3
   4415   4408   4409   4421     1  180.0000771  2.0083200  2
   4415   4408   4409   4421     1  0.0000000  1.2552000  3
   4415   4408   4412   4424     1  180.0000771  2.0083200  2
   4415   4408   4412   4424     1  0.0000000  1.2552000  3
   4415   4418   4427   4436     1  0.0000000  0.6508444  3
   4421   4433   8211   8207     1  180.0000771  0.4184000  2
   4421   4433   8211   8207     1  0.0000000  1.6024720  3
   4424   4430   8188   8184     1  180.0000771  0.4184000  2
   4424   4430   8188   8184     1  0.0000000  1.6024720  3
   4430   8188   8184   8183     1  180.0000771  0.4184000  2
   4430   8188   8184   8183     1  0.0000000  1.6024720  3
   4430   8188   8184   8200     1  180.0000771  5.6484000  1
   4430   8188   8184   8200     1  180.0000771  3.5564000  2
   4430   8188   8184   8200     1  0.0000000  0.4184000  3
   4433   8211   8207   8223     1  180.0000771  5.6484000  1
   4433   8211   8207   8223     1  180.0000771  3.5564000  2
   4433   8211   8207   8223     1  0.0000000  0.4184000  3
   4433   8211   8207   8206     1  180.0000771  0.4184000  2
   4433   8211   8207   8206     1  0.0000000  1.6024720  3
   4437   4438   4450   4462     1  0.0000000  0.6508444  3
   4437   4441   4453   4459     1  0.0000000  0.6508444  3
   4437   4444   4447   4456     1  0.0000000  0.6508444  3
   4438   4437   4441   4453     1  180.0000771  2.0083200  2
   4438   4437   4441   4453     1  0.0000000  1.2552000  3
   4438   4437   4444   4447     1  180.0000771  2.0083200  2
   4438   4437   4444   4447     1  0.0000000  1.2552000  3
   4438   4450   4462   8257     1  0.0000000  0.6508444  3
   4441   4437   4438   4450     1  180.0000771  2.0083200  2
   4441   4437   4438   4450     1  0.0000000  1.2552000  3
   4441   4437   4444   4447     1  180.0000771  2.0083200  2
   4441   4437   4444   4447     1  0.0000000  1.2552000  3
   4441   4453   4459   8234     1  0.0000000  0.6508444  3
   4444   4437   4438   4450     1  180.0000771  2.0083200  2
   4444   4437   4438   4450     1  0.0000000  1.2552000  3
   4444   4437   4441   4453     1  180.0000771  2.0083200  2
   4444   4437   4441   4453     1  0.0000000  1.2552000  3
   4444   4447   4456   4465     1  0.0000000  0.6508444  3
   4450   4462   8257   8253     1  180.0000771  0.4184000  2
   4450   4462   8257   8253     1  0.0000000  1.6024720  3
   4453   4459   8234   8230     1  180.0000771  0.4184000  2
   4453   4459   8234   8230     1  0.0000000  1.6024720  3
   4459   8234   8230   8229     1  180.0000771  0.4184000  2
   4459   8234   8230   8229     1  0.0000000  1.6024720  3
   4459   8234   8230   8246     1  180.0000771  5.6484000  1
   4459   8234   8230   8246     1  180.0000771  3.5564000  2
   4459   8234   8230   8246     1  0.0000000  0.4184000  3
   4462   8257   8253   8269     1  180.0000771  5.6484000  1
   4462   8257   8253   8269     1  180.0000771  3.5564000  2
   4462   8257   8253   8269     1  0.0000000  0.4184000  3
   4462   8257   8253   8252     1  180.0000771  0.4184000  2
   4462   8257   8253   8252     1  0.0000000  1.6024720  3
   4466   4467   4479   4491     1  0.0000000  0.6508444  3
   4466   4470   4482   4488     1  0.0000000  0.6508444  3
   4466   4473   4476   4485     1  0.0000000  0.6508444  3
   4467   4466   4470   4482     1  180.0000771  2.0083200  2
   4467   4466   4470   4482     1  0.0000000  1.2552000  3
   4467   4466   4473   4476     1  180.0000771  2.0083200  2
   4467   4466   4473   4476     1  0.0000000  1.2552000  3
   4467   4479   4491   8303     1  0.0000000  0.6508444  3
   4470   4466   4467   4479     1  180.0000771  2.0083200  2
   4470   4466   4467   4479     1  0.0000000  1.2552000  3
   4470   4466   4473   4476     1  180.0000771  2.0083200  2
   4470   4466   4473   4476     1  0.0000000  1.2552000  3
   4470   4482   4488   8280     1  0.0000000  0.6508444  3
   4473   4466   4467   4479     1  180.0000771  2.0083200  2
   4473   4466   4467   4479     1  0.0000000  1.2552000  3
   4473   4466   4470   4482     1  180.0000771  2.0083200  2
   4473   4466   4470   4482     1  0.0000000  1.2552000  3
   4473   4476   4485   4494     1  0.0000000  0.6508444  3
   4479   4491   8303   8299     1  180.0000771  0.4184000  2
   4479   4491   8303   8299     1  0.0000000  1.6024720  3
   4482   4488   8280   8276     1  180.0000771  0.4184000  2
   4482   4488   8280   8276     1  0.0000000  1.6024720  3
   4488   8280   8276   8275     1  180.0000771  0.4184000  2
   4488   8280   8276   8275     1  0.0000000  1.6024720  3
   4488   8280   8276   8292     1  180.0000771  5.6484000  1
   4488   8280   8276   8292     1  180.0000771  3.5564000  2
   4488   8280   8276   8292     1  0.0000000  0.4184000  3
   4491   8303   8299   8315     1  180.0000771  5.6484000  1
   4491   8303   8299   8315     1  180.0000771  3.5564000  2
   4491   8303   8299   8315     1  0.0000000  0.4184000  3
   4491   8303   8299   8298     1  180.0000771  0.4184000  2
   4491   8303   8299   8298     1  0.0000000  1.6024720  3
   4495   4496   4508   4520     1  0.0000000  0.6508444  3
   4495   4499   4511   4517     1  0.0000000  0.6508444  3
   4495   4502   4505   4514     1  0.0000000  0.6508444  3
   4496   4495   4499   4511     1  180.0000771  2.0083200  2
   4496   4495   4499   4511     1  0.0000000  1.2552000  3
   4496   4495   4502   4505     1  180.0000771  2.0083200  2
   4496   4495   4502   4505     1  0.0000000  1.2552000  3
   4496   4508   4520   8349     1  0.0000000  0.6508444  3
   4499   4495   4496   4508     1  180.0000771  2.0083200  2
   4499   4495   4496   4508     1  0.0000000  1.2552000  3
   4499   4495   4502   4505     1  180.0000771  2.0083200  2
   4499   4495   4502   4505     1  0.0000000  1.2552000  3
   4499   4511   4517   8326     1  0.0000000  0.6508444  3
   4502   4495   4496   4508     1  180.0000771  2.0083200  2
   4502   4495   4496   4508     1  0.0000000  1.2552000  3
   4502   4495   4499   4511     1  180.0000771  2.0083200  2
   4502   4495   4499   4511     1  0.0000000  1.2552000  3
   4502   4505   4514   4523     1  0.0000000  0.6508444  3
   4508   4520   8349   8345     1  180.0000771  0.4184000  2
   4508   4520   8349   8345     1  0.0000000  1.6024720  3
   4511   4517   8326   8322     1  180.0000771  0.4184000  2
   4511   4517   8326   8322     1  0.0000000  1.6024720  3
   4517   8326   8322   8321     1  180.0000771  0.4184000  2
   4517   8326   8322   8321     1  0.0000000  1.6024720  3
   4517   8326   8322   8338     1  180.0000771  5.6484000  1
   4517   8326   8322   8338     1  180.0000771  3.5564000  2
   4517   8326   8322   8338     1  0.0000000  0.4184000  3
   4520   8349   8345   8361     1  180.0000771  5.6484000  1
   4520   8349   8345   8361     1  180.0000771  3.5564000  2
   4520   8349   8345   8361     1  0.0000000  0.4184000  3
   4520   8349   8345   8344     1  180.0000771  0.4184000  2
   4520   8349   8345   8344     1  0.0000000  1.6024720  3
   4524   4525   4537   4549     1  0.0000000  0.6508444  3
   4524   4528   4540   4546     1  0.0000000  0.6508444  3
   4524   4531   4534   4543     1  0.0000000  0.6508444  3
   4525   4524   4528   4540     1  180.0000771  2.0083200  2
   4525   4524   4528   4540     1  0.0000000  1.2552000  3
   4525   4524   4531   4534     1  180.0000771  2.0083200  2
   4525   4524   4531   4534     1  0.0000000  1.2552000  3
   4525   4537   4549   8395     1  0.0000000  0.6508444  3
   4528   4524   4525   4537     1  180.0000771  2.0083200  2
   4528   4524   4525   4537     1  0.0000000  1.2552000  3
   4528   4524   4531   4534     1  180.0000771  2.0083200  2
   4528   4524   4531   4534     1  0.0000000  1.2552000  3
   4528   4540   4546   8372     1  0.0000000  0.6508444  3
   4531   4524   4525   4537     1  180.0000771  2.0083200  2
   4531   4524   4525   4537     1  0.0000000  1.2552000  3
   4531   4524   4528   4540     1  180.0000771  2.0083200  2
   4531   4524   4528   4540     1  0.0000000  1.2552000  3
   4531   4534   4543   4552     1  0.0000000  0.6508444  3
   4537   4549   8395   8391     1  180.0000771  0.4184000  2
   4537   4549   8395   8391     1  0.0000000  1.6024720  3
   4540   4546   8372   8368     1  180.0000771  0.4184000  2
   4540   4546   8372   8368     1  0.0000000  1.6024720  3
   4546   8372   8368   8367     1  180.0000771  0.4184000  2
   4546   8372   8368   8367     1  0.0000000  1.6024720  3
   4546   8372   8368   8384     1  180.0000771  5.6484000  1
   4546   8372   8368   8384     1  180.0000771  3.5564000  2
   4546   8372   8368   8384     1  0.0000000  0.4184000  3
   4549   8395   8391   8407     1  180.0000771  5.6484000  1
   4549   8395   8391   8407     1  180.0000771  3.5564000  2
   4549   8395   8391   8407     1  0.0000000  0.4184000  3
   4549   8395   8391   8390     1  180.0000771  0.4184000  2
   4549   8395   8391   8390     1  0.0000000  1.6024720  3
   4553   4554   4566   4578     1  0.0000000  0.6508444  3
   4553   4557   4569   4575     1  0.0000000  0.6508444  3
   4553   4560   4563   4572     1  0.0000000  0.6508444  3
   4554   4553   4557   4569     1  180.0000771  2.0083200  2
   4554   4553   4557   4569     1  0.0000000  1.2552000  3
   4554   4553   4560   4563     1  180.0000771  2.0083200  2
   4554   4553   4560   4563     1  0.0000000  1.2552000  3
   4554   4566   4578   8441     1  0.0000000  0.6508444  3
   4557   4553   4554   4566     1  180.0000771  2.0083200  2
   4557   4553   4554   4566     1  0.0000000  1.2552000  3
   4557   4553   4560   4563     1  180.0000771  2.0083200  2
   4557   4553   4560   4563     1  0.0000000  1.2552000  3
   4557   4569   4575   8418     1  0.0000000  0.6508444  3
   4560   4553   4554   4566     1  180.0000771  2.0083200  2
   4560   4553   4554   4566     1  0.0000000  1.2552000  3
   4560   4553   4557   4569     1  180.0000771  2.0083200  2
   4560   4553   4557   4569     1  0.0000000  1.2552000  3
   4560   4563   4572   4581     1  0.0000000  0.6508444  3
   4566   4578   8441   8437     1  180.0000771  0.4184000  2
   4566   4578   8441   8437     1  0.0000000  1.6024720  3
   4569   4575   8418   8414     1  180.0000771  0.4184000  2
   4569   4575   8418   8414     1  0.0000000  1.6024720  3
   4575   8418   8414   8413     1  180.0000771  0.4184000  2
   4575   8418   8414   8413     1  0.0000000  1.6024720  3
   4575   8418   8414   8430     1  180.0000771  5.6484000  1
   4575   8418   8414   8430     1  180.0000771  3.5564000  2
   4575   8418   8414   8430     1  0.0000000  0.4184000  3
   4578   8441   8437   8453     1  180.0000771  5.6484000  1
   4578   8441   8437   8453     1  180.0000771  3.5564000  2
   4578   8441   8437   8453     1  0.0000000  0.4184000  3
   4578   8441   8437   8436     1  180.0000771  0.4184000  2
   4578   8441   8437   8436     1  0.0000000  1.6024720  3
   4582   4583   4595   4607     1  0.0000000  0.6508444  3
   4582   4586   4598   4604     1  0.0000000  0.6508444  3
   4582   4589   4592   4601     1  0.0000000  0.6508444  3
   4583   4582   4586   4598     1  180.0000771  2.0083200  2
   4583   4582   4586   4598     1  0.0000000  1.2552000  3
   4583   4582   4589   4592     1  180.0000771  2.0083200  2
   4583   4582   4589   4592     1  0.0000000  1.2552000  3
   4583   4595   4607   8487     1  0.0000000  0.6508444  3
   4586   4582   4583   4595     1  180.0000771  2.0083200  2
   4586   4582   4583   4595     1  0.0000000  1.2552000  3
   4586   4582   4589   4592     1  180.0000771  2.0083200  2
   4586   4582   4589   4592     1  0.0000000  1.2552000  3
   4586   4598   4604   8464     1  0.0000000  0.6508444  3
   4589   4582   4583   4595     1  180.0000771  2.0083200  2
   4589   4582   4583   4595     1  0.0000000  1.2552000  3
   4589   4582   4586   4598     1  180.0000771  2.0083200  2
   4589   4582   4586   4598     1  0.0000000  1.2552000  3
   4589   4592   4601   4610     1  0.0000000  0.6508444  3
   4595   4607   8487   8483     1  180.0000771  0.4184000  2
   4595   4607   8487   8483     1  0.0000000  1.6024720  3
   4598   4604   8464   8460     1  180.0000771  0.4184000  2
   4598   4604   8464   8460     1  0.0000000  1.6024720  3
   4604   8464   8460   8459     1  180.0000771  0.4184000  2
   4604   8464   8460   8459     1  0.0000000  1.6024720  3
   4604   8464   8460   8476     1  180.0000771  5.6484000  1
   4604   8464   8460   8476     1  180.0000771  3.5564000  2
   4604   8464   8460   8476     1  0.0000000  0.4184000  3
   4607   8487   8483   8499     1  180.0000771  5.6484000  1
   4607   8487   8483   8499     1  180.0000771  3.5564000  2
   4607   8487   8483   8499     1  0.0000000  0.4184000  3
   4607   8487   8483   8482     1  180.0000771  0.4184000  2
   4607   8487   8483   8482     1  0.0000000  1.6024720  3
   4611   4612   4624   4636     1  0.0000000  0.6508444  3
   4611   4615   4627   4633     1  0.0000000  0.6508444  3
   4611   4618   4621   4630     1  0.0000000  0.6508444  3
   4612   4611   4615   4627     1  180.0000771  2.0083200  2
   4612   4611   4615   4627     1  0.0000000  1.2552000  3
   4612   4611   4618   4621     1  180.0000771  2.0083200  2
   4612   4611   4618   4621     1  0.0000000  1.2552000  3
   4612   4624   4636   8533     1  0.0000000  0.6508444  3
   4615   4611   4612   4624     1  180.0000771  2.0083200  2
   4615   4611   4612   4624     1  0.0000000  1.2552000  3
   4615   4611   4618   4621     1  180.0000771  2.0083200  2
   4615   4611   4618   4621     1  0.0000000  1.2552000  3
   4615   4627   4633   8510     1  0.0000000  0.6508444  3
   4618   4611   4612   4624     1  180.0000771  2.0083200  2
   4618   4611   4612   4624     1  0.0000000  1.2552000  3
   4618   4611   4615   4627     1  180.0000771  2.0083200  2
   4618   4611   4615   4627     1  0.0000000  1.2552000  3
   4618   4621   4630   4639     1  0.0000000  0.6508444  3
   4624   4636   8533   8529     1  180.0000771  0.4184000  2
   4624   4636   8533   8529     1  0.0000000  1.6024720  3
   4627   4633   8510   8506     1  180.0000771  0.4184000  2
   4627   4633   8510   8506     1  0.0000000  1.6024720  3
   4633   8510   8506   8505     1  180.0000771  0.4184000  2
   4633   8510   8506   8505     1  0.0000000  1.6024720  3
   4633   8510   8506   8522     1  180.0000771  5.6484000  1
   4633   8510   8506   8522     1  180.0000771  3.5564000  2
   4633   8510   8506   8522     1  0.0000000  0.4184000  3
   4636   8533   8529   8545     1  180.0000771  5.6484000  1
   4636   8533   8529   8545     1  180.0000771  3.5564000  2
   4636   8533   8529   8545     1  0.0000000  0.4184000  3
   4636   8533   8529   8528     1  180.0000771  0.4184000  2
   4636   8533   8529   8528     1  0.0000000  1.6024720  3
   4640   4641   4653   4665     1  0.0000000  0.6508444  3
   4640   4644   4656   4662     1  0.0000000  0.6508444  3
   4640   4647   4650   4659     1  0.0000000  0.6508444  3
   4641   4640   4644   4656     1  180.0000771  2.0083200  2
   4641   4640   4644   4656     1  0.0000000  1.2552000  3
   4641   4640   4647   4650     1  180.0000771  2.0083200  2
   4641   4640   4647   4650     1  0.0000000  1.2552000  3
   4641   4653   4665   8579     1  0.0000000  0.6508444  3
   4644   4640   4641   4653     1  180.0000771  2.0083200  2
   4644   4640   4641   4653     1  0.0000000  1.2552000  3
   4644   4640   4647   4650     1  180.0000771  2.0083200  2
   4644   4640   4647   4650     1  0.0000000  1.2552000  3
   4644   4656   4662   8556     1  0.0000000  0.6508444  3
   4647   4640   4641   4653     1  180.0000771  2.0083200  2
   4647   4640   4641   4653     1  0.0000000  1.2552000  3
   4647   4640   4644   4656     1  180.0000771  2.0083200  2
   4647   4640   4644   4656     1  0.0000000  1.2552000  3
   4647   4650   4659   4668     1  0.0000000  0.6508444  3
   4653   4665   8579   8575     1  180.0000771  0.4184000  2
   4653   4665   8579   8575     1  0.0000000  1.6024720  3
   4656   4662   8556   8552     1  180.0000771  0.4184000  2
   4656   4662   8556   8552     1  0.0000000  1.6024720  3
   4662   8556   8552   8551     1  180.0000771  0.4184000  2
   4662   8556   8552   8551     1  0.0000000  1.6024720  3
   4662   8556   8552   8568     1  180.0000771  5.6484000  1
   4662   8556   8552   8568     1  180.0000771  3.5564000  2
   4662   8556   8552   8568     1  0.0000000  0.4184000  3
   4665   8579   8575   8591     1  180.0000771  5.6484000  1
   4665   8579   8575   8591     1  180.0000771  3.5564000  2
   4665   8579   8575   8591     1  0.0000000  0.4184000  3
   4665   8579   8575   8574     1  180.0000771  0.4184000  2
   4665   8579   8575   8574     1  0.0000000  1.6024720  3
   4669   4670   4682   4694     1  0.0000000  0.6508444  3
   4669   4673   4685   4691     1  0.0000000  0.6508444  3
   4669   4676   4679   4688     1  0.0000000  0.6508444  3
   4670   4669   4673   4685     1  180.0000771  2.0083200  2
   4670   4669   4673   4685     1  0.0000000  1.2552000  3
   4670   4669   4676   4679     1  180.0000771  2.0083200  2
   4670   4669   4676   4679     1  0.0000000  1.2552000  3
   4670   4682   4694   8625     1  0.0000000  0.6508444  3
   4673   4669   4670   4682     1  180.0000771  2.0083200  2
   4673   4669   4670   4682     1  0.0000000  1.2552000  3
   4673   4669   4676   4679     1  180.0000771  2.0083200  2
   4673   4669   4676   4679     1  0.0000000  1.2552000  3
   4673   4685   4691   8602     1  0.0000000  0.6508444  3
   4676   4669   4670   4682     1  180.0000771  2.0083200  2
   4676   4669   4670   4682     1  0.0000000  1.2552000  3
   4676   4669   4673   4685     1  180.0000771  2.0083200  2
   4676   4669   4673   4685     1  0.0000000  1.2552000  3
   4676   4679   4688   4697     1  0.0000000  0.6508444  3
   4682   4694   8625   8621     1  180.0000771  0.4184000  2
   4682   4694   8625   8621     1  0.0000000  1.6024720  3
   4685   4691   8602   8598     1  180.0000771  0.4184000  2
   4685   4691   8602   8598     1  0.0000000  1.6024720  3
   4691   8602   8598   8597     1  180.0000771  0.4184000  2
   4691   8602   8598   8597     1  0.0000000  1.6024720  3
   4691   8602   8598   8614     1  180.0000771  5.6484000  1
   4691   8602   8598   8614     1  180.0000771  3.5564000  2
   4691   8602   8598   8614     1  0.0000000  0.4184000  3
   4694   8625   8621   8637     1  180.0000771  5.6484000  1
   4694   8625   8621   8637     1  180.0000771  3.5564000  2
   4694   8625   8621   8637     1  0.0000000  0.4184000  3
   4694   8625   8621   8620     1  180.0000771  0.4184000  2
   4694   8625   8621   8620     1  0.0000000  1.6024720  3
   4698   4699   4711   4723     1  0.0000000  0.6508444  3
   4698   4702   4714   4720     1  0.0000000  0.6508444  3
   4698   4705   4708   4717     1  0.0000000  0.6508444  3
   4699   4698   4702   4714     1  180.0000771  2.0083200  2
   4699   4698   4702   4714     1  0.0000000  1.2552000  3
   4699   4698   4705   4708     1  180.0000771  2.0083200  2
   4699   4698   4705   4708     1  0.0000000  1.2552000  3
   4699   4711   4723   8671     1  0.0000000  0.6508444  3
   4702   4698   4699   4711     1  180.0000771  2.0083200  2
   4702   4698   4699   4711     1  0.0000000  1.2552000  3
   4702   4698   4705   4708     1  180.0000771  2.0083200  2
   4702   4698   4705   4708     1  0.0000000  1.2552000  3
   4702   4714   4720   8648     1  0.0000000  0.6508444  3
   4705   4698   4699   4711     1  180.0000771  2.0083200  2
   4705   4698   4699   4711     1  0.0000000  1.2552000  3
   4705   4698   4702   4714     1  180.0000771  2.0083200  2
   4705   4698   4702   4714     1  0.0000000  1.2552000  3
   4705   4708   4717   4726     1  0.0000000  0.6508444  3
   4711   4723   8671   8667     1  180.0000771  0.4184000  2
   4711   4723   8671   8667     1  0.0000000  1.6024720  3
   4714   4720   8648   8644     1  180.0000771  0.4184000  2
   4714   4720   8648   8644     1  0.0000000  1.6024720  3
   4720   8648   8644   8643     1  180.0000771  0.4184000  2
   4720   8648   8644   8643     1  0.0000000  1.6024720  3
   4720   8648   8644   8660     1  180.0000771  5.6484000  1
   4720   8648   8644   8660     1  180.0000771  3.5564000  2
   4720   8648   8644   8660     1  0.0000000  0.4184000  3
   4723   8671   8667   8683     1  180.0000771  5.6484000  1
   4723   8671   8667   8683     1  180.0000771  3.5564000  2
   4723   8671   8667   8683     1  0.0000000  0.4184000  3
   4723   8671   8667   8666     1  180.0000771  0.4184000  2
   4723   8671   8667   8666     1  0.0000000  1.6024720  3
   4727   4728   4740   4752     1  0.0000000  0.6508444  3
   4727   4731   4743   4749     1  0.0000000  0.6508444  3
   4727   4734   4737   4746     1  0.0000000  0.6508444  3
   4728   4727   4731   4743     1  180.0000771  2.0083200  2
   4728   4727   4731   4743     1  0.0000000  1.2552000  3
   4728   4727   4734   4737     1  180.0000771  2.0083200  2
   4728   4727   4734   4737     1  0.0000000  1.2552000  3
   4728   4740   4752   8717     1  0.0000000  0.6508444  3
   4731   4727   4728   4740     1  180.0000771  2.0083200  2
   4731   4727   4728   4740     1  0.0000000  1.2552000  3
   4731   4727   4734   4737     1  180.0000771  2.0083200  2
   4731   4727   4734   4737     1  0.0000000  1.2552000  3
   4731   4743   4749   8694     1  0.0000000  0.6508444  3
   4734   4727   4728   4740     1  180.0000771  2.0083200  2
   4734   4727   4728   4740     1  0.0000000  1.2552000  3
   4734   4727   4731   4743     1  180.0000771  2.0083200  2
   4734   4727   4731   4743     1  0.0000000  1.2552000  3
   4734   4737   4746   4755     1  0.0000000  0.6508444  3
   4740   4752   8717   8713     1  180.0000771  0.4184000  2
   4740   4752   8717   8713     1  0.0000000  1.6024720  3
   4743   4749   8694   8690     1  180.0000771  0.4184000  2
   4743   4749   8694   8690     1  0.0000000  1.6024720  3
   4749   8694   8690   8689     1  180.0000771  0.4184000  2
   4749   8694   8690   8689     1  0.0000000  1.6024720  3
   4749   8694   8690   8706     1  180.0000771  5.6484000  1
   4749   8694   8690   8706     1  180.0000771  3.5564000  2
   4749   8694   8690   8706     1  0.0000000  0.4184000  3
   4752   8717   8713   8729     1  180.0000771  5.6484000  1
   4752   8717   8713   8729     1  180.0000771  3.5564000  2
   4752   8717   8713   8729     1  0.0000000  0.4184000  3
   4752   8717   8713   8712     1  180.0000771  0.4184000  2
   4752   8717   8713   8712     1  0.0000000  1.6024720  3
   4756   4757   4769   4781     1  0.0000000  0.6508444  3
   4756   4760   4772   4778     1  0.0000000  0.6508444  3
   4756   4763   4766   4775     1  0.0000000  0.6508444  3
   4757   4756   4760   4772     1  180.0000771  2.0083200  2
   4757   4756   4760   4772     1  0.0000000  1.2552000  3
   4757   4756   4763   4766     1  180.0000771  2.0083200  2
   4757   4756   4763   4766     1  0.0000000  1.2552000  3
   4757   4769   4781   8763     1  0.0000000  0.6508444  3
   4760   4756   4757   4769     1  180.0000771  2.0083200  2
   4760   4756   4757   4769     1  0.0000000  1.2552000  3
   4760   4756   4763   4766     1  180.0000771  2.0083200  2
   4760   4756   4763   4766     1  0.0000000  1.2552000  3
   4760   4772   4778   8740     1  0.0000000  0.6508444  3
   4763   4756   4757   4769     1  180.0000771  2.0083200  2
   4763   4756   4757   4769     1  0.0000000  1.2552000  3
   4763   4756   4760   4772     1  180.0000771  2.0083200  2
   4763   4756   4760   4772     1  0.0000000  1.2552000  3
   4763   4766   4775   4784     1  0.0000000  0.6508444  3
   4769   4781   8763   8759     1  180.0000771  0.4184000  2
   4769   4781   8763   8759     1  0.0000000  1.6024720  3
   4772   4778   8740   8736     1  180.0000771  0.4184000  2
   4772   4778   8740   8736     1  0.0000000  1.6024720  3
   4778   8740   8736   8735     1  180.0000771  0.4184000  2
   4778   8740   8736   8735     1  0.0000000  1.6024720  3
   4778   8740   8736   8752     1  180.0000771  5.6484000  1
   4778   8740   8736   8752     1  180.0000771  3.5564000  2
   4778   8740   8736   8752     1  0.0000000  0.4184000  3
   4781   8763   8759   8775     1  180.0000771  5.6484000  1
   4781   8763   8759   8775     1  180.0000771  3.5564000  2
   4781   8763   8759   8775     1  0.0000000  0.4184000  3
   4781   8763   8759   8758     1  180.0000771  0.4184000  2
   4781   8763   8759   8758     1  0.0000000  1.6024720  3
   4785   4786   4798   4810     1  0.0000000  0.6508444  3
   4785   4789   4801   4807     1  0.0000000  0.6508444  3
   4785   4792   4795   4804     1  0.0000000  0.6508444  3
   4786   4785   4789   4801     1  180.0000771  2.0083200  2
   4786   4785   4789   4801     1  0.0000000  1.2552000  3
   4786   4785   4792   4795     1  180.0000771  2.0083200  2
   4786   4785   4792   4795     1  0.0000000  1.2552000  3
   4786   4798   4810   8809     1  0.0000000  0.6508444  3
   4789   4785   4786   4798     1  180.0000771  2.0083200  2
   4789   4785   4786   4798     1  0.0000000  1.2552000  3
   4789   4785   4792   4795     1  180.0000771  2.0083200  2
   4789   4785   4792   4795     1  0.0000000  1.2552000  3
   4789   4801   4807   8786     1  0.0000000  0.6508444  3
   4792   4785   4786   4798     1  180.0000771  2.0083200  2
   4792   4785   4786   4798     1  0.0000000  1.2552000  3
   4792   4785   4789   4801     1  180.0000771  2.0083200  2
   4792   4785   4789   4801     1  0.0000000  1.2552000  3
   4792   4795   4804   4813     1  0.0000000  0.6508444  3
   4798   4810   8809   8805     1  180.0000771  0.4184000  2
   4798   4810   8809   8805     1  0.0000000  1.6024720  3
   4801   4807   8786   8782     1  180.0000771  0.4184000  2
   4801   4807   8786   8782     1  0.0000000  1.6024720  3
   4807   8786   8782   8781     1  180.0000771  0.4184000  2
   4807   8786   8782   8781     1  0.0000000  1.6024720  3
   4807   8786   8782   8798     1  180.0000771  5.6484000  1
   4807   8786   8782   8798     1  180.0000771  3.5564000  2
   4807   8786   8782   8798     1  0.0000000  0.4184000  3
   4810   8809   8805   8821     1  180.0000771  5.6484000  1
   4810   8809   8805   8821     1  180.0000771  3.5564000  2
   4810   8809   8805   8821     1  0.0000000  0.4184000  3
   4810   8809   8805   8804     1  180.0000771  0.4184000  2
   4810   8809   8805   8804     1  0.0000000  1.6024720  3
   4814   4815   4827   4839     1  0.0000000  0.6508444  3
   4814   4818   4830   4836     1  0.0000000  0.6508444  3
   4814   4821   4824   4833     1  0.0000000  0.6508444  3
   4815   4814   4818   4830     1  180.0000771  2.0083200  2
   4815   4814   4818   4830     1  0.0000000  1.2552000  3
   4815   4814   4821   4824     1  180.0000771  2.0083200  2
   4815   4814   4821   4824     1  0.0000000  1.2552000  3
   4815   4827   4839   8855     1  0.0000000  0.6508444  3
   4818   4814   4815   4827     1  180.0000771  2.0083200  2
   4818   4814   4815   4827     1  0.0000000  1.2552000  3
   4818   4814   4821   4824     1  180.0000771  2.0083200  2
   4818   4814   4821   4824     1  0.0000000  1.2552000  3
   4818   4830   4836   8832     1  0.0000000  0.6508444  3
   4821   4814   4815   4827     1  180.0000771  2.0083200  2
   4821   4814   4815   4827     1  0.0000000  1.2552000  3
   4821   4814   4818   4830     1  180.0000771  2.0083200  2
   4821   4814   4818   4830     1  0.0000000  1.2552000  3
   4821   4824   4833   4842     1  0.0000000  0.6508444  3
   4827   4839   8855   8851     1  180.0000771  0.4184000  2
   4827   4839   8855   8851     1  0.0000000  1.6024720  3
   4830   4836   8832   8828     1  180.0000771  0.4184000  2
   4830   4836   8832   8828     1  0.0000000  1.6024720  3
   4836   8832   8828   8827     1  180.0000771  0.4184000  2
   4836   8832   8828   8827     1  0.0000000  1.6024720  3
   4836   8832   8828   8844     1  180.0000771  5.6484000  1
   4836   8832   8828   8844     1  180.0000771  3.5564000  2
   4836   8832   8828   8844     1  0.0000000  0.4184000  3
   4839   8855   8851   8867     1  180.0000771  5.6484000  1
   4839   8855   8851   8867     1  180.0000771  3.5564000  2
   4839   8855   8851   8867     1  0.0000000  0.4184000  3
   4839   8855   8851   8850     1  180.0000771  0.4184000  2
   4839   8855   8851   8850     1  0.0000000  1.6024720  3
   4843   4844   4856   4868     1  0.0000000  0.6508444  3
   4843   4847   4859   4865     1  0.0000000  0.6508444  3
   4843   4850   4853   4862     1  0.0000000  0.6508444  3
   4844   4843   4847   4859     1  180.0000771  2.0083200  2
   4844   4843   4847   4859     1  0.0000000  1.2552000  3
   4844   4843   4850   4853     1  180.0000771  2.0083200  2
   4844   4843   4850   4853     1  0.0000000  1.2552000  3
   4844   4856   4868   8901     1  0.0000000  0.6508444  3
   4847   4843   4844   4856     1  180.0000771  2.0083200  2
   4847   4843   4844   4856     1  0.0000000  1.2552000  3
   4847   4843   4850   4853     1  180.0000771  2.0083200  2
   4847   4843   4850   4853     1  0.0000000  1.2552000  3
   4847   4859   4865   8878     1  0.0000000  0.6508444  3
   4850   4843   4844   4856     1  180.0000771  2.0083200  2
   4850   4843   4844   4856     1  0.0000000  1.2552000  3
   4850   4843   4847   4859     1  180.0000771  2.0083200  2
   4850   4843   4847   4859     1  0.0000000  1.2552000  3
   4850   4853   4862   4871     1  0.0000000  0.6508444  3
   4856   4868   8901   8897     1  180.0000771  0.4184000  2
   4856   4868   8901   8897     1  0.0000000  1.6024720  3
   4859   4865   8878   8874     1  180.0000771  0.4184000  2
   4859   4865   8878   8874     1  0.0000000  1.6024720  3
   4865   8878   8874   8873     1  180.0000771  0.4184000  2
   4865   8878   8874   8873     1  0.0000000  1.6024720  3
   4865   8878   8874   8890     1  180.0000771  5.6484000  1
   4865   8878   8874   8890     1  180.0000771  3.5564000  2
   4865   8878   8874   8890     1  0.0000000  0.4184000  3
   4868   8901   8897   8913     1  180.0000771  5.6484000  1
   4868   8901   8897   8913     1  180.0000771  3.5564000  2
   4868   8901   8897   8913     1  0.0000000  0.4184000  3
   4868   8901   8897   8896     1  180.0000771  0.4184000  2
   4868   8901   8897   8896     1  0.0000000  1.6024720  3
   4872   4873   4885   4897     1  0.0000000  0.6508444  3
   4872   4876   4888   4894     1  0.0000000  0.6508444  3
   4872   4879   4882   4891     1  0.0000000  0.6508444  3
   4873   4872   4876   4888     1  180.0000771  2.0083200  2
   4873   4872   4876   4888     1  0.0000000  1.2552000  3
   4873   4872   4879   4882     1  180.0000771  2.0083200  2
   4873   4872   4879   4882     1  0.0000000  1.2552000  3
   4873   4885   4897   8947     1  0.0000000  0.6508444  3
   4876   4872   4873   4885     1  180.0000771  2.0083200  2
   4876   4872   4873   4885     1  0.0000000  1.2552000  3
   4876   4872   4879   4882     1  180.0000771  2.0083200  2
   4876   4872   4879   4882     1  0.0000000  1.2552000  3
   4876   4888   4894   8924     1  0.0000000  0.6508444  3
   4879   4872   4873   4885     1  180.0000771  2.0083200  2
   4879   4872   4873   4885     1  0.0000000  1.2552000  3
   4879   4872   4876   4888     1  180.0000771  2.0083200  2
   4879   4872   4876   4888     1  0.0000000  1.2552000  3
   4879   4882   4891   4900     1  0.0000000  0.6508444  3
   4885   4897   8947   8943     1  180.0000771  0.4184000  2
   4885   4897   8947   8943     1  0.0000000  1.6024720  3
   4888   4894   8924   8920     1  180.0000771  0.4184000  2
   4888   4894   8924   8920     1  0.0000000  1.6024720  3
   4894   8924   8920   8919     1  180.0000771  0.4184000  2
   4894   8924   8920   8919     1  0.0000000  1.6024720  3
   4894   8924   8920   8936     1  180.0000771  5.6484000  1
   4894   8924   8920   8936     1  180.0000771  3.5564000  2
   4894   8924   8920   8936     1  0.0000000  0.4184000  3
   4897   8947   8943   8959     1  180.0000771  5.6484000  1
   4897   8947   8943   8959     1  180.0000771  3.5564000  2
   4897   8947   8943   8959     1  0.0000000  0.4184000  3
   4897   8947   8943   8942     1  180.0000771  0.4184000  2
   4897   8947   8943   8942     1  0.0000000  1.6024720  3
   4901   4902   4914   4926     1  0.0000000  0.6508444  3
   4901   4905   4917   4923     1  0.0000000  0.6508444  3
   4901   4908   4911   4920     1  0.0000000  0.6508444  3
   4902   4901   4905   4917     1  180.0000771  2.0083200  2
   4902   4901   4905   4917     1  0.0000000  1.2552000  3
   4902   4901   4908   4911     1  180.0000771  2.0083200  2
   4902   4901   4908   4911     1  0.0000000  1.2552000  3
   4902   4914   4926   8993     1  0.0000000  0.6508444  3
   4905   4901   4902   4914     1  180.0000771  2.0083200  2
   4905   4901   4902   4914     1  0.0000000  1.2552000  3
   4905   4901   4908   4911     1  180.0000771  2.0083200  2
   4905   4901   4908   4911     1  0.0000000  1.2552000  3
   4905   4917   4923   8970     1  0.0000000  0.6508444  3
   4908   4901   4902   4914     1  180.0000771  2.0083200  2
   4908   4901   4902   4914     1  0.0000000  1.2552000  3
   4908   4901   4905   4917     1  180.0000771  2.0083200  2
   4908   4901   4905   4917     1  0.0000000  1.2552000  3
   4908   4911   4920   4929     1  0.0000000  0.6508444  3
   4914   4926   8993   8989     1  180.0000771  0.4184000  2
   4914   4926   8993   8989     1  0.0000000  1.6024720  3
   4917   4923   8970   8966     1  180.0000771  0.4184000  2
   4917   4923   8970   8966     1  0.0000000  1.6024720  3
   4923   8970   8966   8965     1  180.0000771  0.4184000  2
   4923   8970   8966   8965     1  0.0000000  1.6024720  3
   4923   8970   8966   8982     1  180.0000771  5.6484000  1
   4923   8970   8966   8982     1  180.0000771  3.5564000  2
   4923   8970   8966   8982     1  0.0000000  0.4184000  3
   4926   8993   8989   9005     1  180.0000771  5.6484000  1
   4926   8993   8989   9005     1  180.0000771  3.5564000  2
   4926   8993   8989   9005     1  0.0000000  0.4184000  3
   4926   8993   8989   8988     1  180.0000771  0.4184000  2
   4926   8993   8989   8988     1  0.0000000  1.6024720  3
   4930   4931   4943   4955     1  0.0000000  0.6508444  3
   4930   4934   4946   4952     1  0.0000000  0.6508444  3
   4930   4937   4940   4949     1  0.0000000  0.6508444  3
   4931   4930   4934   4946     1  180.0000771  2.0083200  2
   4931   4930   4934   4946     1  0.0000000  1.2552000  3
   4931   4930   4937   4940     1  180.0000771  2.0083200  2
   4931   4930   4937   4940     1  0.0000000  1.2552000  3
   4931   4943   4955   9039     1  0.0000000  0.6508444  3
   4934   4930   4931   4943     1  180.0000771  2.0083200  2
   4934   4930   4931   4943     1  0.0000000  1.2552000  3
   4934   4930   4937   4940     1  180.0000771  2.0083200  2
   4934   4930   4937   4940     1  0.0000000  1.2552000  3
   4934   4946   4952   9016     1  0.0000000  0.6508444  3
   4937   4930   4931   4943     1  180.0000771  2.0083200  2
   4937   4930   4931   4943     1  0.0000000  1.2552000  3
   4937   4930   4934   4946     1  180.0000771  2.0083200  2
   4937   4930   4934   4946     1  0.0000000  1.2552000  3
   4937   4940   4949   4958     1  0.0000000  0.6508444  3
   4943   4955   9039   9035     1  180.0000771  0.4184000  2
   4943   4955   9039   9035     1  0.0000000  1.6024720  3
   4946   4952   9016   9012     1  180.0000771  0.4184000  2
   4946   4952   9016   9012     1  0.0000000  1.6024720  3
   4952   9016   9012   9011     1  180.0000771  0.4184000  2
   4952   9016   9012   9011     1  0.0000000  1.6024720  3
   4952   9016   9012   9028     1  180.0000771  5.6484000  1
   4952   9016   9012   9028     1  180.0000771  3.5564000  2
   4952   9016   9012   9028     1  0.0000000  0.4184000  3
   4955   9039   9035   9051     1  180.0000771  5.6484000  1
   4955   9039   9035   9051     1  180.0000771  3.5564000  2
   4955   9039   9035   9051     1  0.0000000  0.4184000  3
   4955   9039   9035   9034     1  180.0000771  0.4184000  2
   4955   9039   9035   9034     1  0.0000000  1.6024720  3
   4959   4960   4972   4984     1  0.0000000  0.6508444  3
   4959   4963   4975   4981     1  0.0000000  0.6508444  3
   4959   4966   4969   4978     1  0.0000000  0.6508444  3
   4960   4959   4963   4975     1  180.0000771  2.0083200  2
   4960   4959   4963   4975     1  0.0000000  1.2552000  3
   4960   4959   4966   4969     1  180.0000771  2.0083200  2
   4960   4959   4966   4969     1  0.0000000  1.2552000  3
   4960   4972   4984   9085     1  0.0000000  0.6508444  3
   4963   4959   4960   4972     1  180.0000771  2.0083200  2
   4963   4959   4960   4972     1  0.0000000  1.2552000  3
   4963   4959   4966   4969     1  180.0000771  2.0083200  2
   4963   4959   4966   4969     1  0.0000000  1.2552000  3
   4963   4975   4981   9062     1  0.0000000  0.6508444  3
   4966   4959   4960   4972     1  180.0000771  2.0083200  2
   4966   4959   4960   4972     1  0.0000000  1.2552000  3
   4966   4959   4963   4975     1  180.0000771  2.0083200  2
   4966   4959   4963   4975     1  0.0000000  1.2552000  3
   4966   4969   4978   4987     1  0.0000000  0.6508444  3
   4972   4984   9085   9081     1  180.0000771  0.4184000  2
   4972   4984   9085   9081     1  0.0000000  1.6024720  3
   4975   4981   9062   9058     1  180.0000771  0.4184000  2
   4975   4981   9062   9058     1  0.0000000  1.6024720  3
   4981   9062   9058   9057     1  180.0000771  0.4184000  2
   4981   9062   9058   9057     1  0.0000000  1.6024720  3
   4981   9062   9058   9074     1  180.0000771  5.6484000  1
   4981   9062   9058   9074     1  180.0000771  3.5564000  2
   4981   9062   9058   9074     1  0.0000000  0.4184000  3
   4984   9085   9081   9097     1  180.0000771  5.6484000  1
   4984   9085   9081   9097     1  180.0000771  3.5564000  2
   4984   9085   9081   9097     1  0.0000000  0.4184000  3
   4984   9085   9081   9080     1  180.0000771  0.4184000  2
   4984   9085   9081   9080     1  0.0000000  1.6024720  3
   4988   4989   5001   5013     1  0.0000000  0.6508444  3
   4988   4992   5004   5010     1  0.0000000  0.6508444  3
   4988   4995   4998   5007     1  0.0000000  0.6508444  3
   4989   4988   4992   5004     1  180.0000771  2.0083200  2
   4989   4988   4992   5004     1  0.0000000  1.2552000  3
   4989   4988   4995   4998     1  180.0000771  2.0083200  2
   4989   4988   4995   4998     1  0.0000000  1.2552000  3
   4989   5001   5013   9131     1  0.0000000  0.6508444  3
   4992   4988   4989   5001     1  180.0000771  2.0083200  2
   4992   4988   4989   5001     1  0.0000000  1.2552000  3
   4992   4988   4995   4998     1  180.0000771  2.0083200  2
   4992   4988   4995   4998     1  0.0000000  1.2552000  3
   4992   5004   5010   9108     1  0.0000000  0.6508444  3
   4995   4988   4989   5001     1  180.0000771  2.0083200  2
   4995   4988   4989   5001     1  0.0000000  1.2552000  3
   4995   4988   4992   5004     1  180.0000771  2.0083200  2
   4995   4988   4992   5004     1  0.0000000  1.2552000  3
   4995   4998   5007   5016     1  0.0000000  0.6508444  3
   5001   5013   9131   9127     1  180.0000771  0.4184000  2
   5001   5013   9131   9127     1  0.0000000  1.6024720  3
   5004   5010   9108   9104     1  180.0000771  0.4184000  2
   5004   5010   9108   9104     1  0.0000000  1.6024720  3
   5010   9108   9104   9103     1  180.0000771  0.4184000  2
   5010   9108   9104   9103     1  0.0000000  1.6024720  3
   5010   9108   9104   9120     1  180.0000771  5.6484000  1
   5010   9108   9104   9120     1  180.0000771  3.5564000  2
   5010   9108   9104   9120     1  0.0000000  0.4184000  3
   5013   9131   9127   9143     1  180.0000771  5.6484000  1
   5013   9131   9127   9143     1  180.0000771  3.5564000  2
   5013   9131   9127   9143     1  0.0000000  0.4184000  3
   5013   9131   9127   9126     1  180.0000771  0.4184000  2
   5013   9131   9127   9126     1  0.0000000  1.6024720  3
   5017   5018   5030   5042     1  0.0000000  0.6508444  3
   5017   5021   5033   5039     1  0.0000000  0.6508444  3
   5017   5024   5027   5036     1  0.0000000  0.6508444  3
   5018   5017   5021   5033     1  180.0000771  2.0083200  2
   5018   5017   5021   5033     1  0.0000000  1.2552000  3
   5018   5017   5024   5027     1  180.0000771  2.0083200  2
   5018   5017   5024   5027     1  0.0000000  1.2552000  3
   5018   5030   5042   9177     1  0.0000000  0.6508444  3
   5021   5017   5018   5030     1  180.0000771  2.0083200  2
   5021   5017   5018   5030     1  0.0000000  1.2552000  3
   5021   5017   5024   5027     1  180.0000771  2.0083200  2
   5021   5017   5024   5027     1  0.0000000  1.2552000  3
   5021   5033   5039   9154     1  0.0000000  0.6508444  3
   5024   5017   5018   5030     1  180.0000771  2.0083200  2
   5024   5017   5018   5030     1  0.0000000  1.2552000  3
   5024   5017   5021   5033     1  180.0000771  2.0083200  2
   5024   5017   5021   5033     1  0.0000000  1.2552000  3
   5024   5027   5036   5045     1  0.0000000  0.6508444  3
   5030   5042   9177   9173     1  180.0000771  0.4184000  2
   5030   5042   9177   9173     1  0.0000000  1.6024720  3
   5033   5039   9154   9150     1  180.0000771  0.4184000  2
   5033   5039   9154   9150     1  0.0000000  1.6024720  3
   5039   9154   9150   9149     1  180.0000771  0.4184000  2
   5039   9154   9150   9149     1  0.0000000  1.6024720  3
   5039   9154   9150   9166     1  180.0000771  5.6484000  1
   5039   9154   9150   9166     1  180.0000771  3.5564000  2
   5039   9154   9150   9166     1  0.0000000  0.4184000  3
   5042   9177   9173   9189     1  180.0000771  5.6484000  1
   5042   9177   9173   9189     1  180.0000771  3.5564000  2
   5042   9177   9173   9189     1  0.0000000  0.4184000  3
   5042   9177   9173   9172     1  180.0000771  0.4184000  2
   5042   9177   9173   9172     1  0.0000000  1.6024720  3
   5046   5047   5059   5071     1  0.0000000  0.6508444  3
   5046   5050   5062   5068     1  0.0000000  0.6508444  3
   5046   5053   5056   5065     1  0.0000000  0.6508444  3
   5047   5046   5050   5062     1  180.0000771  2.0083200  2
   5047   5046   5050   5062     1  0.0000000  1.2552000  3
   5047   5046   5053   5056     1  180.0000771  2.0083200  2
   5047   5046   5053   5056     1  0.0000000  1.2552000  3
   5047   5059   5071   9223     1  0.0000000  0.6508444  3
   5050   5046   5047   5059     1  180.0000771  2.0083200  2
   5050   5046   5047   5059     1  0.0000000  1.2552000  3
   5050   5046   5053   5056     1  180.0000771  2.0083200  2
   5050   5046   5053   5056     1  0.0000000  1.2552000  3
   5050   5062   5068   9200     1  0.0000000  0.6508444  3
   5053   5046   5047   5059     1  180.0000771  2.0083200  2
   5053   5046   5047   5059     1  0.0000000  1.2552000  3
   5053   5046   5050   5062     1  180.0000771  2.0083200  2
   5053   5046   5050   5062     1  0.0000000  1.2552000  3
   5053   5056   5065   5074     1  0.0000000  0.6508444  3
   5059   5071   9223   9219     1  180.0000771  0.4184000  2
   5059   5071   9223   9219     1  0.0000000  1.6024720  3
   5062   5068   9200   9196     1  180.0000771  0.4184000  2
   5062   5068   9200   9196     1  0.0000000  1.6024720  3
   5068   9200   9196   9195     1  180.0000771  0.4184000  2
   5068   9200   9196   9195     1  0.0000000  1.6024720  3
   5068   9200   9196   9212     1  180.0000771  5.6484000  1
   5068   9200   9196   9212     1  180.0000771  3.5564000  2
   5068   9200   9196   9212     1  0.0000000  0.4184000  3
   5071   9223   9219   9235     1  180.0000771  5.6484000  1
   5071   9223   9219   9235     1  180.0000771  3.5564000  2
   5071   9223   9219   9235     1  0.0000000  0.4184000  3
   5071   9223   9219   9218     1  180.0000771  0.4184000  2
   5071   9223   9219   9218     1  0.0000000  1.6024720  3
   5075   5076   5088   5100     1  0.0000000  0.6508444  3
   5075   5079   5091   5097     1  0.0000000  0.6508444  3
   5075   5082   5085   5094     1  0.0000000  0.6508444  3
   5076   5075   5079   5091     1  180.0000771  2.0083200  2
   5076   5075   5079   5091     1  0.0000000  1.2552000  3
   5076   5075   5082   5085     1  180.0000771  2.0083200  2
   5076   5075   5082   5085     1  0.0000000  1.2552000  3
   5076   5088   5100   9269     1  0.0000000  0.6508444  3
   5079   5075   5076   5088     1  180.0000771  2.0083200  2
   5079   5075   5076   5088     1  0.0000000  1.2552000  3
   5079   5075   5082   5085     1  180.0000771  2.0083200  2
   5079   5075   5082   5085     1  0.0000000  1.2552000  3
   5079   5091   5097   9246     1  0.0000000  0.6508444  3
   5082   5075   5076   5088     1  180.0000771  2.0083200  2
   5082   5075   5076   5088     1  0.0000000  1.2552000  3
   5082   5075   5079   5091     1  180.0000771  2.0083200  2
   5082   5075   5079   5091     1  0.0000000  1.2552000  3
   5082   5085   5094   5103     1  0.0000000  0.6508444  3
   5088   5100   9269   9265     1  180.0000771  0.4184000  2
   5088   5100   9269   9265     1  0.0000000  1.6024720  3
   5091   5097   9246   9242     1  180.0000771  0.4184000  2
   5091   5097   9246   9242     1  0.0000000  1.6024720  3
   5097   9246   9242   9241     1  180.0000771  0.4184000  2
   5097   9246   9242   9241     1  0.0000000  1.6024720  3
   5097   9246   9242   9258     1  180.0000771  5.6484000  1
   5097   9246   9242   9258     1  180.0000771  3.5564000  2
   5097   9246   9242   9258     1  0.0000000  0.4184000  3
   5100   9269   9265   9281     1  180.0000771  5.6484000  1
   5100   9269   9265   9281     1  180.0000771  3.5564000  2
   5100   9269   9265   9281     1  0.0000000  0.4184000  3
   5100   9269   9265   9264     1  180.0000771  0.4184000  2
   5100   9269   9265   9264     1  0.0000000  1.6024720  3
   5104   5105   5117   5129     1  0.0000000  0.6508444  3
   5104   5108   5120   5126     1  0.0000000  0.6508444  3
   5104   5111   5114   5123     1  0.0000000  0.6508444  3
   5105   5104   5108   5120     1  180.0000771  2.0083200  2
   5105   5104   5108   5120     1  0.0000000  1.2552000  3
   5105   5104   5111   5114     1  180.0000771  2.0083200  2
   5105   5104   5111   5114     1  0.0000000  1.2552000  3
   5105   5117   5129   9315     1  0.0000000  0.6508444  3
   5108   5104   5105   5117     1  180.0000771  2.0083200  2
   5108   5104   5105   5117     1  0.0000000  1.2552000  3
   5108   5104   5111   5114     1  180.0000771  2.0083200  2
   5108   5104   5111   5114     1  0.0000000  1.2552000  3
   5108   5120   5126   9292     1  0.0000000  0.6508444  3
   5111   5104   5105   5117     1  180.0000771  2.0083200  2
   5111   5104   5105   5117     1  0.0000000  1.2552000  3
   5111   5104   5108   5120     1  180.0000771  2.0083200  2
   5111   5104   5108   5120     1  0.0000000  1.2552000  3
   5111   5114   5123   5132     1  0.0000000  0.6508444  3
   5117   5129   9315   9311     1  180.0000771  0.4184000  2
   5117   5129   9315   9311     1  0.0000000  1.6024720  3
   5120   5126   9292   9288     1  180.0000771  0.4184000  2
   5120   5126   9292   9288     1  0.0000000  1.6024720  3
   5126   9292   9288   9287     1  180.0000771  0.4184000  2
   5126   9292   9288   9287     1  0.0000000  1.6024720  3
   5126   9292   9288   9304     1  180.0000771  5.6484000  1
   5126   9292   9288   9304     1  180.0000771  3.5564000  2
   5126   9292   9288   9304     1  0.0000000  0.4184000  3
   5129   9315   9311   9327     1  180.0000771  5.6484000  1
   5129   9315   9311   9327     1  180.0000771  3.5564000  2
   5129   9315   9311   9327     1  0.0000000  0.4184000  3
   5129   9315   9311   9310     1  180.0000771  0.4184000  2
   5129   9315   9311   9310     1  0.0000000  1.6024720  3
   5133   5134   5146   5158     1  0.0000000  0.6508444  3
   5133   5137   5149   5155     1  0.0000000  0.6508444  3
   5133   5140   5143   5152     1  0.0000000  0.6508444  3
   5134   5133   5137   5149     1  180.0000771  2.0083200  2
   5134   5133   5137   5149     1  0.0000000  1.2552000  3
   5134   5133   5140   5143     1  180.0000771  2.0083200  2
   5134   5133   5140   5143     1  0.0000000  1.2552000  3
   5134   5146   5158   9361     1  0.0000000  0.6508444  3
   5137   5133   5134   5146     1  180.0000771  2.0083200  2
   5137   5133   5134   5146     1  0.0000000  1.2552000  3
   5137   5133   5140   5143     1  180.0000771  2.0083200  2
   5137   5133   5140   5143     1  0.0000000  1.2552000  3
   5137   5149   5155   9338     1  0.0000000  0.6508444  3
   5140   5133   5134   5146     1  180.0000771  2.0083200  2
   5140   5133   5134   5146     1  0.0000000  1.2552000  3
   5140   5133   5137   5149     1  180.0000771  2.0083200  2
   5140   5133   5137   5149     1  0.0000000  1.2552000  3
   5140   5143   5152   5161     1  0.0000000  0.6508444  3
   5146   5158   9361   9357     1  180.0000771  0.4184000  2
   5146   5158   9361   9357     1  0.0000000  1.6024720  3
   5149   5155   9338   9334     1  180.0000771  0.4184000  2
   5149   5155   9338   9334     1  0.0000000  1.6024720  3
   5155   9338   9334   9333     1  180.0000771  0.4184000  2
   5155   9338   9334   9333     1  0.0000000  1.6024720  3
   5155   9338   9334   9350     1  180.0000771  5.6484000  1
   5155   9338   9334   9350     1  180.0000771  3.5564000  2
   5155   9338   9334   9350     1  0.0000000  0.4184000  3
   5158   9361   9357   9373     1  180.0000771  5.6484000  1
   5158   9361   9357   9373     1  180.0000771  3.5564000  2
   5158   9361   9357   9373     1  0.0000000  0.4184000  3
   5158   9361   9357   9356     1  180.0000771  0.4184000  2
   5158   9361   9357   9356     1  0.0000000  1.6024720  3
   5162   5163   5175   5187     1  0.0000000  0.6508444  3
   5162   5166   5178   5184     1  0.0000000  0.6508444  3
   5162   5169   5172   5181     1  0.0000000  0.6508444  3
   5163   5162   5166   5178     1  180.0000771  2.0083200  2
   5163   5162   5166   5178     1  0.0000000  1.2552000  3
   5163   5162   5169   5172     1  180.0000771  2.0083200  2
   5163   5162   5169   5172     1  0.0000000  1.2552000  3
   5163   5175   5187   9407     1  0.0000000  0.6508444  3
   5166   5162   5163   5175     1  180.0000771  2.0083200  2
   5166   5162   5163   5175     1  0.0000000  1.2552000  3
   5166   5162   5169   5172     1  180.0000771  2.0083200  2
   5166   5162   5169   5172     1  0.0000000  1.2552000  3
   5166   5178   5184   9384     1  0.0000000  0.6508444  3
   5169   5162   5163   5175     1  180.0000771  2.0083200  2
   5169   5162   5163   5175     1  0.0000000  1.2552000  3
   5169   5162   5166   5178     1  180.0000771  2.0083200  2
   5169   5162   5166   5178     1  0.0000000  1.2552000  3
   5169   5172   5181   5190     1  0.0000000  0.6508444  3
   5175   5187   9407   9403     1  180.0000771  0.4184000  2
   5175   5187   9407   9403     1  0.0000000  1.6024720  3
   5178   5184   9384   9380     1  180.0000771  0.4184000  2
   5178   5184   9384   9380     1  0.0000000  1.6024720  3
   5184   9384   9380   9379     1  180.0000771  0.4184000  2
   5184   9384   9380   9379     1  0.0000000  1.6024720  3
   5184   9384   9380   9396     1  180.0000771  5.6484000  1
   5184   9384   9380   9396     1  180.0000771  3.5564000  2
   5184   9384   9380   9396     1  0.0000000  0.4184000  3
   5187   9407   9403   9419     1  180.0000771  5.6484000  1
   5187   9407   9403   9419     1  180.0000771  3.5564000  2
   5187   9407   9403   9419     1  0.0000000  0.4184000  3
   5187   9407   9403   9402     1  180.0000771  0.4184000  2
   5187   9407   9403   9402     1  0.0000000  1.6024720  3
   5191   5192   5204   5216     1  0.0000000  0.6508444  3
   5191   5195   5207   5213     1  0.0000000  0.6508444  3
   5191   5198   5201   5210     1  0.0000000  0.6508444  3
   5192   5191   5195   5207     1  180.0000771  2.0083200  2
   5192   5191   5195   5207     1  0.0000000  1.2552000  3
   5192   5191   5198   5201     1  180.0000771  2.0083200  2
   5192   5191   5198   5201     1  0.0000000  1.2552000  3
   5192   5204   5216   9453     1  0.0000000  0.6508444  3
   5195   5191   5192   5204     1  180.0000771  2.0083200  2
   5195   5191   5192   5204     1  0.0000000  1.2552000  3
   5195   5191   5198   5201     1  180.0000771  2.0083200  2
   5195   5191   5198   5201     1  0.0000000  1.2552000  3
   5195   5207   5213   9430     1  0.0000000  0.6508444  3
   5198   5191   5192   5204     1  180.0000771  2.0083200  2
   5198   5191   5192   5204     1  0.0000000  1.2552000  3
   5198   5191   5195   5207     1  180.0000771  2.0083200  2
   5198   5191   5195   5207     1  0.0000000  1.2552000  3
   5198   5201   5210   5219     1  0.0000000  0.6508444  3
   5204   5216   9453   9449     1  180.0000771  0.4184000  2
   5204   5216   9453   9449     1  0.0000000  1.6024720  3
   5207   5213   9430   9426     1  180.0000771  0.4184000  2
   5207   5213   9430   9426     1  0.0000000  1.6024720  3
   5213   9430   9426   9425     1  180.0000771  0.4184000  2
   5213   9430   9426   9425     1  0.0000000  1.6024720  3
   5213   9430   9426   9442     1  180.0000771  5.6484000  1
   5213   9430   9426   9442     1  180.0000771  3.5564000  2
   5213   9430   9426   9442     1  0.0000000  0.4184000  3
   5216   9453   9449   9465     1  180.0000771  5.6484000  1
   5216   9453   9449   9465     1  180.0000771  3.5564000  2
   5216   9453   9449   9465     1  0.0000000  0.4184000  3
   5216   9453   9449   9448     1  180.0000771  0.4184000  2
   5216   9453   9449   9448     1  0.0000000  1.6024720  3
   5220   5221   5233   5245     1  0.0000000  0.6508444  3
   5220   5224   5236   5242     1  0.0000000  0.6508444  3
   5220   5227   5230   5239     1  0.0000000  0.6508444  3
   5221   5220   5224   5236     1  180.0000771  2.0083200  2
   5221   5220   5224   5236     1  0.0000000  1.2552000  3
   5221   5220   5227   5230     1  180.0000771  2.0083200  2
   5221   5220   5227   5230     1  0.0000000  1.2552000  3
   5221   5233   5245   9499     1  0.0000000  0.6508444  3
   5224   5220   5221   5233     1  180.0000771  2.0083200  2
   5224   5220   5221   5233     1  0.0000000  1.2552000  3
   5224   5220   5227   5230     1  180.0000771  2.0083200  2
   5224   5220   5227   5230     1  0.0000000  1.2552000  3
   5224   5236   5242   9476     1  0.0000000  0.6508444  3
   5227   5220   5221   5233     1  180.0000771  2.0083200  2
   5227   5220   5221   5233     1  0.0000000  1.2552000  3
   5227   5220   5224   5236     1  180.0000771  2.0083200  2
   5227   5220   5224   5236     1  0.0000000  1.2552000  3
   5227   5230   5239   5248     1  0.0000000  0.6508444  3
   5233   5245   9499   9495     1  180.0000771  0.4184000  2
   5233   5245   9499   9495     1  0.0000000  1.6024720  3
   5236   5242   9476   9472     1  180.0000771  0.4184000  2
   5236   5242   9476   9472     1  0.0000000  1.6024720  3
   5242   9476   9472   9471     1  180.0000771  0.4184000  2
   5242   9476   9472   9471     1  0.0000000  1.6024720  3
   5242   9476   9472   9488     1  180.0000771  5.6484000  1
   5242   9476   9472   9488     1  180.0000771  3.5564000  2
   5242   9476   9472   9488     1  0.0000000  0.4184000  3
   5245   9499   9495   9511     1  180.0000771  5.6484000  1
   5245   9499   9495   9511     1  180.0000771  3.5564000  2
   5245   9499   9495   9511     1  0.0000000  0.4184000  3
   5245   9499   9495   9494     1  180.0000771  0.4184000  2
   5245   9499   9495   9494     1  0.0000000  1.6024720  3
   5249   5250   5262   5274     1  0.0000000  0.6508444  3
   5249   5253   5265   5271     1  0.0000000  0.6508444  3
   5249   5256   5259   5268     1  0.0000000  0.6508444  3
   5250   5249   5253   5265     1  180.0000771  2.0083200  2
   5250   5249   5253   5265     1  0.0000000  1.2552000  3
   5250   5249   5256   5259     1  180.0000771  2.0083200  2
   5250   5249   5256   5259     1  0.0000000  1.2552000  3
   5250   5262   5274   9545     1  0.0000000  0.6508444  3
   5253   5249   5250   5262     1  180.0000771  2.0083200  2
   5253   5249   5250   5262     1  0.0000000  1.2552000  3
   5253   5249   5256   5259     1  180.0000771  2.0083200  2
   5253   5249   5256   5259     1  0.0000000  1.2552000  3
   5253   5265   5271   9522     1  0.0000000  0.6508444  3
   5256   5249   5250   5262     1  180.0000771  2.0083200  2
   5256   5249   5250   5262     1  0.0000000  1.2552000  3
   5256   5249   5253   5265     1  180.0000771  2.0083200  2
   5256   5249   5253   5265     1  0.0000000  1.2552000  3
   5256   5259   5268   5277     1  0.0000000  0.6508444  3
   5262   5274   9545   9541     1  180.0000771  0.4184000  2
   5262   5274   9545   9541     1  0.0000000  1.6024720  3
   5265   5271   9522   9518     1  180.0000771  0.4184000  2
   5265   5271   9522   9518     1  0.0000000  1.6024720  3
   5271   9522   9518   9517     1  180.0000771  0.4184000  2
   5271   9522   9518   9517     1  0.0000000  1.6024720  3
   5271   9522   9518   9534     1  180.0000771  5.6484000  1
   5271   9522   9518   9534     1  180.0000771  3.5564000  2
   5271   9522   9518   9534     1  0.0000000  0.4184000  3
   5274   9545   9541   9557     1  180.0000771  5.6484000  1
   5274   9545   9541   9557     1  180.0000771  3.5564000  2
   5274   9545   9541   9557     1  0.0000000  0.4184000  3
   5274   9545   9541   9540     1  180.0000771  0.4184000  2
   5274   9545   9541   9540     1  0.0000000  1.6024720  3
   5278   5279   5291   5303     1  0.0000000  0.6508444  3
   5278   5282   5294   5300     1  0.0000000  0.6508444  3
   5278   5285   5288   5297     1  0.0000000  0.6508444  3
   5279   5278   5282   5294     1  180.0000771  2.0083200  2
   5279   5278   5282   5294     1  0.0000000  1.2552000  3
   5279   5278   5285   5288     1  180.0000771  2.0083200  2
   5279   5278   5285   5288     1  0.0000000  1.2552000  3
   5279   5291   5303   9591     1  0.0000000  0.6508444  3
   5282   5278   5279   5291     1  180.0000771  2.0083200  2
   5282   5278   5279   5291     1  0.0000000  1.2552000  3
   5282   5278   5285   5288     1  180.0000771  2.0083200  2
   5282   5278   5285   5288     1  0.0000000  1.2552000  3
   5282   5294   5300   9568     1  0.0000000  0.6508444  3
   5285   5278   5279   5291     1  180.0000771  2.0083200  2
   5285   5278   5279   5291     1  0.0000000  1.2552000  3
   5285   5278   5282   5294     1  180.0000771  2.0083200  2
   5285   5278   5282   5294     1  0.0000000  1.2552000  3
   5285   5288   5297   5306     1  0.0000000  0.6508444  3
   5291   5303   9591   9587     1  180.0000771  0.4184000  2
   5291   5303   9591   9587     1  0.0000000  1.6024720  3
   5294   5300   9568   9564     1  180.0000771  0.4184000  2
   5294   5300   9568   9564     1  0.0000000  1.6024720  3
   5300   9568   9564   9563     1  180.0000771  0.4184000  2
   5300   9568   9564   9563     1  0.0000000  1.6024720  3
   5300   9568   9564   9580     1  180.0000771  5.6484000  1
   5300   9568   9564   9580     1  180.0000771  3.5564000  2
   5300   9568   9564   9580     1  0.0000000  0.4184000  3
   5303   9591   9587   9603     1  180.0000771  5.6484000  1
   5303   9591   9587   9603     1  180.0000771  3.5564000  2
   5303   9591   9587   9603     1  0.0000000  0.4184000  3
   5303   9591   9587   9586     1  180.0000771  0.4184000  2
   5303   9591   9587   9586     1  0.0000000  1.6024720  3
   5307   5308   5320   5332     1  0.0000000  0.6508444  3
   5307   5311   5323   5329     1  0.0000000  0.6508444  3
   5307   5314   5317   5326     1  0.0000000  0.6508444  3
   5308   5307   5311   5323     1  180.0000771  2.0083200  2
   5308   5307   5311   5323     1  0.0000000  1.2552000  3
   5308   5307   5314   5317     1  180.0000771  2.0083200  2
   5308   5307   5314   5317     1  0.0000000  1.2552000  3
   5308   5320   5332   9637     1  0.0000000  0.6508444  3
   5311   5307   5308   5320     1  180.0000771  2.0083200  2
   5311   5307   5308   5320     1  0.0000000  1.2552000  3
   5311   5307   5314   5317     1  180.0000771  2.0083200  2
   5311   5307   5314   5317     1  0.0000000  1.2552000  3
   5311   5323   5329   9614     1  0.0000000  0.6508444  3
   5314   5307   5308   5320     1  180.0000771  2.0083200  2
   5314   5307   5308   5320     1  0.0000000  1.2552000  3
   5314   5307   5311   5323     1  180.0000771  2.0083200  2
   5314   5307   5311   5323     1  0.0000000  1.2552000  3
   5314   5317   5326   5335     1  0.0000000  0.6508444  3
   5320   5332   9637   9633     1  180.0000771  0.4184000  2
   5320   5332   9637   9633     1  0.0000000  1.6024720  3
   5323   5329   9614   9610     1  180.0000771  0.4184000  2
   5323   5329   9614   9610     1  0.0000000  1.6024720  3
   5329   9614   9610   9609     1  180.0000771  0.4184000  2
   5329   9614   9610   9609     1  0.0000000  1.6024720  3
   5329   9614   9610   9626     1  180.0000771  5.6484000  1
   5329   9614   9610   9626     1  180.0000771  3.5564000  2
   5329   9614   9610   9626     1  0.0000000  0.4184000  3
   5332   9637   9633   9649     1  180.0000771  5.6484000  1
   5332   9637   9633   9649     1  180.0000771  3.5564000  2
   5332   9637   9633   9649     1  0.0000000  0.4184000  3
   5332   9637   9633   9632     1  180.0000771  0.4184000  2
   5332   9637   9633   9632     1  0.0000000  1.6024720  3
   5336   5337   5349   5361     1  0.0000000  0.6508444  3
   5336   5340   5352   5358     1  0.0000000  0.6508444  3
   5336   5343   5346   5355     1  0.0000000  0.6508444  3
   5337   5336   5340   5352     1  180.0000771  2.0083200  2
   5337   5336   5340   5352     1  0.0000000  1.2552000  3
   5337   5336   5343   5346     1  180.0000771  2.0083200  2
   5337   5336   5343   5346     1  0.0000000  1.2552000  3
   5337   5349   5361   9683     1  0.0000000  0.6508444  3
   5340   5336   5337   5349     1  180.0000771  2.0083200  2
   5340   5336   5337   5349     1  0.0000000  1.2552000  3
   5340   5336   5343   5346     1  180.0000771  2.0083200  2
   5340   5336   5343   5346     1  0.0000000  1.2552000  3
   5340   5352   5358   9660     1  0.0000000  0.6508444  3
   5343   5336   5337   5349     1  180.0000771  2.0083200  2
   5343   5336   5337   5349     1  0.0000000  1.2552000  3
   5343   5336   5340   5352     1  180.0000771  2.0083200  2
   5343   5336   5340   5352     1  0.0000000  1.2552000  3
   5343   5346   5355   5364     1  0.0000000  0.6508444  3
   5349   5361   9683   9679     1  180.0000771  0.4184000  2
   5349   5361   9683   9679     1  0.0000000  1.6024720  3
   5352   5358   9660   9656     1  180.0000771  0.4184000  2
   5352   5358   9660   9656     1  0.0000000  1.6024720  3
   5358   9660   9656   9655     1  180.0000771  0.4184000  2
   5358   9660   9656   9655     1  0.0000000  1.6024720  3
   5358   9660   9656   9672     1  180.0000771  5.6484000  1
   5358   9660   9656   9672     1  180.0000771  3.5564000  2
   5358   9660   9656   9672     1  0.0000000  0.4184000  3
   5361   9683   9679   9695     1  180.0000771  5.6484000  1
   5361   9683   9679   9695     1  180.0000771  3.5564000  2
   5361   9683   9679   9695     1  0.0000000  0.4184000  3
   5361   9683   9679   9678     1  180.0000771  0.4184000  2
   5361   9683   9679   9678     1  0.0000000  1.6024720  3
   5365   5366   5378   5390     1  0.0000000  0.6508444  3
   5365   5369   5381   5387     1  0.0000000  0.6508444  3
   5365   5372   5375   5384     1  0.0000000  0.6508444  3
   5366   5365   5369   5381     1  180.0000771  2.0083200  2
   5366   5365   5369   5381     1  0.0000000  1.2552000  3
   5366   5365   5372   5375     1  180.0000771  2.0083200  2
   5366   5365   5372   5375     1  0.0000000  1.2552000  3
   5366   5378   5390   9729     1  0.0000000  0.6508444  3
   5369   5365   5366   5378     1  180.0000771  2.0083200  2
   5369   5365   5366   5378     1  0.0000000  1.2552000  3
   5369   5365   5372   5375     1  180.0000771  2.0083200  2
   5369   5365   5372   5375     1  0.0000000  1.2552000  3
   5369   5381   5387   9706     1  0.0000000  0.6508444  3
   5372   5365   5366   5378     1  180.0000771  2.0083200  2
   5372   5365   5366   5378     1  0.0000000  1.2552000  3
   5372   5365   5369   5381     1  180.0000771  2.0083200  2
   5372   5365   5369   5381     1  0.0000000  1.2552000  3
   5372   5375   5384   5393     1  0.0000000  0.6508444  3
   5378   5390   9729   9725     1  180.0000771  0.4184000  2
   5378   5390   9729   9725     1  0.0000000  1.6024720  3
   5381   5387   9706   9702     1  180.0000771  0.4184000  2
   5381   5387   9706   9702     1  0.0000000  1.6024720  3
   5387   9706   9702   9701     1  180.0000771  0.4184000  2
   5387   9706   9702   9701     1  0.0000000  1.6024720  3
   5387   9706   9702   9718     1  180.0000771  5.6484000  1
   5387   9706   9702   9718     1  180.0000771  3.5564000  2
   5387   9706   9702   9718     1  0.0000000  0.4184000  3
   5390   9729   9725   9741     1  180.0000771  5.6484000  1
   5390   9729   9725   9741     1  180.0000771  3.5564000  2
   5390   9729   9725   9741     1  0.0000000  0.4184000  3
   5390   9729   9725   9724     1  180.0000771  0.4184000  2
   5390   9729   9725   9724     1  0.0000000  1.6024720  3
   5394   5395   5407   5419     1  0.0000000  0.6508444  3
   5394   5398   5410   5416     1  0.0000000  0.6508444  3
   5394   5401   5404   5413     1  0.0000000  0.6508444  3
   5395   5394   5398   5410     1  180.0000771  2.0083200  2
   5395   5394   5398   5410     1  0.0000000  1.2552000  3
   5395   5394   5401   5404     1  180.0000771  2.0083200  2
   5395   5394   5401   5404     1  0.0000000  1.2552000  3
   5395   5407   5419   9775     1  0.0000000  0.6508444  3
   5398   5394   5395   5407     1  180.0000771  2.0083200  2
   5398   5394   5395   5407     1  0.0000000  1.2552000  3
   5398   5394   5401   5404     1  180.0000771  2.0083200  2
   5398   5394   5401   5404     1  0.0000000  1.2552000  3
   5398   5410   5416   9752     1  0.0000000  0.6508444  3
   5401   5394   5395   5407     1  180.0000771  2.0083200  2
   5401   5394   5395   5407     1  0.0000000  1.2552000  3
   5401   5394   5398   5410     1  180.0000771  2.0083200  2
   5401   5394   5398   5410     1  0.0000000  1.2552000  3
   5401   5404   5413   5422     1  0.0000000  0.6508444  3
   5407   5419   9775   9771     1  180.0000771  0.4184000  2
   5407   5419   9775   9771     1  0.0000000  1.6024720  3
   5410   5416   9752   9748     1  180.0000771  0.4184000  2
   5410   5416   9752   9748     1  0.0000000  1.6024720  3
   5416   9752   9748   9747     1  180.0000771  0.4184000  2
   5416   9752   9748   9747     1  0.0000000  1.6024720  3
   5416   9752   9748   9764     1  180.0000771  5.6484000  1
   5416   9752   9748   9764     1  180.0000771  3.5564000  2
   5416   9752   9748   9764     1  0.0000000  0.4184000  3
   5419   9775   9771   9787     1  180.0000771  5.6484000  1
   5419   9775   9771   9787     1  180.0000771  3.5564000  2
   5419   9775   9771   9787     1  0.0000000  0.4184000  3
   5419   9775   9771   9770     1  180.0000771  0.4184000  2
   5419   9775   9771   9770     1  0.0000000  1.6024720  3
   5423   5424   5436   5448     1  0.0000000  0.6508444  3
   5423   5427   5439   5445     1  0.0000000  0.6508444  3
   5423   5430   5433   5442     1  0.0000000  0.6508444  3
   5424   5423   5427   5439     1  180.0000771  2.0083200  2
   5424   5423   5427   5439     1  0.0000000  1.2552000  3
   5424   5423   5430   5433     1  180.0000771  2.0083200  2
   5424   5423   5430   5433     1  0.0000000  1.2552000  3
   5424   5436   5448   9821     1  0.0000000  0.6508444  3
   5427   5423   5424   5436     1  180.0000771  2.0083200  2
   5427   5423   5424   5436     1  0.0000000  1.2552000  3
   5427   5423   5430   5433     1  180.0000771  2.0083200  2
   5427   5423   5430   5433     1  0.0000000  1.2552000  3
   5427   5439   5445   9798     1  0.0000000  0.6508444  3
   5430   5423   5424   5436     1  180.0000771  2.0083200  2
   5430   5423   5424   5436     1  0.0000000  1.2552000  3
   5430   5423   5427   5439     1  180.0000771  2.0083200  2
   5430   5423   5427   5439     1  0.0000000  1.2552000  3
   5430   5433   5442   5451     1  0.0000000  0.6508444  3
   5436   5448   9821   9817     1  180.0000771  0.4184000  2
   5436   5448   9821   9817     1  0.0000000  1.6024720  3
   5439   5445   9798   9794     1  180.0000771  0.4184000  2
   5439   5445   9798   9794     1  0.0000000  1.6024720  3
   5445   9798   9794   9793     1  180.0000771  0.4184000  2
   5445   9798   9794   9793     1  0.0000000  1.6024720  3
   5445   9798   9794   9810     1  180.0000771  5.6484000  1
   5445   9798   9794   9810     1  180.0000771  3.5564000  2
   5445   9798   9794   9810     1  0.0000000  0.4184000  3
   5448   9821   9817   9833     1  180.0000771  5.6484000  1
   5448   9821   9817   9833     1  180.0000771  3.5564000  2
   5448   9821   9817   9833     1  0.0000000  0.4184000  3
   5448   9821   9817   9816     1  180.0000771  0.4184000  2
   5448   9821   9817   9816     1  0.0000000  1.6024720  3
   5452   5453   5465   5477     1  0.0000000  0.6508444  3
   5452   5456   5468   5474     1  0.0000000  0.6508444  3
   5452   5459   5462   5471     1  0.0000000  0.6508444  3
   5453   5452   5456   5468     1  180.0000771  2.0083200  2
   5453   5452   5456   5468     1  0.0000000  1.2552000  3
   5453   5452   5459   5462     1  180.0000771  2.0083200  2
   5453   5452   5459   5462     1  0.0000000  1.2552000  3
   5453   5465   5477   9867     1  0.0000000  0.6508444  3
   5456   5452   5453   5465     1  180.0000771  2.0083200  2
   5456   5452   5453   5465     1  0.0000000  1.2552000  3
   5456   5452   5459   5462     1  180.0000771  2.0083200  2
   5456   5452   5459   5462     1  0.0000000  1.2552000  3
   5456   5468   5474   9844     1  0.0000000  0.6508444  3
   5459   5452   5453   5465     1  180.0000771  2.0083200  2
   5459   5452   5453   5465     1  0.0000000  1.2552000  3
   5459   5452   5456   5468     1  180.0000771  2.0083200  2
   5459   5452   5456   5468     1  0.0000000  1.2552000  3
   5459   5462   5471   5480     1  0.0000000  0.6508444  3
   5465   5477   9867   9863     1  180.0000771  0.4184000  2
   5465   5477   9867   9863     1  0.0000000  1.6024720  3
   5468   5474   9844   9840     1  180.0000771  0.4184000  2
   5468   5474   9844   9840     1  0.0000000  1.6024720  3
   5474   9844   9840   9839     1  180.0000771  0.4184000  2
   5474   9844   9840   9839     1  0.0000000  1.6024720  3
   5474   9844   9840   9856     1  180.0000771  5.6484000  1
   5474   9844   9840   9856     1  180.0000771  3.5564000  2
   5474   9844   9840   9856     1  0.0000000  0.4184000  3
   5477   9867   9863   9879     1  180.0000771  5.6484000  1
   5477   9867   9863   9879     1  180.0000771  3.5564000  2
   5477   9867   9863   9879     1  0.0000000  0.4184000  3
   5477   9867   9863   9862     1  180.0000771  0.4184000  2
   5477   9867   9863   9862     1  0.0000000  1.6024720  3
   5481   5482   5494   5506     1  0.0000000  0.6508444  3
   5481   5485   5497   5503     1  0.0000000  0.6508444  3
   5481   5488   5491   5500     1  0.0000000  0.6508444  3
   5482   5481   5485   5497     1  180.0000771  2.0083200  2
   5482   5481   5485   5497     1  0.0000000  1.2552000  3
   5482   5481   5488   5491     1  180.0000771  2.0083200  2
   5482   5481   5488   5491     1  0.0000000  1.2552000  3
   5482   5494   5506   9913     1  0.0000000  0.6508444  3
   5485   5481   5482   5494     1  180.0000771  2.0083200  2
   5485   5481   5482   5494     1  0.0000000  1.2552000  3
   5485   5481   5488   5491     1  180.0000771  2.0083200  2
   5485   5481   5488   5491     1  0.0000000  1.2552000  3
   5485   5497   5503   9890     1  0.0000000  0.6508444  3
   5488   5481   5482   5494     1  180.0000771  2.0083200  2
   5488   5481   5482   5494     1  0.0000000  1.2552000  3
   5488   5481   5485   5497     1  180.0000771  2.0083200  2
   5488   5481   5485   5497     1  0.0000000  1.2552000  3
   5488   5491   5500   5509     1  0.0000000  0.6508444  3
   5494   5506   9913   9909     1  180.0000771  0.4184000  2
   5494   5506   9913   9909     1  0.0000000  1.6024720  3
   5497   5503   9890   9886     1  180.0000771  0.4184000  2
   5497   5503   9890   9886     1  0.0000000  1.6024720  3
   5503   9890   9886   9885     1  180.0000771  0.4184000  2
   5503   9890   9886   9885     1  0.0000000  1.6024720  3
   5503   9890   9886   9902     1  180.0000771  5.6484000  1
   5503   9890   9886   9902     1  180.0000771  3.5564000  2
   5503   9890   9886   9902     1  0.0000000  0.4184000  3
   5506   9913   9909   9925     1  180.0000771  5.6484000  1
   5506   9913   9909   9925     1  180.0000771  3.5564000  2
   5506   9913   9909   9925     1  0.0000000  0.4184000  3
   5506   9913   9909   9908     1  180.0000771  0.4184000  2
   5506   9913   9909   9908     1  0.0000000  1.6024720  3
   5510   5511   5514   5515     1  180.0000771  0.8368000  1
   5510   5511   5514   5515     1  180.0000771  1.0460000  2
   5510   5511   5514   5515     1  0.0000000  0.7531200  3
   5510   5511   5514   5522     1  0.0000000  0.6508444  3
   5510   5532   5516   5515     1  180.0000771  0.4184000  2
   5510   5532   5516   5515     1  0.0000000  1.6024720  3
   5510   5532   5516   5520     1  180.0000771  5.6484000  1
   5510   5532   5516   5520     1  180.0000771  3.5564000  2
   5510   5532   5516   5520     1  0.0000000  0.4184000  3
   5511   5510   5524   5530     1  0.0000000  0.6508444  3
   5511   5510   5532   5516     1  180.0000771  0.4184000  2
   5511   5510   5532   5516     1  0.0000000  1.6024720  3
   5511   5514   5515   5516     1  180.0000771  0.8368000  1
   5511   5514   5515   5516     1  180.0000771  1.0460000  2
   5511   5514   5515   5516     1  0.0000000  0.7531200  3
   5511   5514   5515   5521     1  0.0000000  0.6508444  3
   5514   5511   5510   5524     1  180.0000771  0.8368000  1
   5514   5511   5510   5524     1  180.0000771  1.0460000  2
   5514   5511   5510   5524     1  0.0000000  0.7531200  3
   5514   5511   5510   5532     1  0.0000000  0.6508444  3
   5514   5515   5516   5520     1  0.0000000  0.6508444  3
   5514   5515   5516   5532     1  0.0000000  0.6508444  3
   5515   5514   5511   5523     1  0.0000000  0.6508444  3
   5516   5515   5514   5522     1  0.0000000  0.6508444  3
   5516   5532   5510   5524     1  180.0000771  0.4184000  2
   5516   5532   5510   5524     1  0.0000000  1.6024720  3
   5520   5516   5515   5521     1  0.0000000  4.9162000  2
   5520   5516   5515   5521     1  0.0000000  0.6024960  3
   5521   5515   5514   5522     1  0.0000000  4.9162000  2
   5521   5515   5514   5522     1  0.0000000  0.6024960  3
   5521   5515   5516   5532     1  0.0000000  4.9162000  2
   5521   5515   5516   5532     1  0.0000000  0.6024960  3
   5522   5514   5511   5523     1  0.0000000  4.9162000  2
   5522   5514   5511   5523     1  0.0000000  0.6024960  3
   5523   5511   5510   5524     1  0.0000000  0.6508444  3
   5523   5511   5510   5532     1  0.0000000  4.9162000  2
   5523   5511   5510   5532     1  0.0000000  0.6024960  3
   5530   5524   5510   5532     1  0.0000000  4.9162000  2
   5530   5524   5510   5532     1  0.0000000  0.6024960  3
   5533   5534   5537   5538     1  180.0000771  0.8368000  1
   5533   5534   5537   5538     1  180.0000771  1.0460000  2
   5533   5534   5537   5538     1  0.0000000  0.7531200  3
   5533   5534   5537   5545     1  0.0000000  0.6508444  3
   5533   5555   5539   5543     1  180.0000771  5.6484000  1
   5533   5555   5539   5543     1  180.0000771  3.5564000  2
   5533   5555   5539   5543     1  0.0000000  0.4184000  3
   5533   5555   5539   5538     1  180.0000771  0.4184000  2
   5533   5555   5539   5538     1  0.0000000  1.6024720  3
   5534   5537   5538   5539     1  180.0000771  0.8368000  1
   5534   5537   5538   5539     1  180.0000771  1.0460000  2
   5534   5537   5538   5539     1  0.0000000  0.7531200  3
   5534   5537   5538   5544     1  0.0000000  0.6508444  3
   5534   5533   5547   5553     1  0.0000000  0.6508444  3
   5534   5533   5555   5539     1  180.0000771  0.4184000  2
   5534   5533   5555   5539     1  0.0000000  1.6024720  3
   5537   5538   5539   5543     1  0.0000000  0.6508444  3
   5537   5538   5539   5555     1  0.0000000  0.6508444  3
   5537   5534   5533   5547     1  180.0000771  0.8368000  1
   5537   5534   5533   5547     1  180.0000771  1.0460000  2
   5537   5534   5533   5547     1  0.0000000  0.7531200  3
   5537   5534   5533   5555     1  0.0000000  0.6508444  3
   5538   5537   5534   5546     1  0.0000000  0.6508444  3
   5539   5555   5533   5547     1  180.0000771  0.4184000  2
   5539   5555   5533   5547     1  0.0000000  1.6024720  3
   5539   5538   5537   5545     1  0.0000000  0.6508444  3
   5543   5539   5538   5544     1  0.0000000  4.9162000  2
   5543   5539   5538   5544     1  0.0000000  0.6024960  3
   5544   5538   5539   5555     1  0.0000000  4.9162000  2
   5544   5538   5539   5555     1  0.0000000  0.6024960  3
   5544   5538   5537   5545     1  0.0000000  4.9162000  2
   5544   5538   5537   5545     1  0.0000000  0.6024960  3
   5545   5537   5534   5546     1  0.0000000  4.9162000  2
   5545   5537   5534   5546     1  0.0000000  0.6024960  3
   5546   5534   5533   5547     1  0.0000000  0.6508444  3
   5546   5534   5533   5555     1  0.0000000  4.9162000  2
   5546   5534   5533   5555     1  0.0000000  0.6024960  3
   5553   5547   5533   5555     1  0.0000000  4.9162000  2
   5553   5547   5533   5555     1  0.0000000  0.6024960  3
   5556   5557   5560   5561     1  180.0000771  0.8368000  1
   5556   5557   5560   5561     1  180.0000771  1.0460000  2
   5556   5557   5560   5561     1  0.0000000  0.7531200  3
   5556   5557   5560   5568     1  0.0000000  0.6508444  3
   5556   5578   5562   5561     1  180.0000771  0.4184000  2
   5556   5578   5562   5561     1  0.0000000  1.6024720  3
   5556   5578   5562   5566     1  180.0000771  5.6484000  1
   5556   5578   5562   5566     1  180.0000771  3.5564000  2
   5556   5578   5562   5566     1  0.0000000  0.4184000  3
   5557   5556   5570   5576     1  0.0000000  0.6508444  3
   5557   5556   5578   5562     1  180.0000771  0.4184000  2
   5557   5556   5578   5562     1  0.0000000  1.6024720  3
   5557   5560   5561   5562     1  180.0000771  0.8368000  1
   5557   5560   5561   5562     1  180.0000771  1.0460000  2
   5557   5560   5561   5562     1  0.0000000  0.7531200  3
   5557   5560   5561   5567     1  0.0000000  0.6508444  3
   5560   5557   5556   5570     1  180.0000771  0.8368000  1
   5560   5557   5556   5570     1  180.0000771  1.0460000  2
   5560   5557   5556   5570     1  0.0000000  0.7531200  3
   5560   5557   5556   5578     1  0.0000000  0.6508444  3
   5560   5561   5562   5566     1  0.0000000  0.6508444  3
   5560   5561   5562   5578     1  0.0000000  0.6508444  3
   5561   5560   5557   5569     1  0.0000000  0.6508444  3
   5562   5561   5560   5568     1  0.0000000  0.6508444  3
   5562   5578   5556   5570     1  180.0000771  0.4184000  2
   5562   5578   5556   5570     1  0.0000000  1.6024720  3
   5566   5562   5561   5567     1  0.0000000  4.9162000  2
   5566   5562   5561   5567     1  0.0000000  0.6024960  3
   5567   5561   5560   5568     1  0.0000000  4.9162000  2
   5567   5561   5560   5568     1  0.0000000  0.6024960  3
   5567   5561   5562   5578     1  0.0000000  4.9162000  2
   5567   5561   5562   5578     1  0.0000000  0.6024960  3
   5568   5560   5557   5569     1  0.0000000  4.9162000  2
   5568   5560   5557   5569     1  0.0000000  0.6024960  3
   5569   5557   5556   5570     1  0.0000000  0.6508444  3
   5569   5557   5556   5578     1  0.0000000  4.9162000  2
   5569   5557   5556   5578     1  0.0000000  0.6024960  3
   5576   5570   5556   5578     1  0.0000000  4.9162000  2
   5576   5570   5556   5578     1  0.0000000  0.6024960  3
   5579   5580   5583   5584     1  180.0000771  0.8368000  1
   5579   5580   5583   5584     1  180.0000771  1.0460000  2
   5579   5580   5583   5584     1  0.0000000  0.7531200  3
   5579   5580   5583   5591     1  0.0000000  0.6508444  3
   5579   5601   5585   5589     1  180.0000771  5.6484000  1
   5579   5601   5585   5589     1  180.0000771  3.5564000  2
   5579   5601   5585   5589     1  0.0000000  0.4184000  3
   5579   5601   5585   5584     1  180.0000771  0.4184000  2
   5579   5601   5585   5584     1  0.0000000  1.6024720  3
   5580   5583   5584   5585     1  180.0000771  0.8368000  1
   5580   5583   5584   5585     1  180.0000771  1.0460000  2
   5580   5583   5584   5585     1  0.0000000  0.7531200  3
   5580   5583   5584   5590     1  0.0000000  0.6508444  3
   5580   5579   5593   5599     1  0.0000000  0.6508444  3
   5580   5579   5601   5585     1  180.0000771  0.4184000  2
   5580   5579   5601   5585     1  0.0000000  1.6024720  3
   5583   5584   5585   5589     1  0.0000000  0.6508444  3
   5583   5584   5585   5601     1  0.0000000  0.6508444  3
   5583   5580   5579   5593     1  180.0000771  0.8368000  1
   5583   5580   5579   5593     1  180.0000771  1.0460000  2
   5583   5580   5579   5593     1  0.0000000  0.7531200  3
   5583   5580   5579   5601     1  0.0000000  0.6508444  3
   5584   5583   5580   5592     1  0.0000000  0.6508444  3
   5585   5601   5579   5593     1  180.0000771  0.4184000  2
   5585   5601   5579   5593     1  0.0000000  1.6024720  3
   5585   5584   5583   5591     1  0.0000000  0.6508444  3
   5589   5585   5584   5590     1  0.0000000  4.9162000  2
   5589   5585   5584   5590     1  0.0000000  0.6024960  3
   5590   5584   5585   5601     1  0.0000000  4.9162000  2
   5590   5584   5585   5601     1  0.0000000  0.6024960  3
   5590   5584   5583   5591     1  0.0000000  4.9162000  2
   5590   5584   5583   5591     1  0.0000000  0.6024960  3
   5591   5583   5580   5592     1  0.0000000  4.9162000  2
   5591   5583   5580   5592     1  0.0000000  0.6024960  3
   5592   5580   5579   5593     1  0.0000000  0.6508444  3
   5592   5580   5579   5601     1  0.0000000  4.9162000  2
   5592   5580   5579   5601     1  0.0000000  0.6024960  3
   5599   5593   5579   5601     1  0.0000000  4.9162000  2
   5599   5593   5579   5601     1  0.0000000  0.6024960  3
   5602   5603   5606   5607     1  180.0000771  0.8368000  1
   5602   5603   5606   5607     1  180.0000771  1.0460000  2
   5602   5603   5606   5607     1  0.0000000  0.7531200  3
   5602   5603   5606   5614     1  0.0000000  0.6508444  3
   5602   5624   5608   5607     1  180.0000771  0.4184000  2
   5602   5624   5608   5607     1  0.0000000  1.6024720  3
   5602   5624   5608   5612     1  180.0000771  5.6484000  1
   5602   5624   5608   5612     1  180.0000771  3.5564000  2
   5602   5624   5608   5612     1  0.0000000  0.4184000  3
   5603   5602   5616   5622     1  0.0000000  0.6508444  3
   5603   5602   5624   5608     1  180.0000771  0.4184000  2
   5603   5602   5624   5608     1  0.0000000  1.6024720  3
   5603   5606   5607   5608     1  180.0000771  0.8368000  1
   5603   5606   5607   5608     1  180.0000771  1.0460000  2
   5603   5606   5607   5608     1  0.0000000  0.7531200  3
   5603   5606   5607   5613     1  0.0000000  0.6508444  3
   5606   5603   5602   5616     1  180.0000771  0.8368000  1
   5606   5603   5602   5616     1  180.0000771  1.0460000  2
   5606   5603   5602   5616     1  0.0000000  0.7531200  3
   5606   5603   5602   5624     1  0.0000000  0.6508444  3
   5606   5607   5608   5612     1  0.0000000  0.6508444  3
   5606   5607   5608   5624     1  0.0000000  0.6508444  3
   5607   5606   5603   5615     1  0.0000000  0.6508444  3
   5608   5607   5606   5614     1  0.0000000  0.6508444  3
   5608   5624   5602   5616     1  180.0000771  0.4184000  2
   5608   5624   5602   5616     1  0.0000000  1.6024720  3
   5612   5608   5607   5613     1  0.0000000  4.9162000  2
   5612   5608   5607   5613     1  0.0000000  0.6024960  3
   5613   5607   5606   5614     1  0.0000000  4.9162000  2
   5613   5607   5606   5614     1  0.0000000  0.6024960  3
   5613   5607   5608   5624     1  0.0000000  4.9162000  2
   5613   5607   5608   5624     1  0.0000000  0.6024960  3
   5614   5606   5603   5615     1  0.0000000  4.9162000  2
   5614   5606   5603   5615     1  0.0000000  0.6024960  3
   5615   5603   5602   5616     1  0.0000000  0.6508444  3
   5615   5603   5602   5624     1  0.0000000  4.9162000  2
   5615   5603   5602   5624     1  0.0000000  0.6024960  3
   5622   5616   5602   5624     1  0.0000000  4.9162000  2
   5622   5616   5602   5624     1  0.0000000  0.6024960  3
   5625   5626   5629   5630     1  180.0000771  0.8368000  1
   5625   5626   5629   5630     1  180.0000771  1.0460000  2
   5625   5626   5629   5630     1  0.0000000  0.7531200  3
   5625   5626   5629   5637     1  0.0000000  0.6508444  3
   5625   5647   5631   5635     1  180.0000771  5.6484000  1
   5625   5647   5631   5635     1  180.0000771  3.5564000  2
   5625   5647   5631   5635     1  0.0000000  0.4184000  3
   5625   5647   5631   5630     1  180.0000771  0.4184000  2
   5625   5647   5631   5630     1  0.0000000  1.6024720  3
   5626   5629   5630   5631     1  180.0000771  0.8368000  1
   5626   5629   5630   5631     1  180.0000771  1.0460000  2
   5626   5629   5630   5631     1  0.0000000  0.7531200  3
   5626   5629   5630   5636     1  0.0000000  0.6508444  3
   5626   5625   5639   5645     1  0.0000000  0.6508444  3
   5626   5625   5647   5631     1  180.0000771  0.4184000  2
   5626   5625   5647   5631     1  0.0000000  1.6024720  3
   5629   5630   5631   5635     1  0.0000000  0.6508444  3
   5629   5630   5631   5647     1  0.0000000  0.6508444  3
   5629   5626   5625   5639     1  180.0000771  0.8368000  1
   5629   5626   5625   5639     1  180.0000771  1.0460000  2
   5629   5626   5625   5639     1  0.0000000  0.7531200  3
   5629   5626   5625   5647     1  0.0000000  0.6508444  3
   5630   5629   5626   5638     1  0.0000000  0.6508444  3
   5631   5647   5625   5639     1  180.0000771  0.4184000  2
   5631   5647   5625   5639     1  0.0000000  1.6024720  3
   5631   5630   5629   5637     1  0.0000000  0.6508444  3
   5635   5631   5630   5636     1  0.0000000  4.9162000  2
   5635   5631   5630   5636     1  0.0000000  0.6024960  3
   5636   5630   5631   5647     1  0.0000000  4.9162000  2
   5636   5630   5631   5647     1  0.0000000  0.6024960  3
   5636   5630   5629   5637     1  0.0000000  4.9162000  2
   5636   5630   5629   5637     1  0.0000000  0.6024960  3
   5637   5629   5626   5638     1  0.0000000  4.9162000  2
   5637   5629   5626   5638     1  0.0000000  0.6024960  3
   5638   5626   5625   5639     1  0.0000000  0.6508444  3
   5638   5626   5625   5647     1  0.0000000  4.9162000  2
   5638   5626   5625   5647     1  0.0000000  0.6024960  3
   5645   5639   5625   5647     1  0.0000000  4.9162000  2
   5645   5639   5625   5647     1  0.0000000  0.6024960  3
   5648   5649   5652   5653     1  180.0000771  0.8368000  1
   5648   5649   5652   5653     1  180.0000771  1.0460000  2
   5648   5649   5652   5653     1  0.0000000  0.7531200  3
   5648   5649   5652   5660     1  0.0000000  0.6508444  3
   5648   5670   5654   5653     1  180.0000771  0.4184000  2
   5648   5670   5654   5653     1  0.0000000  1.6024720  3
   5648   5670   5654   5658     1  180.0000771  5.6484000  1
   5648   5670   5654   5658     1  180.0000771  3.5564000  2
   5648   5670   5654   5658     1  0.0000000  0.4184000  3
   5649   5648   5662   5668     1  0.0000000  0.6508444  3
   5649   5648   5670   5654     1  180.0000771  0.4184000  2
   5649   5648   5670   5654     1  0.0000000  1.6024720  3
   5649   5652   5653   5654     1  180.0000771  0.8368000  1
   5649   5652   5653   5654     1  180.0000771  1.0460000  2
   5649   5652   5653   5654     1  0.0000000  0.7531200  3
   5649   5652   5653   5659     1  0.0000000  0.6508444  3
   5652   5649   5648   5662     1  180.0000771  0.8368000  1
   5652   5649   5648   5662     1  180.0000771  1.0460000  2
   5652   5649   5648   5662     1  0.0000000  0.7531200  3
   5652   5649   5648   5670     1  0.0000000  0.6508444  3
   5652   5653   5654   5658     1  0.0000000  0.6508444  3
   5652   5653   5654   5670     1  0.0000000  0.6508444  3
   5653   5652   5649   5661     1  0.0000000  0.6508444  3
   5654   5653   5652   5660     1  0.0000000  0.6508444  3
   5654   5670   5648   5662     1  180.0000771  0.4184000  2
   5654   5670   5648   5662     1  0.0000000  1.6024720  3
   5658   5654   5653   5659     1  0.0000000  4.9162000  2
   5658   5654   5653   5659     1  0.0000000  0.6024960  3
   5659   5653   5652   5660     1  0.0000000  4.9162000  2
   5659   5653   5652   5660     1  0.0000000  0.6024960  3
   5659   5653   5654   5670     1  0.0000000  4.9162000  2
   5659   5653   5654   5670     1  0.0000000  0.6024960  3
   5660   5652   5649   5661     1  0.0000000  4.9162000  2
   5660   5652   5649   5661     1  0.0000000  0.6024960  3
   5661   5649   5648   5662     1  0.0000000  0.6508444  3
   5661   5649   5648   5670     1  0.0000000  4.9162000  2
   5661   5649   5648   5670     1  0.0000000  0.6024960  3
   5668   5662   5648   5670     1  0.0000000  4.9162000  2
   5668   5662   5648   5670     1  0.0000000  0.6024960  3
   5671   5672   5675   5676     1  180.0000771  0.8368000  1
   5671   5672   5675   5676     1  180.0000771  1.0460000  2
   5671   5672   5675   5676     1  0.0000000  0.7531200  3
   5671   5672   5675   5683     1  0.0000000  0.6508444  3
   5671   5693   5677   5681     1  180.0000771  5.6484000  1
   5671   5693   5677   5681     1  180.0000771  3.5564000  2
   5671   5693   5677   5681     1  0.0000000  0.4184000  3
   5671   5693   5677   5676     1  180.0000771  0.4184000  2
   5671   5693   5677   5676     1  0.0000000  1.6024720  3
   5672   5675   5676   5677     1  180.0000771  0.8368000  1
   5672   5675   5676   5677     1  180.0000771  1.0460000  2
   5672   5675   5676   5677     1  0.0000000  0.7531200  3
   5672   5675   5676   5682     1  0.0000000  0.6508444  3
   5672   5671   5685   5691     1  0.0000000  0.6508444  3
   5672   5671   5693   5677     1  180.0000771  0.4184000  2
   5672   5671   5693   5677     1  0.0000000  1.6024720  3
   5675   5676   5677   5681     1  0.0000000  0.6508444  3
   5675   5676   5677   5693     1  0.0000000  0.6508444  3
   5675   5672   5671   5685     1  180.0000771  0.8368000  1
   5675   5672   5671   5685     1  180.0000771  1.0460000  2
   5675   5672   5671   5685     1  0.0000000  0.7531200  3
   5675   5672   5671   5693     1  0.0000000  0.6508444  3
   5676   5675   5672   5684     1  0.0000000  0.6508444  3
   5677   5693   5671   5685     1  180.0000771  0.4184000  2
   5677   5693   5671   5685     1  0.0000000  1.6024720  3
   5677   5676   5675   5683     1  0.0000000  0.6508444  3
   5681   5677   5676   5682     1  0.0000000  4.9162000  2
   5681   5677   5676   5682     1  0.0000000  0.6024960  3
   5682   5676   5677   5693     1  0.0000000  4.9162000  2
   5682   5676   5677   5693     1  0.0000000  0.6024960  3
   5682   5676   5675   5683     1  0.0000000  4.9162000  2
   5682   5676   5675   5683     1  0.0000000  0.6024960  3
   5683   5675   5672   5684     1  0.0000000  4.9162000  2
   5683   5675   5672   5684     1  0.0000000  0.6024960  3
   5684   5672   5671   5685     1  0.0000000  0.6508444  3
   5684   5672   5671   5693     1  0.0000000  4.9162000  2
   5684   5672   5671   5693     1  0.0000000  0.6024960  3
   5691   5685   5671   5693     1  0.0000000  4.9162000  2
   5691   5685   5671   5693     1  0.0000000  0.6024960  3
   5694   5695   5698   5699     1  180.0000771  0.8368000  1
   5694   5695   5698   5699     1  180.0000771  1.0460000  2
   5694   5695   5698   5699     1  0.0000000  0.7531200  3
   5694   5695   5698   5706     1  0.0000000  0.6508444  3
   5694   5716   5700   5699     1  180.0000771  0.4184000  2
   5694   5716   5700   5699     1  0.0000000  1.6024720  3
   5694   5716   5700   5704     1  180.0000771  5.6484000  1
   5694   5716   5700   5704     1  180.0000771  3.5564000  2
   5694   5716   5700   5704     1  0.0000000  0.4184000  3
   5695   5694   5708   5714     1  0.0000000  0.6508444  3
   5695   5694   5716   5700     1  180.0000771  0.4184000  2
   5695   5694   5716   5700     1  0.0000000  1.6024720  3
   5695   5698   5699   5700     1  180.0000771  0.8368000  1
   5695   5698   5699   5700     1  180.0000771  1.0460000  2
   5695   5698   5699   5700     1  0.0000000  0.7531200  3
   5695   5698   5699   5705     1  0.0000000  0.6508444  3
   5698   5695   5694   5708     1  180.0000771  0.8368000  1
   5698   5695   5694   5708     1  180.0000771  1.0460000  2
   5698   5695   5694   5708     1  0.0000000  0.7531200  3
   5698   5695   5694   5716     1  0.0000000  0.6508444  3
   5698   5699   5700   5704     1  0.0000000  0.6508444  3
   5698   5699   5700   5716     1  0.0000000  0.6508444  3
   5699   5698   5695   5707     1  0.0000000  0.6508444  3
   5700   5699   5698   5706     1  0.0000000  0.6508444  3
   5700   5716   5694   5708     1  180.0000771  0.4184000  2
   5700   5716   5694   5708     1  0.0000000  1.6024720  3
   5704   5700   5699   5705     1  0.0000000  4.9162000  2
   5704   5700   5699   5705     1  0.0000000  0.6024960  3
   5705   5699   5698   5706     1  0.0000000  4.9162000  2
   5705   5699   5698   5706     1  0.0000000  0.6024960  3
   5705   5699   5700   5716     1  0.0000000  4.9162000  2
   5705   5699   5700   5716     1  0.0000000  0.6024960  3
   5706   5698   5695   5707     1  0.0000000  4.9162000  2
   5706   5698   5695   5707     1  0.0000000  0.6024960  3
   5707   5695   5694   5708     1  0.0000000  0.6508444  3
   5707   5695   5694   5716     1  0.0000000  4.9162000  2
   5707   5695   5694   5716     1  0.0000000  0.6024960  3
   5714   5708   5694   5716     1  0.0000000  4.9162000  2
   5714   5708   5694   5716     1  0.0000000  0.6024960  3
   5717   5718   5721   5722     1  180.0000771  0.8368000  1
   5717   5718   5721   5722     1  180.0000771  1.0460000  2
   5717   5718   5721   5722     1  0.0000000  0.7531200  3
   5717   5718   5721   5729     1  0.0000000  0.6508444  3
   5717   5739   5723   5727     1  180.0000771  5.6484000  1
   5717   5739   5723   5727     1  180.0000771  3.5564000  2
   5717   5739   5723   5727     1  0.0000000  0.4184000  3
   5717   5739   5723   5722     1  180.0000771  0.4184000  2
   5717   5739   5723   5722     1  0.0000000  1.6024720  3
   5718   5721   5722   5723     1  180.0000771  0.8368000  1
   5718   5721   5722   5723     1  180.0000771  1.0460000  2
   5718   5721   5722   5723     1  0.0000000  0.7531200  3
   5718   5721   5722   5728     1  0.0000000  0.6508444  3
   5718   5717   5731   5737     1  0.0000000  0.6508444  3
   5718   5717   5739   5723     1  180.0000771  0.4184000  2
   5718   5717   5739   5723     1  0.0000000  1.6024720  3
   5721   5722   5723   5727     1  0.0000000  0.6508444  3
   5721   5722   5723   5739     1  0.0000000  0.6508444  3
   5721   5718   5717   5731     1  180.0000771  0.8368000  1
   5721   5718   5717   5731     1  180.0000771  1.0460000  2
   5721   5718   5717   5731     1  0.0000000  0.7531200  3
   5721   5718   5717   5739     1  0.0000000  0.6508444  3
   5722   5721   5718   5730     1  0.0000000  0.6508444  3
   5723   5739   5717   5731     1  180.0000771  0.4184000  2
   5723   5739   5717   5731     1  0.0000000  1.6024720  3
   5723   5722   5721   5729     1  0.0000000  0.6508444  3
   5727   5723   5722   5728     1  0.0000000  4.9162000  2
   5727   5723   5722   5728     1  0.0000000  0.6024960  3
   5728   5722   5723   5739     1  0.0000000  4.9162000  2
   5728   5722   5723   5739     1  0.0000000  0.6024960  3
   5728   5722   5721   5729     1  0.0000000  4.9162000  2
   5728   5722   5721   5729     1  0.0000000  0.6024960  3
   5729   5721   5718   5730     1  0.0000000  4.9162000  2
   5729   5721   5718   5730     1  0.0000000  0.6024960  3
   5730   5718   5717   5731     1  0.0000000  0.6508444  3
   5730   5718   5717   5739     1  0.0000000  4.9162000  2
   5730   5718   5717   5739     1  0.0000000  0.6024960  3
   5737   5731   5717   5739     1  0.0000000  4.9162000  2
   5737   5731   5717   5739     1  0.0000000  0.6024960  3
   5740   5741   5744   5745     1  180.0000771  0.8368000  1
   5740   5741   5744   5745     1  180.0000771  1.0460000  2
   5740   5741   5744   5745     1  0.0000000  0.7531200  3
   5740   5741   5744   5752     1  0.0000000  0.6508444  3
   5740   5762   5746   5745     1  180.0000771  0.4184000  2
   5740   5762   5746   5745     1  0.0000000  1.6024720  3
   5740   5762   5746   5750     1  180.0000771  5.6484000  1
   5740   5762   5746   5750     1  180.0000771  3.5564000  2
   5740   5762   5746   5750     1  0.0000000  0.4184000  3
   5741   5740   5754   5760     1  0.0000000  0.6508444  3
   5741   5740   5762   5746     1  180.0000771  0.4184000  2
   5741   5740   5762   5746     1  0.0000000  1.6024720  3
   5741   5744   5745   5746     1  180.0000771  0.8368000  1
   5741   5744   5745   5746     1  180.0000771  1.0460000  2
   5741   5744   5745   5746     1  0.0000000  0.7531200  3
   5741   5744   5745   5751     1  0.0000000  0.6508444  3
   5744   5741   5740   5754     1  180.0000771  0.8368000  1
   5744   5741   5740   5754     1  180.0000771  1.0460000  2
   5744   5741   5740   5754     1  0.0000000  0.7531200  3
   5744   5741   5740   5762     1  0.0000000  0.6508444  3
   5744   5745   5746   5750     1  0.0000000  0.6508444  3
   5744   5745   5746   5762     1  0.0000000  0.6508444  3
   5745   5744   5741   5753     1  0.0000000  0.6508444  3
   5746   5745   5744   5752     1  0.0000000  0.6508444  3
   5746   5762   5740   5754     1  180.0000771  0.4184000  2
   5746   5762   5740   5754     1  0.0000000  1.6024720  3
   5750   5746   5745   5751     1  0.0000000  4.9162000  2
   5750   5746   5745   5751     1  0.0000000  0.6024960  3
   5751   5745   5744   5752     1  0.0000000  4.9162000  2
   5751   5745   5744   5752     1  0.0000000  0.6024960  3
   5751   5745   5746   5762     1  0.0000000  4.9162000  2
   5751   5745   5746   5762     1  0.0000000  0.6024960  3
   5752   5744   5741   5753     1  0.0000000  4.9162000  2
   5752   5744   5741   5753     1  0.0000000  0.6024960  3
   5753   5741   5740   5754     1  0.0000000  0.6508444  3
   5753   5741   5740   5762     1  0.0000000  4.9162000  2
   5753   5741   5740   5762     1  0.0000000  0.6024960  3
   5760   5754   5740   5762     1  0.0000000  4.9162000  2
   5760   5754   5740   5762     1  0.0000000  0.6024960  3
   5763   5764   5767   5768     1  180.0000771  0.8368000  1
   5763   5764   5767   5768     1  180.0000771  1.0460000  2
   5763   5764   5767   5768     1  0.0000000  0.7531200  3
   5763   5764   5767   5775     1  0.0000000  0.6508444  3
   5763   5785   5769   5773     1  180.0000771  5.6484000  1
   5763   5785   5769   5773     1  180.0000771  3.5564000  2
   5763   5785   5769   5773     1  0.0000000  0.4184000  3
   5763   5785   5769   5768     1  180.0000771  0.4184000  2
   5763   5785   5769   5768     1  0.0000000  1.6024720  3
   5764   5767   5768   5769     1  180.0000771  0.8368000  1
   5764   5767   5768   5769     1  180.0000771  1.0460000  2
   5764   5767   5768   5769     1  0.0000000  0.7531200  3
   5764   5767   5768   5774     1  0.0000000  0.6508444  3
   5764   5763   5777   5783     1  0.0000000  0.6508444  3
   5764   5763   5785   5769     1  180.0000771  0.4184000  2
   5764   5763   5785   5769     1  0.0000000  1.6024720  3
   5767   5768   5769   5773     1  0.0000000  0.6508444  3
   5767   5768   5769   5785     1  0.0000000  0.6508444  3
   5767   5764   5763   5777     1  180.0000771  0.8368000  1
   5767   5764   5763   5777     1  180.0000771  1.0460000  2
   5767   5764   5763   5777     1  0.0000000  0.7531200  3
   5767   5764   5763   5785     1  0.0000000  0.6508444  3
   5768   5767   5764   5776     1  0.0000000  0.6508444  3
   5769   5785   5763   5777     1  180.0000771  0.4184000  2
   5769   5785   5763   5777     1  0.0000000  1.6024720  3
   5769   5768   5767   5775     1  0.0000000  0.6508444  3
   5773   5769   5768   5774     1  0.0000000  4.9162000  2
   5773   5769   5768   5774     1  0.0000000  0.6024960  3
   5774   5768   5769   5785     1  0.0000000  4.9162000  2
   5774   5768   5769   5785     1  0.0000000  0.6024960  3
   5774   5768   5767   5775     1  0.0000000  4.9162000  2
   5774   5768   5767   5775     1  0.0000000  0.6024960  3
   5775   5767   5764   5776     1  0.0000000  4.9162000  2
   5775   5767   5764   5776     1  0.0000000  0.6024960  3
   5776   5764   5763   5777     1  0.0000000  0.6508444  3
   5776   5764   5763   5785     1  0.0000000  4.9162000  2
   5776   5764   5763   5785     1  0.0000000  0.6024960  3
   5783   5777   5763   5785     1  0.0000000  4.9162000  2
   5783   5777   5763   5785     1  0.0000000  0.6024960  3
   5786   5787   5790   5791     1  180.0000771  0.8368000  1
   5786   5787   5790   5791     1  180.0000771  1.0460000  2
   5786   5787   5790   5791     1  0.0000000  0.7531200  3
   5786   5787   5790   5798     1  0.0000000  0.6508444  3
   5786   5808   5792   5791     1  180.0000771  0.4184000  2
   5786   5808   5792   5791     1  0.0000000  1.6024720  3
   5786   5808   5792   5796     1  180.0000771  5.6484000  1
   5786   5808   5792   5796     1  180.0000771  3.5564000  2
   5786   5808   5792   5796     1  0.0000000  0.4184000  3
   5787   5786   5800   5806     1  0.0000000  0.6508444  3
   5787   5786   5808   5792     1  180.0000771  0.4184000  2
   5787   5786   5808   5792     1  0.0000000  1.6024720  3
   5787   5790   5791   5792     1  180.0000771  0.8368000  1
   5787   5790   5791   5792     1  180.0000771  1.0460000  2
   5787   5790   5791   5792     1  0.0000000  0.7531200  3
   5787   5790   5791   5797     1  0.0000000  0.6508444  3
   5790   5787   5786   5800     1  180.0000771  0.8368000  1
   5790   5787   5786   5800     1  180.0000771  1.0460000  2
   5790   5787   5786   5800     1  0.0000000  0.7531200  3
   5790   5787   5786   5808     1  0.0000000  0.6508444  3
   5790   5791   5792   5796     1  0.0000000  0.6508444  3
   5790   5791   5792   5808     1  0.0000000  0.6508444  3
   5791   5790   5787   5799     1  0.0000000  0.6508444  3
   5792   5791   5790   5798     1  0.0000000  0.6508444  3
   5792   5808   5786   5800     1  180.0000771  0.4184000  2
   5792   5808   5786   5800     1  0.0000000  1.6024720  3
   5796   5792   5791   5797     1  0.0000000  4.9162000  2
   5796   5792   5791   5797     1  0.0000000  0.6024960  3
   5797   5791   5790   5798     1  0.0000000  4.9162000  2
   5797   5791   5790   5798     1  0.0000000  0.6024960  3
   5797   5791   5792   5808     1  0.0000000  4.9162000  2
   5797   5791   5792   5808     1  0.0000000  0.6024960  3
   5798   5790   5787   5799     1  0.0000000  4.9162000  2
   5798   5790   5787   5799     1  0.0000000  0.6024960  3
   5799   5787   5786   5800     1  0.0000000  0.6508444  3
   5799   5787   5786   5808     1  0.0000000  4.9162000  2
   5799   5787   5786   5808     1  0.0000000  0.6024960  3
   5806   5800   5786   5808     1  0.0000000  4.9162000  2
   5806   5800   5786   5808     1  0.0000000  0.6024960  3
   5809   5810   5813   5814     1  180.0000771  0.8368000  1
   5809   5810   5813   5814     1  180.0000771  1.0460000  2
   5809   5810   5813   5814     1  0.0000000  0.7531200  3
   5809   5810   5813   5821     1  0.0000000  0.6508444  3
   5809   5831   5815   5819     1  180.0000771  5.6484000  1
   5809   5831   5815   5819     1  180.0000771  3.5564000  2
   5809   5831   5815   5819     1  0.0000000  0.4184000  3
   5809   5831   5815   5814     1  180.0000771  0.4184000  2
   5809   5831   5815   5814     1  0.0000000  1.6024720  3
   5810   5813   5814   5815     1  180.0000771  0.8368000  1
   5810   5813   5814   5815     1  180.0000771  1.0460000  2
   5810   5813   5814   5815     1  0.0000000  0.7531200  3
   5810   5813   5814   5820     1  0.0000000  0.6508444  3
   5810   5809   5823   5829     1  0.0000000  0.6508444  3
   5810   5809   5831   5815     1  180.0000771  0.4184000  2
   5810   5809   5831   5815     1  0.0000000  1.6024720  3
   5813   5814   5815   5819     1  0.0000000  0.6508444  3
   5813   5814   5815   5831     1  0.0000000  0.6508444  3
   5813   5810   5809   5823     1  180.0000771  0.8368000  1
   5813   5810   5809   5823     1  180.0000771  1.0460000  2
   5813   5810   5809   5823     1  0.0000000  0.7531200  3
   5813   5810   5809   5831     1  0.0000000  0.6508444  3
   5814   5813   5810   5822     1  0.0000000  0.6508444  3
   5815   5831   5809   5823     1  180.0000771  0.4184000  2
   5815   5831   5809   5823     1  0.0000000  1.6024720  3
   5815   5814   5813   5821     1  0.0000000  0.6508444  3
   5819   5815   5814   5820     1  0.0000000  4.9162000  2
   5819   5815   5814   5820     1  0.0000000  0.6024960  3
   5820   5814   5815   5831     1  0.0000000  4.9162000  2
   5820   5814   5815   5831     1  0.0000000  0.6024960  3
   5820   5814   5813   5821     1  0.0000000  4.9162000  2
   5820   5814   5813   5821     1  0.0000000  0.6024960  3
   5821   5813   5810   5822     1  0.0000000  4.9162000  2
   5821   5813   5810   5822     1  0.0000000  0.6024960  3
   5822   5810   5809   5823     1  0.0000000  0.6508444  3
   5822   5810   5809   5831     1  0.0000000  4.9162000  2
   5822   5810   5809   5831     1  0.0000000  0.6024960  3
   5829   5823   5809   5831     1  0.0000000  4.9162000  2
   5829   5823   5809   5831     1  0.0000000  0.6024960  3
   5832   5833   5836   5837     1  180.0000771  0.8368000  1
   5832   5833   5836   5837     1  180.0000771  1.0460000  2
   5832   5833   5836   5837     1  0.0000000  0.7531200  3
   5832   5833   5836   5844     1  0.0000000  0.6508444  3
   5832   5854   5838   5837     1  180.0000771  0.4184000  2
   5832   5854   5838   5837     1  0.0000000  1.6024720  3
   5832   5854   5838   5842     1  180.0000771  5.6484000  1
   5832   5854   5838   5842     1  180.0000771  3.5564000  2
   5832   5854   5838   5842     1  0.0000000  0.4184000  3
   5833   5832   5846   5852     1  0.0000000  0.6508444  3
   5833   5832   5854   5838     1  180.0000771  0.4184000  2
   5833   5832   5854   5838     1  0.0000000  1.6024720  3
   5833   5836   5837   5838     1  180.0000771  0.8368000  1
   5833   5836   5837   5838     1  180.0000771  1.0460000  2
   5833   5836   5837   5838     1  0.0000000  0.7531200  3
   5833   5836   5837   5843     1  0.0000000  0.6508444  3
   5836   5833   5832   5846     1  180.0000771  0.8368000  1
   5836   5833   5832   5846     1  180.0000771  1.0460000  2
   5836   5833   5832   5846     1  0.0000000  0.7531200  3
   5836   5833   5832   5854     1  0.0000000  0.6508444  3
   5836   5837   5838   5842     1  0.0000000  0.6508444  3
   5836   5837   5838   5854     1  0.0000000  0.6508444  3
   5837   5836   5833   5845     1  0.0000000  0.6508444  3
   5838   5837   5836   5844     1  0.0000000  0.6508444  3
   5838   5854   5832   5846     1  180.0000771  0.4184000  2
   5838   5854   5832   5846     1  0.0000000  1.6024720  3
   5842   5838   5837   5843     1  0.0000000  4.9162000  2
   5842   5838   5837   5843     1  0.0000000  0.6024960  3
   5843   5837   5836   5844     1  0.0000000  4.9162000  2
   5843   5837   5836   5844     1  0.0000000  0.6024960  3
   5843   5837   5838   5854     1  0.0000000  4.9162000  2
   5843   5837   5838   5854     1  0.0000000  0.6024960  3
   5844   5836   5833   5845     1  0.0000000  4.9162000  2
   5844   5836   5833   5845     1  0.0000000  0.6024960  3
   5845   5833   5832   5846     1  0.0000000  0.6508444  3
   5845   5833   5832   5854     1  0.0000000  4.9162000  2
   5845   5833   5832   5854     1  0.0000000  0.6024960  3
   5852   5846   5832   5854     1  0.0000000  4.9162000  2
   5852   5846   5832   5854     1  0.0000000  0.6024960  3
   5855   5856   5859   5860     1  180.0000771  0.8368000  1
   5855   5856   5859   5860     1  180.0000771  1.0460000  2
   5855   5856   5859   5860     1  0.0000000  0.7531200  3
   5855   5856   5859   5867     1  0.0000000  0.6508444  3
   5855   5877   5861   5865     1  180.0000771  5.6484000  1
   5855   5877   5861   5865     1  180.0000771  3.5564000  2
   5855   5877   5861   5865     1  0.0000000  0.4184000  3
   5855   5877   5861   5860     1  180.0000771  0.4184000  2
   5855   5877   5861   5860     1  0.0000000  1.6024720  3
   5856   5859   5860   5861     1  180.0000771  0.8368000  1
   5856   5859   5860   5861     1  180.0000771  1.0460000  2
   5856   5859   5860   5861     1  0.0000000  0.7531200  3
   5856   5859   5860   5866     1  0.0000000  0.6508444  3
   5856   5855   5869   5875     1  0.0000000  0.6508444  3
   5856   5855   5877   5861     1  180.0000771  0.4184000  2
   5856   5855   5877   5861     1  0.0000000  1.6024720  3
   5859   5860   5861   5865     1  0.0000000  0.6508444  3
   5859   5860   5861   5877     1  0.0000000  0.6508444  3
   5859   5856   5855   5869     1  180.0000771  0.8368000  1
   5859   5856   5855   5869     1  180.0000771  1.0460000  2
   5859   5856   5855   5869     1  0.0000000  0.7531200  3
   5859   5856   5855   5877     1  0.0000000  0.6508444  3
   5860   5859   5856   5868     1  0.0000000  0.6508444  3
   5861   5877   5855   5869     1  180.0000771  0.4184000  2
   5861   5877   5855   5869     1  0.0000000  1.6024720  3
   5861   5860   5859   5867     1  0.0000000  0.6508444  3
   5865   5861   5860   5866     1  0.0000000  4.9162000  2
   5865   5861   5860   5866     1  0.0000000  0.6024960  3
   5866   5860   5861   5877     1  0.0000000  4.9162000  2
   5866   5860   5861   5877     1  0.0000000  0.6024960  3
   5866   5860   5859   5867     1  0.0000000  4.9162000  2
   5866   5860   5859   5867     1  0.0000000  0.6024960  3
   5867   5859   5856   5868     1  0.0000000  4.9162000  2
   5867   5859   5856   5868     1  0.0000000  0.6024960  3
   5868   5856   5855   5869     1  0.0000000  0.6508444  3
   5868   5856   5855   5877     1  0.0000000  4.9162000  2
   5868   5856   5855   5877     1  0.0000000  0.6024960  3
   5875   5869   5855   5877     1  0.0000000  4.9162000  2
   5875   5869   5855   5877     1  0.0000000  0.6024960  3
   5878   5879   5882   5883     1  180.0000771  0.8368000  1
   5878   5879   5882   5883     1  180.0000771  1.0460000  2
   5878   5879   5882   5883     1  0.0000000  0.7531200  3
   5878   5879   5882   5890     1  0.0000000  0.6508444  3
   5878   5900   5884   5883     1  180.0000771  0.4184000  2
   5878   5900   5884   5883     1  0.0000000  1.6024720  3
   5878   5900   5884   5888     1  180.0000771  5.6484000  1
   5878   5900   5884   5888     1  180.0000771  3.5564000  2
   5878   5900   5884   5888     1  0.0000000  0.4184000  3
   5879   5878   5892   5898     1  0.0000000  0.6508444  3
   5879   5878   5900   5884     1  180.0000771  0.4184000  2
   5879   5878   5900   5884     1  0.0000000  1.6024720  3
   5879   5882   5883   5884     1  180.0000771  0.8368000  1
   5879   5882   5883   5884     1  180.0000771  1.0460000  2
   5879   5882   5883   5884     1  0.0000000  0.7531200  3
   5879   5882   5883   5889     1  0.0000000  0.6508444  3
   5882   5879   5878   5892     1  180.0000771  0.8368000  1
   5882   5879   5878   5892     1  180.0000771  1.0460000  2
   5882   5879   5878   5892     1  0.0000000  0.7531200  3
   5882   5879   5878   5900     1  0.0000000  0.6508444  3
   5882   5883   5884   5888     1  0.0000000  0.6508444  3
   5882   5883   5884   5900     1  0.0000000  0.6508444  3
   5883   5882   5879   5891     1  0.0000000  0.6508444  3
   5884   5883   5882   5890     1  0.0000000  0.6508444  3
   5884   5900   5878   5892     1  180.0000771  0.4184000  2
   5884   5900   5878   5892     1  0.0000000  1.6024720  3
   5888   5884   5883   5889     1  0.0000000  4.9162000  2
   5888   5884   5883   5889     1  0.0000000  0.6024960  3
   5889   5883   5882   5890     1  0.0000000  4.9162000  2
   5889   5883   5882   5890     1  0.0000000  0.6024960  3
   5889   5883   5884   5900     1  0.0000000  4.9162000  2
   5889   5883   5884   5900     1  0.0000000  0.6024960  3
   5890   5882   5879   5891     1  0.0000000  4.9162000  2
   5890   5882   5879   5891     1  0.0000000  0.6024960  3
   5891   5879   5878   5892     1  0.0000000  0.6508444  3
   5891   5879   5878   5900     1  0.0000000  4.9162000  2
   5891   5879   5878   5900     1  0.0000000  0.6024960  3
   5898   5892   5878   5900     1  0.0000000  4.9162000  2
   5898   5892   5878   5900     1  0.0000000  0.6024960  3
   5901   5902   5905   5906     1  180.0000771  0.8368000  1
   5901   5902   5905   5906     1  180.0000771  1.0460000  2
   5901   5902   5905   5906     1  0.0000000  0.7531200  3
   5901   5902   5905   5913     1  0.0000000  0.6508444  3
   5901   5923   5907   5911     1  180.0000771  5.6484000  1
   5901   5923   5907   5911     1  180.0000771  3.5564000  2
   5901   5923   5907   5911     1  0.0000000  0.4184000  3
   5901   5923   5907   5906     1  180.0000771  0.4184000  2
   5901   5923   5907   5906     1  0.0000000  1.6024720  3
   5902   5905   5906   5907     1  180.0000771  0.8368000  1
   5902   5905   5906   5907     1  180.0000771  1.0460000  2
   5902   5905   5906   5907     1  0.0000000  0.7531200  3
   5902   5905   5906   5912     1  0.0000000  0.6508444  3
   5902   5901   5915   5921     1  0.0000000  0.6508444  3
   5902   5901   5923   5907     1  180.0000771  0.4184000  2
   5902   5901   5923   5907     1  0.0000000  1.6024720  3
   5905   5906   5907   5911     1  0.0000000  0.6508444  3
   5905   5906   5907   5923     1  0.0000000  0.6508444  3
   5905   5902   5901   5915     1  180.0000771  0.8368000  1
   5905   5902   5901   5915     1  180.0000771  1.0460000  2
   5905   5902   5901   5915     1  0.0000000  0.7531200  3
   5905   5902   5901   5923     1  0.0000000  0.6508444  3
   5906   5905   5902   5914     1  0.0000000  0.6508444  3
   5907   5923   5901   5915     1  180.0000771  0.4184000  2
   5907   5923   5901   5915     1  0.0000000  1.6024720  3
   5907   5906   5905   5913     1  0.0000000  0.6508444  3
   5911   5907   5906   5912     1  0.0000000  4.9162000  2
   5911   5907   5906   5912     1  0.0000000  0.6024960  3
   5912   5906   5907   5923     1  0.0000000  4.9162000  2
   5912   5906   5907   5923     1  0.0000000  0.6024960  3
   5912   5906   5905   5913     1  0.0000000  4.9162000  2
   5912   5906   5905   5913     1  0.0000000  0.6024960  3
   5913   5905   5902   5914     1  0.0000000  4.9162000  2
   5913   5905   5902   5914     1  0.0000000  0.6024960  3
   5914   5902   5901   5915     1  0.0000000  0.6508444  3
   5914   5902   5901   5923     1  0.0000000  4.9162000  2
   5914   5902   5901   5923     1  0.0000000  0.6024960  3
   5921   5915   5901   5923     1  0.0000000  4.9162000  2
   5921   5915   5901   5923     1  0.0000000  0.6024960  3
   5924   5925   5928   5929     1  180.0000771  0.8368000  1
   5924   5925   5928   5929     1  180.0000771  1.0460000  2
   5924   5925   5928   5929     1  0.0000000  0.7531200  3
   5924   5925   5928   5936     1  0.0000000  0.6508444  3
   5924   5946   5930   5929     1  180.0000771  0.4184000  2
   5924   5946   5930   5929     1  0.0000000  1.6024720  3
   5924   5946   5930   5934     1  180.0000771  5.6484000  1
   5924   5946   5930   5934     1  180.0000771  3.5564000  2
   5924   5946   5930   5934     1  0.0000000  0.4184000  3
   5925   5924   5938   5944     1  0.0000000  0.6508444  3
   5925   5924   5946   5930     1  180.0000771  0.4184000  2
   5925   5924   5946   5930     1  0.0000000  1.6024720  3
   5925   5928   5929   5930     1  180.0000771  0.8368000  1
   5925   5928   5929   5930     1  180.0000771  1.0460000  2
   5925   5928   5929   5930     1  0.0000000  0.7531200  3
   5925   5928   5929   5935     1  0.0000000  0.6508444  3
   5928   5925   5924   5938     1  180.0000771  0.8368000  1
   5928   5925   5924   5938     1  180.0000771  1.0460000  2
   5928   5925   5924   5938     1  0.0000000  0.7531200  3
   5928   5925   5924   5946     1  0.0000000  0.6508444  3
   5928   5929   5930   5934     1  0.0000000  0.6508444  3
   5928   5929   5930   5946     1  0.0000000  0.6508444  3
   5929   5928   5925   5937     1  0.0000000  0.6508444  3
   5930   5929   5928   5936     1  0.0000000  0.6508444  3
   5930   5946   5924   5938     1  180.0000771  0.4184000  2
   5930   5946   5924   5938     1  0.0000000  1.6024720  3
   5934   5930   5929   5935     1  0.0000000  4.9162000  2
   5934   5930   5929   5935     1  0.0000000  0.6024960  3
   5935   5929   5928   5936     1  0.0000000  4.9162000  2
   5935   5929   5928   5936     1  0.0000000  0.6024960  3
   5935   5929   5930   5946     1  0.0000000  4.9162000  2
   5935   5929   5930   5946     1  0.0000000  0.6024960  3
   5936   5928   5925   5937     1  0.0000000  4.9162000  2
   5936   5928   5925   5937     1  0.0000000  0.6024960  3
   5937   5925   5924   5938     1  0.0000000  0.6508444  3
   5937   5925   5924   5946     1  0.0000000  4.9162000  2
   5937   5925   5924   5946     1  0.0000000  0.6024960  3
   5944   5938   5924   5946     1  0.0000000  4.9162000  2
   5944   5938   5924   5946     1  0.0000000  0.6024960  3
   5947   5948   5951   5952     1  180.0000771  0.8368000  1
   5947   5948   5951   5952     1  180.0000771  1.0460000  2
   5947   5948   5951   5952     1  0.0000000  0.7531200  3
   5947   5948   5951   5959     1  0.0000000  0.6508444  3
   5947   5969   5953   5957     1  180.0000771  5.6484000  1
   5947   5969   5953   5957     1  180.0000771  3.5564000  2
   5947   5969   5953   5957     1  0.0000000  0.4184000  3
   5947   5969   5953   5952     1  180.0000771  0.4184000  2
   5947   5969   5953   5952     1  0.0000000  1.6024720  3
   5948   5951   5952   5953     1  180.0000771  0.8368000  1
   5948   5951   5952   5953     1  180.0000771  1.0460000  2
   5948   5951   5952   5953     1  0.0000000  0.7531200  3
   5948   5951   5952   5958     1  0.0000000  0.6508444  3
   5948   5947   5961   5967     1  0.0000000  0.6508444  3
   5948   5947   5969   5953     1  180.0000771  0.4184000  2
   5948   5947   5969   5953     1  0.0000000  1.6024720  3
   5951   5952   5953   5957     1  0.0000000  0.6508444  3
   5951   5952   5953   5969     1  0.0000000  0.6508444  3
   5951   5948   5947   5961     1  180.0000771  0.8368000  1
   5951   5948   5947   5961     1  180.0000771  1.0460000  2
   5951   5948   5947   5961     1  0.0000000  0.7531200  3
   5951   5948   5947   5969     1  0.0000000  0.6508444  3
   5952   5951   5948   5960     1  0.0000000  0.6508444  3
   5953   5969   5947   5961     1  180.0000771  0.4184000  2
   5953   5969   5947   5961     1  0.0000000  1.6024720  3
   5953   5952   5951   5959     1  0.0000000  0.6508444  3
   5957   5953   5952   5958     1  0.0000000  4.9162000  2
   5957   5953   5952   5958     1  0.0000000  0.6024960  3
   5958   5952   5953   5969     1  0.0000000  4.9162000  2
   5958   5952   5953   5969     1  0.0000000  0.6024960  3
   5958   5952   5951   5959     1  0.0000000  4.9162000  2
   5958   5952   5951   5959     1  0.0000000  0.6024960  3
   5959   5951   5948   5960     1  0.0000000  4.9162000  2
   5959   5951   5948   5960     1  0.0000000  0.6024960  3
   5960   5948   5947   5961     1  0.0000000  0.6508444  3
   5960   5948   5947   5969     1  0.0000000  4.9162000  2
   5960   5948   5947   5969     1  0.0000000  0.6024960  3
   5967   5961   5947   5969     1  0.0000000  4.9162000  2
   5967   5961   5947   5969     1  0.0000000  0.6024960  3
   5970   5971   5974   5975     1  180.0000771  0.8368000  1
   5970   5971   5974   5975     1  180.0000771  1.0460000  2
   5970   5971   5974   5975     1  0.0000000  0.7531200  3
   5970   5971   5974   5982     1  0.0000000  0.6508444  3
   5970   5992   5976   5975     1  180.0000771  0.4184000  2
   5970   5992   5976   5975     1  0.0000000  1.6024720  3
   5970   5992   5976   5980     1  180.0000771  5.6484000  1
   5970   5992   5976   5980     1  180.0000771  3.5564000  2
   5970   5992   5976   5980     1  0.0000000  0.4184000  3
   5971   5970   5984   5990     1  0.0000000  0.6508444  3
   5971   5970   5992   5976     1  180.0000771  0.4184000  2
   5971   5970   5992   5976     1  0.0000000  1.6024720  3
   5971   5974   5975   5976     1  180.0000771  0.8368000  1
   5971   5974   5975   5976     1  180.0000771  1.0460000  2
   5971   5974   5975   5976     1  0.0000000  0.7531200  3
   5971   5974   5975   5981     1  0.0000000  0.6508444  3
   5974   5971   5970   5984     1  180.0000771  0.8368000  1
   5974   5971   5970   5984     1  180.0000771  1.0460000  2
   5974   5971   5970   5984     1  0.0000000  0.7531200  3
   5974   5971   5970   5992     1  0.0000000  0.6508444  3
   5974   5975   5976   5980     1  0.0000000  0.6508444  3
   5974   5975   5976   5992     1  0.0000000  0.6508444  3
   5975   5974   5971   5983     1  0.0000000  0.6508444  3
   5976   5975   5974   5982     1  0.0000000  0.6508444  3
   5976   5992   5970   5984     1  180.0000771  0.4184000  2
   5976   5992   5970   5984     1  0.0000000  1.6024720  3
   5980   5976   5975   5981     1  0.0000000  4.9162000  2
   5980   5976   5975   5981     1  0.0000000  0.6024960  3
   5981   5975   5974   5982     1  0.0000000  4.9162000  2
   5981   5975   5974   5982     1  0.0000000  0.6024960  3
   5981   5975   5976   5992     1  0.0000000  4.9162000  2
   5981   5975   5976   5992     1  0.0000000  0.6024960  3
   5982   5974   5971   5983     1  0.0000000  4.9162000  2
   5982   5974   5971   5983     1  0.0000000  0.6024960  3
   5983   5971   5970   5984     1  0.0000000  0.6508444  3
   5983   5971   5970   5992     1  0.0000000  4.9162000  2
   5983   5971   5970   5992     1  0.0000000  0.6024960  3
   5990   5984   5970   5992     1  0.0000000  4.9162000  2
   5990   5984   5970   5992     1  0.0000000  0.6024960  3
   5993   5994   5997   5998     1  180.0000771  0.8368000  1
   5993   5994   5997   5998     1  180.0000771  1.0460000  2
   5993   5994   5997   5998     1  0.0000000  0.7531200  3
   5993   5994   5997   6005     1  0.0000000  0.6508444  3
   5993   6015   5999   6003     1  180.0000771  5.6484000  1
   5993   6015   5999   6003     1  180.0000771  3.5564000  2
   5993   6015   5999   6003     1  0.0000000  0.4184000  3
   5993   6015   5999   5998     1  180.0000771  0.4184000  2
   5993   6015   5999   5998     1  0.0000000  1.6024720  3
   5994   5997   5998   5999     1  180.0000771  0.8368000  1
   5994   5997   5998   5999     1  180.0000771  1.0460000  2
   5994   5997   5998   5999     1  0.0000000  0.7531200  3
   5994   5997   5998   6004     1  0.0000000  0.6508444  3
   5994   5993   6007   6013     1  0.0000000  0.6508444  3
   5994   5993   6015   5999     1  180.0000771  0.4184000  2
   5994   5993   6015   5999     1  0.0000000  1.6024720  3
   5997   5998   5999   6003     1  0.0000000  0.6508444  3
   5997   5998   5999   6015     1  0.0000000  0.6508444  3
   5997   5994   5993   6007     1  180.0000771  0.8368000  1
   5997   5994   5993   6007     1  180.0000771  1.0460000  2
   5997   5994   5993   6007     1  0.0000000  0.7531200  3
   5997   5994   5993   6015     1  0.0000000  0.6508444  3
   5998   5997   5994   6006     1  0.0000000  0.6508444  3
   5999   6015   5993   6007     1  180.0000771  0.4184000  2
   5999   6015   5993   6007     1  0.0000000  1.6024720  3
   5999   5998   5997   6005     1  0.0000000  0.6508444  3
   6003   5999   5998   6004     1  0.0000000  4.9162000  2
   6003   5999   5998   6004     1  0.0000000  0.6024960  3
   6004   5998   5999   6015     1  0.0000000  4.9162000  2
   6004   5998   5999   6015     1  0.0000000  0.6024960  3
   6004   5998   5997   6005     1  0.0000000  4.9162000  2
   6004   5998   5997   6005     1  0.0000000  0.6024960  3
   6005   5997   5994   6006     1  0.0000000  4.9162000  2
   6005   5997   5994   6006     1  0.0000000  0.6024960  3
   6006   5994   5993   6007     1  0.0000000  0.6508444  3
   6006   5994   5993   6015     1  0.0000000  4.9162000  2
   6006   5994   5993   6015     1  0.0000000  0.6024960  3
   6013   6007   5993   6015     1  0.0000000  4.9162000  2
   6013   6007   5993   6015     1  0.0000000  0.6024960  3
   6016   6017   6020   6021     1  180.0000771  0.8368000  1
   6016   6017   6020   6021     1  180.0000771  1.0460000  2
   6016   6017   6020   6021     1  0.0000000  0.7531200  3
   6016   6017   6020   6028     1  0.0000000  0.6508444  3
   6016   6038   6022   6021     1  180.0000771  0.4184000  2
   6016   6038   6022   6021     1  0.0000000  1.6024720  3
   6016   6038   6022   6026     1  180.0000771  5.6484000  1
   6016   6038   6022   6026     1  180.0000771  3.5564000  2
   6016   6038   6022   6026     1  0.0000000  0.4184000  3
   6017   6016   6030   6036     1  0.0000000  0.6508444  3
   6017   6016   6038   6022     1  180.0000771  0.4184000  2
   6017   6016   6038   6022     1  0.0000000  1.6024720  3
   6017   6020   6021   6022     1  180.0000771  0.8368000  1
   6017   6020   6021   6022     1  180.0000771  1.0460000  2
   6017   6020   6021   6022     1  0.0000000  0.7531200  3
   6017   6020   6021   6027     1  0.0000000  0.6508444  3
   6020   6017   6016   6030     1  180.0000771  0.8368000  1
   6020   6017   6016   6030     1  180.0000771  1.0460000  2
   6020   6017   6016   6030     1  0.0000000  0.7531200  3
   6020   6017   6016   6038     1  0.0000000  0.6508444  3
   6020   6021   6022   6026     1  0.0000000  0.6508444  3
   6020   6021   6022   6038     1  0.0000000  0.6508444  3
   6021   6020   6017   6029     1  0.0000000  0.6508444  3
   6022   6021   6020   6028     1  0.0000000  0.6508444  3
   6022   6038   6016   6030     1  180.0000771  0.4184000  2
   6022   6038   6016   6030     1  0.0000000  1.6024720  3
   6026   6022   6021   6027     1  0.0000000  4.9162000  2
   6026   6022   6021   6027     1  0.0000000  0.6024960  3
   6027   6021   6020   6028     1  0.0000000  4.9162000  2
   6027   6021   6020   6028     1  0.0000000  0.6024960  3
   6027   6021   6022   6038     1  0.0000000  4.9162000  2
   6027   6021   6022   6038     1  0.0000000  0.6024960  3
   6028   6020   6017   6029     1  0.0000000  4.9162000  2
   6028   6020   6017   6029     1  0.0000000  0.6024960  3
   6029   6017   6016   6030     1  0.0000000  0.6508444  3
   6029   6017   6016   6038     1  0.0000000  4.9162000  2
   6029   6017   6016   6038     1  0.0000000  0.6024960  3
   6036   6030   6016   6038     1  0.0000000  4.9162000  2
   6036   6030   6016   6038     1  0.0000000  0.6024960  3
   6039   6040   6043   6044     1  180.0000771  0.8368000  1
   6039   6040   6043   6044     1  180.0000771  1.0460000  2
   6039   6040   6043   6044     1  0.0000000  0.7531200  3
   6039   6040   6043   6051     1  0.0000000  0.6508444  3
   6039   6061   6045   6049     1  180.0000771  5.6484000  1
   6039   6061   6045   6049     1  180.0000771  3.5564000  2
   6039   6061   6045   6049     1  0.0000000  0.4184000  3
   6039   6061   6045   6044     1  180.0000771  0.4184000  2
   6039   6061   6045   6044     1  0.0000000  1.6024720  3
   6040   6043   6044   6045     1  180.0000771  0.8368000  1
   6040   6043   6044   6045     1  180.0000771  1.0460000  2
   6040   6043   6044   6045     1  0.0000000  0.7531200  3
   6040   6043   6044   6050     1  0.0000000  0.6508444  3
   6040   6039   6053   6059     1  0.0000000  0.6508444  3
   6040   6039   6061   6045     1  180.0000771  0.4184000  2
   6040   6039   6061   6045     1  0.0000000  1.6024720  3
   6043   6044   6045   6049     1  0.0000000  0.6508444  3
   6043   6044   6045   6061     1  0.0000000  0.6508444  3
   6043   6040   6039   6053     1  180.0000771  0.8368000  1
   6043   6040   6039   6053     1  180.0000771  1.0460000  2
   6043   6040   6039   6053     1  0.0000000  0.7531200  3
   6043   6040   6039   6061     1  0.0000000  0.6508444  3
   6044   6043   6040   6052     1  0.0000000  0.6508444  3
   6045   6061   6039   6053     1  180.0000771  0.4184000  2
   6045   6061   6039   6053     1  0.0000000  1.6024720  3
   6045   6044   6043   6051     1  0.0000000  0.6508444  3
   6049   6045   6044   6050     1  0.0000000  4.9162000  2
   6049   6045   6044   6050     1  0.0000000  0.6024960  3
   6050   6044   6045   6061     1  0.0000000  4.9162000  2
   6050   6044   6045   6061     1  0.0000000  0.6024960  3
   6050   6044   6043   6051     1  0.0000000  4.9162000  2
   6050   6044   6043   6051     1  0.0000000  0.6024960  3
   6051   6043   6040   6052     1  0.0000000  4.9162000  2
   6051   6043   6040   6052     1  0.0000000  0.6024960  3
   6052   6040   6039   6053     1  0.0000000  0.6508444  3
   6052   6040   6039   6061     1  0.0000000  4.9162000  2
   6052   6040   6039   6061     1  0.0000000  0.6024960  3
   6059   6053   6039   6061     1  0.0000000  4.9162000  2
   6059   6053   6039   6061     1  0.0000000  0.6024960  3
   6062   6063   6066   6067     1  180.0000771  0.8368000  1
   6062   6063   6066   6067     1  180.0000771  1.0460000  2
   6062   6063   6066   6067     1  0.0000000  0.7531200  3
   6062   6063   6066   6074     1  0.0000000  0.6508444  3
   6062   6084   6068   6067     1  180.0000771  0.4184000  2
   6062   6084   6068   6067     1  0.0000000  1.6024720  3
   6062   6084   6068   6072     1  180.0000771  5.6484000  1
   6062   6084   6068   6072     1  180.0000771  3.5564000  2
   6062   6084   6068   6072     1  0.0000000  0.4184000  3
   6063   6062   6076   6082     1  0.0000000  0.6508444  3
   6063   6062   6084   6068     1  180.0000771  0.4184000  2
   6063   6062   6084   6068     1  0.0000000  1.6024720  3
   6063   6066   6067   6068     1  180.0000771  0.8368000  1
   6063   6066   6067   6068     1  180.0000771  1.0460000  2
   6063   6066   6067   6068     1  0.0000000  0.7531200  3
   6063   6066   6067   6073     1  0.0000000  0.6508444  3
   6066   6063   6062   6076     1  180.0000771  0.8368000  1
   6066   6063   6062   6076     1  180.0000771  1.0460000  2
   6066   6063   6062   6076     1  0.0000000  0.7531200  3
   6066   6063   6062   6084     1  0.0000000  0.6508444  3
   6066   6067   6068   6072     1  0.0000000  0.6508444  3
   6066   6067   6068   6084     1  0.0000000  0.6508444  3
   6067   6066   6063   6075     1  0.0000000  0.6508444  3
   6068   6067   6066   6074     1  0.0000000  0.6508444  3
   6068   6084   6062   6076     1  180.0000771  0.4184000  2
   6068   6084   6062   6076     1  0.0000000  1.6024720  3
   6072   6068   6067   6073     1  0.0000000  4.9162000  2
   6072   6068   6067   6073     1  0.0000000  0.6024960  3
   6073   6067   6066   6074     1  0.0000000  4.9162000  2
   6073   6067   6066   6074     1  0.0000000  0.6024960  3
   6073   6067   6068   6084     1  0.0000000  4.9162000  2
   6073   6067   6068   6084     1  0.0000000  0.6024960  3
   6074   6066   6063   6075     1  0.0000000  4.9162000  2
   6074   6066   6063   6075     1  0.0000000  0.6024960  3
   6075   6063   6062   6076     1  0.0000000  0.6508444  3
   6075   6063   6062   6084     1  0.0000000  4.9162000  2
   6075   6063   6062   6084     1  0.0000000  0.6024960  3
   6082   6076   6062   6084     1  0.0000000  4.9162000  2
   6082   6076   6062   6084     1  0.0000000  0.6024960  3
   6085   6086   6089   6090     1  180.0000771  0.8368000  1
   6085   6086   6089   6090     1  180.0000771  1.0460000  2
   6085   6086   6089   6090     1  0.0000000  0.7531200  3
   6085   6086   6089   6097     1  0.0000000  0.6508444  3
   6085   6107   6091   6095     1  180.0000771  5.6484000  1
   6085   6107   6091   6095     1  180.0000771  3.5564000  2
   6085   6107   6091   6095     1  0.0000000  0.4184000  3
   6085   6107   6091   6090     1  180.0000771  0.4184000  2
   6085   6107   6091   6090     1  0.0000000  1.6024720  3
   6086   6089   6090   6091     1  180.0000771  0.8368000  1
   6086   6089   6090   6091     1  180.0000771  1.0460000  2
   6086   6089   6090   6091     1  0.0000000  0.7531200  3
   6086   6089   6090   6096     1  0.0000000  0.6508444  3
   6086   6085   6099   6105     1  0.0000000  0.6508444  3
   6086   6085   6107   6091     1  180.0000771  0.4184000  2
   6086   6085   6107   6091     1  0.0000000  1.6024720  3
   6089   6090   6091   6095     1  0.0000000  0.6508444  3
   6089   6090   6091   6107     1  0.0000000  0.6508444  3
   6089   6086   6085   6099     1  180.0000771  0.8368000  1
   6089   6086   6085   6099     1  180.0000771  1.0460000  2
   6089   6086   6085   6099     1  0.0000000  0.7531200  3
   6089   6086   6085   6107     1  0.0000000  0.6508444  3
   6090   6089   6086   6098     1  0.0000000  0.6508444  3
   6091   6107   6085   6099     1  180.0000771  0.4184000  2
   6091   6107   6085   6099     1  0.0000000  1.6024720  3
   6091   6090   6089   6097     1  0.0000000  0.6508444  3
   6095   6091   6090   6096     1  0.0000000  4.9162000  2
   6095   6091   6090   6096     1  0.0000000  0.6024960  3
   6096   6090   6091   6107     1  0.0000000  4.9162000  2
   6096   6090   6091   6107     1  0.0000000  0.6024960  3
   6096   6090   6089   6097     1  0.0000000  4.9162000  2
   6096   6090   6089   6097     1  0.0000000  0.6024960  3
   6097   6089   6086   6098     1  0.0000000  4.9162000  2
   6097   6089   6086   6098     1  0.0000000  0.6024960  3
   6098   6086   6085   6099     1  0.0000000  0.6508444  3
   6098   6086   6085   6107     1  0.0000000  4.9162000  2
   6098   6086   6085   6107     1  0.0000000  0.6024960  3
   6105   6099   6085   6107     1  0.0000000  4.9162000  2
   6105   6099   6085   6107     1  0.0000000  0.6024960  3
   6108   6109   6112   6113     1  180.0000771  0.8368000  1
   6108   6109   6112   6113     1  180.0000771  1.0460000  2
   6108   6109   6112   6113     1  0.0000000  0.7531200  3
   6108   6109   6112   6120     1  0.0000000  0.6508444  3
   6108   6130   6114   6113     1  180.0000771  0.4184000  2
   6108   6130   6114   6113     1  0.0000000  1.6024720  3
   6108   6130   6114   6118     1  180.0000771  5.6484000  1
   6108   6130   6114   6118     1  180.0000771  3.5564000  2
   6108   6130   6114   6118     1  0.0000000  0.4184000  3
   6109   6108   6122   6128     1  0.0000000  0.6508444  3
   6109   6108   6130   6114     1  180.0000771  0.4184000  2
   6109   6108   6130   6114     1  0.0000000  1.6024720  3
   6109   6112   6113   6114     1  180.0000771  0.8368000  1
   6109   6112   6113   6114     1  180.0000771  1.0460000  2
   6109   6112   6113   6114     1  0.0000000  0.7531200  3
   6109   6112   6113   6119     1  0.0000000  0.6508444  3
   6112   6109   6108   6122     1  180.0000771  0.8368000  1
   6112   6109   6108   6122     1  180.0000771  1.0460000  2
   6112   6109   6108   6122     1  0.0000000  0.7531200  3
   6112   6109   6108   6130     1  0.0000000  0.6508444  3
   6112   6113   6114   6118     1  0.0000000  0.6508444  3
   6112   6113   6114   6130     1  0.0000000  0.6508444  3
   6113   6112   6109   6121     1  0.0000000  0.6508444  3
   6114   6113   6112   6120     1  0.0000000  0.6508444  3
   6114   6130   6108   6122     1  180.0000771  0.4184000  2
   6114   6130   6108   6122     1  0.0000000  1.6024720  3
   6118   6114   6113   6119     1  0.0000000  4.9162000  2
   6118   6114   6113   6119     1  0.0000000  0.6024960  3
   6119   6113   6112   6120     1  0.0000000  4.9162000  2
   6119   6113   6112   6120     1  0.0000000  0.6024960  3
   6119   6113   6114   6130     1  0.0000000  4.9162000  2
   6119   6113   6114   6130     1  0.0000000  0.6024960  3
   6120   6112   6109   6121     1  0.0000000  4.9162000  2
   6120   6112   6109   6121     1  0.0000000  0.6024960  3
   6121   6109   6108   6122     1  0.0000000  0.6508444  3
   6121   6109   6108   6130     1  0.0000000  4.9162000  2
   6121   6109   6108   6130     1  0.0000000  0.6024960  3
   6128   6122   6108   6130     1  0.0000000  4.9162000  2
   6128   6122   6108   6130     1  0.0000000  0.6024960  3
   6131   6132   6135   6136     1  180.0000771  0.8368000  1
   6131   6132   6135   6136     1  180.0000771  1.0460000  2
   6131   6132   6135   6136     1  0.0000000  0.7531200  3
   6131   6132   6135   6143     1  0.0000000  0.6508444  3
   6131   6153   6137   6141     1  180.0000771  5.6484000  1
   6131   6153   6137   6141     1  180.0000771  3.5564000  2
   6131   6153   6137   6141     1  0.0000000  0.4184000  3
   6131   6153   6137   6136     1  180.0000771  0.4184000  2
   6131   6153   6137   6136     1  0.0000000  1.6024720  3
   6132   6135   6136   6137     1  180.0000771  0.8368000  1
   6132   6135   6136   6137     1  180.0000771  1.0460000  2
   6132   6135   6136   6137     1  0.0000000  0.7531200  3
   6132   6135   6136   6142     1  0.0000000  0.6508444  3
   6132   6131   6145   6151     1  0.0000000  0.6508444  3
   6132   6131   6153   6137     1  180.0000771  0.4184000  2
   6132   6131   6153   6137     1  0.0000000  1.6024720  3
   6135   6136   6137   6141     1  0.0000000  0.6508444  3
   6135   6136   6137   6153     1  0.0000000  0.6508444  3
   6135   6132   6131   6145     1  180.0000771  0.8368000  1
   6135   6132   6131   6145     1  180.0000771  1.0460000  2
   6135   6132   6131   6145     1  0.0000000  0.7531200  3
   6135   6132   6131   6153     1  0.0000000  0.6508444  3
   6136   6135   6132   6144     1  0.0000000  0.6508444  3
   6137   6153   6131   6145     1  180.0000771  0.4184000  2
   6137   6153   6131   6145     1  0.0000000  1.6024720  3
   6137   6136   6135   6143     1  0.0000000  0.6508444  3
   6141   6137   6136   6142     1  0.0000000  4.9162000  2
   6141   6137   6136   6142     1  0.0000000  0.6024960  3
   6142   6136   6137   6153     1  0.0000000  4.9162000  2
   6142   6136   6137   6153     1  0.0000000  0.6024960  3
   6142   6136   6135   6143     1  0.0000000  4.9162000  2
   6142   6136   6135   6143     1  0.0000000  0.6024960  3
   6143   6135   6132   6144     1  0.0000000  4.9162000  2
   6143   6135   6132   6144     1  0.0000000  0.6024960  3
   6144   6132   6131   6145     1  0.0000000  0.6508444  3
   6144   6132   6131   6153     1  0.0000000  4.9162000  2
   6144   6132   6131   6153     1  0.0000000  0.6024960  3
   6151   6145   6131   6153     1  0.0000000  4.9162000  2
   6151   6145   6131   6153     1  0.0000000  0.6024960  3
   6154   6155   6158   6159     1  180.0000771  0.8368000  1
   6154   6155   6158   6159     1  180.0000771  1.0460000  2
   6154   6155   6158   6159     1  0.0000000  0.7531200  3
   6154   6155   6158   6166     1  0.0000000  0.6508444  3
   6154   6176   6160   6159     1  180.0000771  0.4184000  2
   6154   6176   6160   6159     1  0.0000000  1.6024720  3
   6154   6176   6160   6164     1  180.0000771  5.6484000  1
   6154   6176   6160   6164     1  180.0000771  3.5564000  2
   6154   6176   6160   6164     1  0.0000000  0.4184000  3
   6155   6154   6168   6174     1  0.0000000  0.6508444  3
   6155   6154   6176   6160     1  180.0000771  0.4184000  2
   6155   6154   6176   6160     1  0.0000000  1.6024720  3
   6155   6158   6159   6160     1  180.0000771  0.8368000  1
   6155   6158   6159   6160     1  180.0000771  1.0460000  2
   6155   6158   6159   6160     1  0.0000000  0.7531200  3
   6155   6158   6159   6165     1  0.0000000  0.6508444  3
   6158   6155   6154   6168     1  180.0000771  0.8368000  1
   6158   6155   6154   6168     1  180.0000771  1.0460000  2
   6158   6155   6154   6168     1  0.0000000  0.7531200  3
   6158   6155   6154   6176     1  0.0000000  0.6508444  3
   6158   6159   6160   6164     1  0.0000000  0.6508444  3
   6158   6159   6160   6176     1  0.0000000  0.6508444  3
   6159   6158   6155   6167     1  0.0000000  0.6508444  3
   6160   6159   6158   6166     1  0.0000000  0.6508444  3
   6160   6176   6154   6168     1  180.0000771  0.4184000  2
   6160   6176   6154   6168     1  0.0000000  1.6024720  3
   6164   6160   6159   6165     1  0.0000000  4.9162000  2
   6164   6160   6159   6165     1  0.0000000  0.6024960  3
   6165   6159   6158   6166     1  0.0000000  4.9162000  2
   6165   6159   6158   6166     1  0.0000000  0.6024960  3
   6165   6159   6160   6176     1  0.0000000  4.9162000  2
   6165   6159   6160   6176     1  0.0000000  0.6024960  3
   6166   6158   6155   6167     1  0.0000000  4.9162000  2
   6166   6158   6155   6167     1  0.0000000  0.6024960  3
   6167   6155   6154   6168     1  0.0000000  0.6508444  3
   6167   6155   6154   6176     1  0.0000000  4.9162000  2
   6167   6155   6154   6176     1  0.0000000  0.6024960  3
   6174   6168   6154   6176     1  0.0000000  4.9162000  2
   6174   6168   6154   6176     1  0.0000000  0.6024960  3
   6177   6178   6181   6182     1  180.0000771  0.8368000  1
   6177   6178   6181   6182     1  180.0000771  1.0460000  2
   6177   6178   6181   6182     1  0.0000000  0.7531200  3
   6177   6178   6181   6189     1  0.0000000  0.6508444  3
   6177   6199   6183   6187     1  180.0000771  5.6484000  1
   6177   6199   6183   6187     1  180.0000771  3.5564000  2
   6177   6199   6183   6187     1  0.0000000  0.4184000  3
   6177   6199   6183   6182     1  180.0000771  0.4184000  2
   6177   6199   6183   6182     1  0.0000000  1.6024720  3
   6178   6181   6182   6183     1  180.0000771  0.8368000  1
   6178   6181   6182   6183     1  180.0000771  1.0460000  2
   6178   6181   6182   6183     1  0.0000000  0.7531200  3
   6178   6181   6182   6188     1  0.0000000  0.6508444  3
   6178   6177   6191   6197     1  0.0000000  0.6508444  3
   6178   6177   6199   6183     1  180.0000771  0.4184000  2
   6178   6177   6199   6183     1  0.0000000  1.6024720  3
   6181   6182   6183   6187     1  0.0000000  0.6508444  3
   6181   6182   6183   6199     1  0.0000000  0.6508444  3
   6181   6178   6177   6191     1  180.0000771  0.8368000  1
   6181   6178   6177   6191     1  180.0000771  1.0460000  2
   6181   6178   6177   6191     1  0.0000000  0.7531200  3
   6181   6178   6177   6199     1  0.0000000  0.6508444  3
   6182   6181   6178   6190     1  0.0000000  0.6508444  3
   6183   6199   6177   6191     1  180.0000771  0.4184000  2
   6183   6199   6177   6191     1  0.0000000  1.6024720  3
   6183   6182   6181   6189     1  0.0000000  0.6508444  3
   6187   6183   6182   6188     1  0.0000000  4.9162000  2
   6187   6183   6182   6188     1  0.0000000  0.6024960  3
   6188   6182   6183   6199     1  0.0000000  4.9162000  2
   6188   6182   6183   6199     1  0.0000000  0.6024960  3
   6188   6182   6181   6189     1  0.0000000  4.9162000  2
   6188   6182   6181   6189     1  0.0000000  0.6024960  3
   6189   6181   6178   6190     1  0.0000000  4.9162000  2
   6189   6181   6178   6190     1  0.0000000  0.6024960  3
   6190   6178   6177   6191     1  0.0000000  0.6508444  3
   6190   6178   6177   6199     1  0.0000000  4.9162000  2
   6190   6178   6177   6199     1  0.0000000  0.6024960  3
   6197   6191   6177   6199     1  0.0000000  4.9162000  2
   6197   6191   6177   6199     1  0.0000000  0.6024960  3
   6200   6201   6204   6205     1  180.0000771  0.8368000  1
   6200   6201   6204   6205     1  180.0000771  1.0460000  2
   6200   6201   6204   6205     1  0.0000000  0.7531200  3
   6200   6201   6204   6212     1  0.0000000  0.6508444  3
   6200   6222   6206   6205     1  180.0000771  0.4184000  2
   6200   6222   6206   6205     1  0.0000000  1.6024720  3
   6200   6222   6206   6210     1  180.0000771  5.6484000  1
   6200   6222   6206   6210     1  180.0000771  3.5564000  2
   6200   6222   6206   6210     1  0.0000000  0.4184000  3
   6201   6200   6214   6220     1  0.0000000  0.6508444  3
   6201   6200   6222   6206     1  180.0000771  0.4184000  2
   6201   6200   6222   6206     1  0.0000000  1.6024720  3
   6201   6204   6205   6206     1  180.0000771  0.8368000  1
   6201   6204   6205   6206     1  180.0000771  1.0460000  2
   6201   6204   6205   6206     1  0.0000000  0.7531200  3
   6201   6204   6205   6211     1  0.0000000  0.6508444  3
   6204   6201   6200   6214     1  180.0000771  0.8368000  1
   6204   6201   6200   6214     1  180.0000771  1.0460000  2
   6204   6201   6200   6214     1  0.0000000  0.7531200  3
   6204   6201   6200   6222     1  0.0000000  0.6508444  3
   6204   6205   6206   6210     1  0.0000000  0.6508444  3
   6204   6205   6206   6222     1  0.0000000  0.6508444  3
   6205   6204   6201   6213     1  0.0000000  0.6508444  3
   6206   6205   6204   6212     1  0.0000000  0.6508444  3
   6206   6222   6200   6214     1  180.0000771  0.4184000  2
   6206   6222   6200   6214     1  0.0000000  1.6024720  3
   6210   6206   6205   6211     1  0.0000000  4.9162000  2
   6210   6206   6205   6211     1  0.0000000  0.6024960  3
   6211   6205   6204   6212     1  0.0000000  4.9162000  2
   6211   6205   6204   6212     1  0.0000000  0.6024960  3
   6211   6205   6206   6222     1  0.0000000  4.9162000  2
   6211   6205   6206   6222     1  0.0000000  0.6024960  3
   6212   6204   6201   6213     1  0.0000000  4.9162000  2
   6212   6204   6201   6213     1  0.0000000  0.6024960  3
   6213   6201   6200   6214     1  0.0000000  0.6508444  3
   6213   6201   6200   6222     1  0.0000000  4.9162000  2
   6213   6201   6200   6222     1  0.0000000  0.6024960  3
   6220   6214   6200   6222     1  0.0000000  4.9162000  2
   6220   6214   6200   6222     1  0.0000000  0.6024960  3
   6223   6224   6227   6228     1  180.0000771  0.8368000  1
   6223   6224   6227   6228     1  180.0000771  1.0460000  2
   6223   6224   6227   6228     1  0.0000000  0.7531200  3
   6223   6224   6227   6235     1  0.0000000  0.6508444  3
   6223   6245   6229   6233     1  180.0000771  5.6484000  1
   6223   6245   6229   6233     1  180.0000771  3.5564000  2
   6223   6245   6229   6233     1  0.0000000  0.4184000  3
   6223   6245   6229   6228     1  180.0000771  0.4184000  2
   6223   6245   6229   6228     1  0.0000000  1.6024720  3
   6224   6227   6228   6229     1  180.0000771  0.8368000  1
   6224   6227   6228   6229     1  180.0000771  1.0460000  2
   6224   6227   6228   6229     1  0.0000000  0.7531200  3
   6224   6227   6228   6234     1  0.0000000  0.6508444  3
   6224   6223   6237   6243     1  0.0000000  0.6508444  3
   6224   6223   6245   6229     1  180.0000771  0.4184000  2
   6224   6223   6245   6229     1  0.0000000  1.6024720  3
   6227   6228   6229   6233     1  0.0000000  0.6508444  3
   6227   6228   6229   6245     1  0.0000000  0.6508444  3
   6227   6224   6223   6237     1  180.0000771  0.8368000  1
   6227   6224   6223   6237     1  180.0000771  1.0460000  2
   6227   6224   6223   6237     1  0.0000000  0.7531200  3
   6227   6224   6223   6245     1  0.0000000  0.6508444  3
   6228   6227   6224   6236     1  0.0000000  0.6508444  3
   6229   6245   6223   6237     1  180.0000771  0.4184000  2
   6229   6245   6223   6237     1  0.0000000  1.6024720  3
   6229   6228   6227   6235     1  0.0000000  0.6508444  3
   6233   6229   6228   6234     1  0.0000000  4.9162000  2
   6233   6229   6228   6234     1  0.0000000  0.6024960  3
   6234   6228   6229   6245     1  0.0000000  4.9162000  2
   6234   6228   6229   6245     1  0.0000000  0.6024960  3
   6234   6228   6227   6235     1  0.0000000  4.9162000  2
   6234   6228   6227   6235     1  0.0000000  0.6024960  3
   6235   6227   6224   6236     1  0.0000000  4.9162000  2
   6235   6227   6224   6236     1  0.0000000  0.6024960  3
   6236   6224   6223   6237     1  0.0000000  0.6508444  3
   6236   6224   6223   6245     1  0.0000000  4.9162000  2
   6236   6224   6223   6245     1  0.0000000  0.6024960  3
   6243   6237   6223   6245     1  0.0000000  4.9162000  2
   6243   6237   6223   6245     1  0.0000000  0.6024960  3
   6246   6247   6250   6251     1  180.0000771  0.8368000  1
   6246   6247   6250   6251     1  180.0000771  1.0460000  2
   6246   6247   6250   6251     1  0.0000000  0.7531200  3
   6246   6247   6250   6258     1  0.0000000  0.6508444  3
   6246   6268   6252   6251     1  180.0000771  0.4184000  2
   6246   6268   6252   6251     1  0.0000000  1.6024720  3
   6246   6268   6252   6256     1  180.0000771  5.6484000  1
   6246   6268   6252   6256     1  180.0000771  3.5564000  2
   6246   6268   6252   6256     1  0.0000000  0.4184000  3
   6247   6246   6260   6266     1  0.0000000  0.6508444  3
   6247   6246   6268   6252     1  180.0000771  0.4184000  2
   6247   6246   6268   6252     1  0.0000000  1.6024720  3
   6247   6250   6251   6252     1  180.0000771  0.8368000  1
   6247   6250   6251   6252     1  180.0000771  1.0460000  2
   6247   6250   6251   6252     1  0.0000000  0.7531200  3
   6247   6250   6251   6257     1  0.0000000  0.6508444  3
   6250   6247   6246   6260     1  180.0000771  0.8368000  1
   6250   6247   6246   6260     1  180.0000771  1.0460000  2
   6250   6247   6246   6260     1  0.0000000  0.7531200  3
   6250   6247   6246   6268     1  0.0000000  0.6508444  3
   6250   6251   6252   6256     1  0.0000000  0.6508444  3
   6250   6251   6252   6268     1  0.0000000  0.6508444  3
   6251   6250   6247   6259     1  0.0000000  0.6508444  3
   6252   6251   6250   6258     1  0.0000000  0.6508444  3
   6252   6268   6246   6260     1  180.0000771  0.4184000  2
   6252   6268   6246   6260     1  0.0000000  1.6024720  3
   6256   6252   6251   6257     1  0.0000000  4.9162000  2
   6256   6252   6251   6257     1  0.0000000  0.6024960  3
   6257   6251   6250   6258     1  0.0000000  4.9162000  2
   6257   6251   6250   6258     1  0.0000000  0.6024960  3
   6257   6251   6252   6268     1  0.0000000  4.9162000  2
   6257   6251   6252   6268     1  0.0000000  0.6024960  3
   6258   6250   6247   6259     1  0.0000000  4.9162000  2
   6258   6250   6247   6259     1  0.0000000  0.6024960  3
   6259   6247   6246   6260     1  0.0000000  0.6508444  3
   6259   6247   6246   6268     1  0.0000000  4.9162000  2
   6259   6247   6246   6268     1  0.0000000  0.6024960  3
   6266   6260   6246   6268     1  0.0000000  4.9162000  2
   6266   6260   6246   6268     1  0.0000000  0.6024960  3
   6269   6270   6273   6274     1  180.0000771  0.8368000  1
   6269   6270   6273   6274     1  180.0000771  1.0460000  2
   6269   6270   6273   6274     1  0.0000000  0.7531200  3
   6269   6270   6273   6281     1  0.0000000  0.6508444  3
   6269   6291   6275   6279     1  180.0000771  5.6484000  1
   6269   6291   6275   6279     1  180.0000771  3.5564000  2
   6269   6291   6275   6279     1  0.0000000  0.4184000  3
   6269   6291   6275   6274     1  180.0000771  0.4184000  2
   6269   6291   6275   6274     1  0.0000000  1.6024720  3
   6270   6273   6274   6275     1  180.0000771  0.8368000  1
   6270   6273   6274   6275     1  180.0000771  1.0460000  2
   6270   6273   6274   6275     1  0.0000000  0.7531200  3
   6270   6273   6274   6280     1  0.0000000  0.6508444  3
   6270   6269   6283   6289     1  0.0000000  0.6508444  3
   6270   6269   6291   6275     1  180.0000771  0.4184000  2
   6270   6269   6291   6275     1  0.0000000  1.6024720  3
   6273   6274   6275   6279     1  0.0000000  0.6508444  3
   6273   6274   6275   6291     1  0.0000000  0.6508444  3
   6273   6270   6269   6283     1  180.0000771  0.8368000  1
   6273   6270   6269   6283     1  180.0000771  1.0460000  2
   6273   6270   6269   6283     1  0.0000000  0.7531200  3
   6273   6270   6269   6291     1  0.0000000  0.6508444  3
   6274   6273   6270   6282     1  0.0000000  0.6508444  3
   6275   6291   6269   6283     1  180.0000771  0.4184000  2
   6275   6291   6269   6283     1  0.0000000  1.6024720  3
   6275   6274   6273   6281     1  0.0000000  0.6508444  3
   6279   6275   6274   6280     1  0.0000000  4.9162000  2
   6279   6275   6274   6280     1  0.0000000  0.6024960  3
   6280   6274   6275   6291     1  0.0000000  4.9162000  2
   6280   6274   6275   6291     1  0.0000000  0.6024960  3
   6280   6274   6273   6281     1  0.0000000  4.9162000  2
   6280   6274   6273   6281     1  0.0000000  0.6024960  3
   6281   6273   6270   6282     1  0.0000000  4.9162000  2
   6281   6273   6270   6282     1  0.0000000  0.6024960  3
   6282   6270   6269   6283     1  0.0000000  0.6508444  3
   6282   6270   6269   6291     1  0.0000000  4.9162000  2
   6282   6270   6269   6291     1  0.0000000  0.6024960  3
   6289   6283   6269   6291     1  0.0000000  4.9162000  2
   6289   6283   6269   6291     1  0.0000000  0.6024960  3
   6292   6293   6296   6297     1  180.0000771  0.8368000  1
   6292   6293   6296   6297     1  180.0000771  1.0460000  2
   6292   6293   6296   6297     1  0.0000000  0.7531200  3
   6292   6293   6296   6304     1  0.0000000  0.6508444  3
   6292   6314   6298   6297     1  180.0000771  0.4184000  2
   6292   6314   6298   6297     1  0.0000000  1.6024720  3
   6292   6314   6298   6302     1  180.0000771  5.6484000  1
   6292   6314   6298   6302     1  180.0000771  3.5564000  2
   6292   6314   6298   6302     1  0.0000000  0.4184000  3
   6293   6292   6306   6312     1  0.0000000  0.6508444  3
   6293   6292   6314   6298     1  180.0000771  0.4184000  2
   6293   6292   6314   6298     1  0.0000000  1.6024720  3
   6293   6296   6297   6298     1  180.0000771  0.8368000  1
   6293   6296   6297   6298     1  180.0000771  1.0460000  2
   6293   6296   6297   6298     1  0.0000000  0.7531200  3
   6293   6296   6297   6303     1  0.0000000  0.6508444  3
   6296   6293   6292   6306     1  180.0000771  0.8368000  1
   6296   6293   6292   6306     1  180.0000771  1.0460000  2
   6296   6293   6292   6306     1  0.0000000  0.7531200  3
   6296   6293   6292   6314     1  0.0000000  0.6508444  3
   6296   6297   6298   6302     1  0.0000000  0.6508444  3
   6296   6297   6298   6314     1  0.0000000  0.6508444  3
   6297   6296   6293   6305     1  0.0000000  0.6508444  3
   6298   6297   6296   6304     1  0.0000000  0.6508444  3
   6298   6314   6292   6306     1  180.0000771  0.4184000  2
   6298   6314   6292   6306     1  0.0000000  1.6024720  3
   6302   6298   6297   6303     1  0.0000000  4.9162000  2
   6302   6298   6297   6303     1  0.0000000  0.6024960  3
   6303   6297   6296   6304     1  0.0000000  4.9162000  2
   6303   6297   6296   6304     1  0.0000000  0.6024960  3
   6303   6297   6298   6314     1  0.0000000  4.9162000  2
   6303   6297   6298   6314     1  0.0000000  0.6024960  3
   6304   6296   6293   6305     1  0.0000000  4.9162000  2
   6304   6296   6293   6305     1  0.0000000  0.6024960  3
   6305   6293   6292   6306     1  0.0000000  0.6508444  3
   6305   6293   6292   6314     1  0.0000000  4.9162000  2
   6305   6293   6292   6314     1  0.0000000  0.6024960  3
   6312   6306   6292   6314     1  0.0000000  4.9162000  2
   6312   6306   6292   6314     1  0.0000000  0.6024960  3
   6315   6316   6319   6320     1  180.0000771  0.8368000  1
   6315   6316   6319   6320     1  180.0000771  1.0460000  2
   6315   6316   6319   6320     1  0.0000000  0.7531200  3
   6315   6316   6319   6327     1  0.0000000  0.6508444  3
   6315   6337   6321   6325     1  180.0000771  5.6484000  1
   6315   6337   6321   6325     1  180.0000771  3.5564000  2
   6315   6337   6321   6325     1  0.0000000  0.4184000  3
   6315   6337   6321   6320     1  180.0000771  0.4184000  2
   6315   6337   6321   6320     1  0.0000000  1.6024720  3
   6316   6319   6320   6321     1  180.0000771  0.8368000  1
   6316   6319   6320   6321     1  180.0000771  1.0460000  2
   6316   6319   6320   6321     1  0.0000000  0.7531200  3
   6316   6319   6320   6326     1  0.0000000  0.6508444  3
   6316   6315   6329   6335     1  0.0000000  0.6508444  3
   6316   6315   6337   6321     1  180.0000771  0.4184000  2
   6316   6315   6337   6321     1  0.0000000  1.6024720  3
   6319   6320   6321   6325     1  0.0000000  0.6508444  3
   6319   6320   6321   6337     1  0.0000000  0.6508444  3
   6319   6316   6315   6329     1  180.0000771  0.8368000  1
   6319   6316   6315   6329     1  180.0000771  1.0460000  2
   6319   6316   6315   6329     1  0.0000000  0.7531200  3
   6319   6316   6315   6337     1  0.0000000  0.6508444  3
   6320   6319   6316   6328     1  0.0000000  0.6508444  3
   6321   6337   6315   6329     1  180.0000771  0.4184000  2
   6321   6337   6315   6329     1  0.0000000  1.6024720  3
   6321   6320   6319   6327     1  0.0000000  0.6508444  3
   6325   6321   6320   6326     1  0.0000000  4.9162000  2
   6325   6321   6320   6326     1  0.0000000  0.6024960  3
   6326   6320   6321   6337     1  0.0000000  4.9162000  2
   6326   6320   6321   6337     1  0.0000000  0.6024960  3
   6326   6320   6319   6327     1  0.0000000  4.9162000  2
   6326   6320   6319   6327     1  0.0000000  0.6024960  3
   6327   6319   6316   6328     1  0.0000000  4.9162000  2
   6327   6319   6316   6328     1  0.0000000  0.6024960  3
   6328   6316   6315   6329     1  0.0000000  0.6508444  3
   6328   6316   6315   6337     1  0.0000000  4.9162000  2
   6328   6316   6315   6337     1  0.0000000  0.6024960  3
   6335   6329   6315   6337     1  0.0000000  4.9162000  2
   6335   6329   6315   6337     1  0.0000000  0.6024960  3
   6338   6339   6342   6343     1  180.0000771  0.8368000  1
   6338   6339   6342   6343     1  180.0000771  1.0460000  2
   6338   6339   6342   6343     1  0.0000000  0.7531200  3
   6338   6339   6342   6350     1  0.0000000  0.6508444  3
   6338   6360   6344   6343     1  180.0000771  0.4184000  2
   6338   6360   6344   6343     1  0.0000000  1.6024720  3
   6338   6360   6344   6348     1  180.0000771  5.6484000  1
   6338   6360   6344   6348     1  180.0000771  3.5564000  2
   6338   6360   6344   6348     1  0.0000000  0.4184000  3
   6339   6338   6352   6358     1  0.0000000  0.6508444  3
   6339   6338   6360   6344     1  180.0000771  0.4184000  2
   6339   6338   6360   6344     1  0.0000000  1.6024720  3
   6339   6342   6343   6344     1  180.0000771  0.8368000  1
   6339   6342   6343   6344     1  180.0000771  1.0460000  2
   6339   6342   6343   6344     1  0.0000000  0.7531200  3
   6339   6342   6343   6349     1  0.0000000  0.6508444  3
   6342   6339   6338   6352     1  180.0000771  0.8368000  1
   6342   6339   6338   6352     1  180.0000771  1.0460000  2
   6342   6339   6338   6352     1  0.0000000  0.7531200  3
   6342   6339   6338   6360     1  0.0000000  0.6508444  3
   6342   6343   6344   6348     1  0.0000000  0.6508444  3
   6342   6343   6344   6360     1  0.0000000  0.6508444  3
   6343   6342   6339   6351     1  0.0000000  0.6508444  3
   6344   6343   6342   6350     1  0.0000000  0.6508444  3
   6344   6360   6338   6352     1  180.0000771  0.4184000  2
   6344   6360   6338   6352     1  0.0000000  1.6024720  3
   6348   6344   6343   6349     1  0.0000000  4.9162000  2
   6348   6344   6343   6349     1  0.0000000  0.6024960  3
   6349   6343   6342   6350     1  0.0000000  4.9162000  2
   6349   6343   6342   6350     1  0.0000000  0.6024960  3
   6349   6343   6344   6360     1  0.0000000  4.9162000  2
   6349   6343   6344   6360     1  0.0000000  0.6024960  3
   6350   6342   6339   6351     1  0.0000000  4.9162000  2
   6350   6342   6339   6351     1  0.0000000  0.6024960  3
   6351   6339   6338   6352     1  0.0000000  0.6508444  3
   6351   6339   6338   6360     1  0.0000000  4.9162000  2
   6351   6339   6338   6360     1  0.0000000  0.6024960  3
   6358   6352   6338   6360     1  0.0000000  4.9162000  2
   6358   6352   6338   6360     1  0.0000000  0.6024960  3
   6361   6362   6365   6366     1  180.0000771  0.8368000  1
   6361   6362   6365   6366     1  180.0000771  1.0460000  2
   6361   6362   6365   6366     1  0.0000000  0.7531200  3
   6361   6362   6365   6373     1  0.0000000  0.6508444  3
   6361   6383   6367   6371     1  180.0000771  5.6484000  1
   6361   6383   6367   6371     1  180.0000771  3.5564000  2
   6361   6383   6367   6371     1  0.0000000  0.4184000  3
   6361   6383   6367   6366     1  180.0000771  0.4184000  2
   6361   6383   6367   6366     1  0.0000000  1.6024720  3
   6362   6365   6366   6367     1  180.0000771  0.8368000  1
   6362   6365   6366   6367     1  180.0000771  1.0460000  2
   6362   6365   6366   6367     1  0.0000000  0.7531200  3
   6362   6365   6366   6372     1  0.0000000  0.6508444  3
   6362   6361   6375   6381     1  0.0000000  0.6508444  3
   6362   6361   6383   6367     1  180.0000771  0.4184000  2
   6362   6361   6383   6367     1  0.0000000  1.6024720  3
   6365   6366   6367   6371     1  0.0000000  0.6508444  3
   6365   6366   6367   6383     1  0.0000000  0.6508444  3
   6365   6362   6361   6375     1  180.0000771  0.8368000  1
   6365   6362   6361   6375     1  180.0000771  1.0460000  2
   6365   6362   6361   6375     1  0.0000000  0.7531200  3
   6365   6362   6361   6383     1  0.0000000  0.6508444  3
   6366   6365   6362   6374     1  0.0000000  0.6508444  3
   6367   6383   6361   6375     1  180.0000771  0.4184000  2
   6367   6383   6361   6375     1  0.0000000  1.6024720  3
   6367   6366   6365   6373     1  0.0000000  0.6508444  3
   6371   6367   6366   6372     1  0.0000000  4.9162000  2
   6371   6367   6366   6372     1  0.0000000  0.6024960  3
   6372   6366   6367   6383     1  0.0000000  4.9162000  2
   6372   6366   6367   6383     1  0.0000000  0.6024960  3
   6372   6366   6365   6373     1  0.0000000  4.9162000  2
   6372   6366   6365   6373     1  0.0000000  0.6024960  3
   6373   6365   6362   6374     1  0.0000000  4.9162000  2
   6373   6365   6362   6374     1  0.0000000  0.6024960  3
   6374   6362   6361   6375     1  0.0000000  0.6508444  3
   6374   6362   6361   6383     1  0.0000000  4.9162000  2
   6374   6362   6361   6383     1  0.0000000  0.6024960  3
   6381   6375   6361   6383     1  0.0000000  4.9162000  2
   6381   6375   6361   6383     1  0.0000000  0.6024960  3
   6384   6385   6388   6389     1  180.0000771  0.8368000  1
   6384   6385   6388   6389     1  180.0000771  1.0460000  2
   6384   6385   6388   6389     1  0.0000000  0.7531200  3
   6384   6385   6388   6396     1  0.0000000  0.6508444  3
   6384   6406   6390   6389     1  180.0000771  0.4184000  2
   6384   6406   6390   6389     1  0.0000000  1.6024720  3
   6384   6406   6390   6394     1  180.0000771  5.6484000  1
   6384   6406   6390   6394     1  180.0000771  3.5564000  2
   6384   6406   6390   6394     1  0.0000000  0.4184000  3
   6385   6384   6398   6404     1  0.0000000  0.6508444  3
   6385   6384   6406   6390     1  180.0000771  0.4184000  2
   6385   6384   6406   6390     1  0.0000000  1.6024720  3
   6385   6388   6389   6390     1  180.0000771  0.8368000  1
   6385   6388   6389   6390     1  180.0000771  1.0460000  2
   6385   6388   6389   6390     1  0.0000000  0.7531200  3
   6385   6388   6389   6395     1  0.0000000  0.6508444  3
   6388   6385   6384   6398     1  180.0000771  0.8368000  1
   6388   6385   6384   6398     1  180.0000771  1.0460000  2
   6388   6385   6384   6398     1  0.0000000  0.7531200  3
   6388   6385   6384   6406     1  0.0000000  0.6508444  3
   6388   6389   6390   6394     1  0.0000000  0.6508444  3
   6388   6389   6390   6406     1  0.0000000  0.6508444  3
   6389   6388   6385   6397     1  0.0000000  0.6508444  3
   6390   6389   6388   6396     1  0.0000000  0.6508444  3
   6390   6406   6384   6398     1  180.0000771  0.4184000  2
   6390   6406   6384   6398     1  0.0000000  1.6024720  3
   6394   6390   6389   6395     1  0.0000000  4.9162000  2
   6394   6390   6389   6395     1  0.0000000  0.6024960  3
   6395   6389   6388   6396     1  0.0000000  4.9162000  2
   6395   6389   6388   6396     1  0.0000000  0.6024960  3
   6395   6389   6390   6406     1  0.0000000  4.9162000  2
   6395   6389   6390   6406     1  0.0000000  0.6024960  3
   6396   6388   6385   6397     1  0.0000000  4.9162000  2
   6396   6388   6385   6397     1  0.0000000  0.6024960  3
   6397   6385   6384   6398     1  0.0000000  0.6508444  3
   6397   6385   6384   6406     1  0.0000000  4.9162000  2
   6397   6385   6384   6406     1  0.0000000  0.6024960  3
   6404   6398   6384   6406     1  0.0000000  4.9162000  2
   6404   6398   6384   6406     1  0.0000000  0.6024960  3
   6407   6408   6411   6412     1  180.0000771  0.8368000  1
   6407   6408   6411   6412     1  180.0000771  1.0460000  2
   6407   6408   6411   6412     1  0.0000000  0.7531200  3
   6407   6408   6411   6419     1  0.0000000  0.6508444  3
   6407   6429   6413   6417     1  180.0000771  5.6484000  1
   6407   6429   6413   6417     1  180.0000771  3.5564000  2
   6407   6429   6413   6417     1  0.0000000  0.4184000  3
   6407   6429   6413   6412     1  180.0000771  0.4184000  2
   6407   6429   6413   6412     1  0.0000000  1.6024720  3
   6408   6411   6412   6413     1  180.0000771  0.8368000  1
   6408   6411   6412   6413     1  180.0000771  1.0460000  2
   6408   6411   6412   6413     1  0.0000000  0.7531200  3
   6408   6411   6412   6418     1  0.0000000  0.6508444  3
   6408   6407   6421   6427     1  0.0000000  0.6508444  3
   6408   6407   6429   6413     1  180.0000771  0.4184000  2
   6408   6407   6429   6413     1  0.0000000  1.6024720  3
   6411   6412   6413   6417     1  0.0000000  0.6508444  3
   6411   6412   6413   6429     1  0.0000000  0.6508444  3
   6411   6408   6407   6421     1  180.0000771  0.8368000  1
   6411   6408   6407   6421     1  180.0000771  1.0460000  2
   6411   6408   6407   6421     1  0.0000000  0.7531200  3
   6411   6408   6407   6429     1  0.0000000  0.6508444  3
   6412   6411   6408   6420     1  0.0000000  0.6508444  3
   6413   6429   6407   6421     1  180.0000771  0.4184000  2
   6413   6429   6407   6421     1  0.0000000  1.6024720  3
   6413   6412   6411   6419     1  0.0000000  0.6508444  3
   6417   6413   6412   6418     1  0.0000000  4.9162000  2
   6417   6413   6412   6418     1  0.0000000  0.6024960  3
   6418   6412   6413   6429     1  0.0000000  4.9162000  2
   6418   6412   6413   6429     1  0.0000000  0.6024960  3
   6418   6412   6411   6419     1  0.0000000  4.9162000  2
   6418   6412   6411   6419     1  0.0000000  0.6024960  3
   6419   6411   6408   6420     1  0.0000000  4.9162000  2
   6419   6411   6408   6420     1  0.0000000  0.6024960  3
   6420   6408   6407   6421     1  0.0000000  0.6508444  3
   6420   6408   6407   6429     1  0.0000000  4.9162000  2
   6420   6408   6407   6429     1  0.0000000  0.6024960  3
   6427   6421   6407   6429     1  0.0000000  4.9162000  2
   6427   6421   6407   6429     1  0.0000000  0.6024960  3
   6430   6431   6434   6435     1  180.0000771  0.8368000  1
   6430   6431   6434   6435     1  180.0000771  1.0460000  2
   6430   6431   6434   6435     1  0.0000000  0.7531200  3
   6430   6431   6434   6442     1  0.0000000  0.6508444  3
   6430   6452   6436   6435     1  180.0000771  0.4184000  2
   6430   6452   6436   6435     1  0.0000000  1.6024720  3
   6430   6452   6436   6440     1  180.0000771  5.6484000  1
   6430   6452   6436   6440     1  180.0000771  3.5564000  2
   6430   6452   6436   6440     1  0.0000000  0.4184000  3
   6431   6430   6444   6450     1  0.0000000  0.6508444  3
   6431   6430   6452   6436     1  180.0000771  0.4184000  2
   6431   6430   6452   6436     1  0.0000000  1.6024720  3
   6431   6434   6435   6436     1  180.0000771  0.8368000  1
   6431   6434   6435   6436     1  180.0000771  1.0460000  2
   6431   6434   6435   6436     1  0.0000000  0.7531200  3
   6431   6434   6435   6441     1  0.0000000  0.6508444  3
   6434   6431   6430   6444     1  180.0000771  0.8368000  1
   6434   6431   6430   6444     1  180.0000771  1.0460000  2
   6434   6431   6430   6444     1  0.0000000  0.7531200  3
   6434   6431   6430   6452     1  0.0000000  0.6508444  3
   6434   6435   6436   6440     1  0.0000000  0.6508444  3
   6434   6435   6436   6452     1  0.0000000  0.6508444  3
   6435   6434   6431   6443     1  0.0000000  0.6508444  3
   6436   6435   6434   6442     1  0.0000000  0.6508444  3
   6436   6452   6430   6444     1  180.0000771  0.4184000  2
   6436   6452   6430   6444     1  0.0000000  1.6024720  3
   6440   6436   6435   6441     1  0.0000000  4.9162000  2
   6440   6436   6435   6441     1  0.0000000  0.6024960  3
   6441   6435   6434   6442     1  0.0000000  4.9162000  2
   6441   6435   6434   6442     1  0.0000000  0.6024960  3
   6441   6435   6436   6452     1  0.0000000  4.9162000  2
   6441   6435   6436   6452     1  0.0000000  0.6024960  3
   6442   6434   6431   6443     1  0.0000000  4.9162000  2
   6442   6434   6431   6443     1  0.0000000  0.6024960  3
   6443   6431   6430   6444     1  0.0000000  0.6508444  3
   6443   6431   6430   6452     1  0.0000000  4.9162000  2
   6443   6431   6430   6452     1  0.0000000  0.6024960  3
   6450   6444   6430   6452     1  0.0000000  4.9162000  2
   6450   6444   6430   6452     1  0.0000000  0.6024960  3
   6453   6454   6457   6458     1  180.0000771  0.8368000  1
   6453   6454   6457   6458     1  180.0000771  1.0460000  2
   6453   6454   6457   6458     1  0.0000000  0.7531200  3
   6453   6454   6457   6465     1  0.0000000  0.6508444  3
   6453   6475   6459   6463     1  180.0000771  5.6484000  1
   6453   6475   6459   6463     1  180.0000771  3.5564000  2
   6453   6475   6459   6463     1  0.0000000  0.4184000  3
   6453   6475   6459   6458     1  180.0000771  0.4184000  2
   6453   6475   6459   6458     1  0.0000000  1.6024720  3
   6454   6457   6458   6459     1  180.0000771  0.8368000  1
   6454   6457   6458   6459     1  180.0000771  1.0460000  2
   6454   6457   6458   6459     1  0.0000000  0.7531200  3
   6454   6457   6458   6464     1  0.0000000  0.6508444  3
   6454   6453   6467   6473     1  0.0000000  0.6508444  3
   6454   6453   6475   6459     1  180.0000771  0.4184000  2
   6454   6453   6475   6459     1  0.0000000  1.6024720  3
   6457   6458   6459   6463     1  0.0000000  0.6508444  3
   6457   6458   6459   6475     1  0.0000000  0.6508444  3
   6457   6454   6453   6467     1  180.0000771  0.8368000  1
   6457   6454   6453   6467     1  180.0000771  1.0460000  2
   6457   6454   6453   6467     1  0.0000000  0.7531200  3
   6457   6454   6453   6475     1  0.0000000  0.6508444  3
   6458   6457   6454   6466     1  0.0000000  0.6508444  3
   6459   6475   6453   6467     1  180.0000771  0.4184000  2
   6459   6475   6453   6467     1  0.0000000  1.6024720  3
   6459   6458   6457   6465     1  0.0000000  0.6508444  3
   6463   6459   6458   6464     1  0.0000000  4.9162000  2
   6463   6459   6458   6464     1  0.0000000  0.6024960  3
   6464   6458   6459   6475     1  0.0000000  4.9162000  2
   6464   6458   6459   6475     1  0.0000000  0.6024960  3
   6464   6458   6457   6465     1  0.0000000  4.9162000  2
   6464   6458   6457   6465     1  0.0000000  0.6024960  3
   6465   6457   6454   6466     1  0.0000000  4.9162000  2
   6465   6457   6454   6466     1  0.0000000  0.6024960  3
   6466   6454   6453   6467     1  0.0000000  0.6508444  3
   6466   6454   6453   6475     1  0.0000000  4.9162000  2
   6466   6454   6453   6475     1  0.0000000  0.6024960  3
   6473   6467   6453   6475     1  0.0000000  4.9162000  2
   6473   6467   6453   6475     1  0.0000000  0.6024960  3
   6476   6477   6480   6481     1  180.0000771  0.8368000  1
   6476   6477   6480   6481     1  180.0000771  1.0460000  2
   6476   6477   6480   6481     1  0.0000000  0.7531200  3
   6476   6477   6480   6488     1  0.0000000  0.6508444  3
   6476   6498   6482   6481     1  180.0000771  0.4184000  2
   6476   6498   6482   6481     1  0.0000000  1.6024720  3
   6476   6498   6482   6486     1  180.0000771  5.6484000  1
   6476   6498   6482   6486     1  180.0000771  3.5564000  2
   6476   6498   6482   6486     1  0.0000000  0.4184000  3
   6477   6476   6490   6496     1  0.0000000  0.6508444  3
   6477   6476   6498   6482     1  180.0000771  0.4184000  2
   6477   6476   6498   6482     1  0.0000000  1.6024720  3
   6477   6480   6481   6482     1  180.0000771  0.8368000  1
   6477   6480   6481   6482     1  180.0000771  1.0460000  2
   6477   6480   6481   6482     1  0.0000000  0.7531200  3
   6477   6480   6481   6487     1  0.0000000  0.6508444  3
   6480   6477   6476   6490     1  180.0000771  0.8368000  1
   6480   6477   6476   6490     1  180.0000771  1.0460000  2
   6480   6477   6476   6490     1  0.0000000  0.7531200  3
   6480   6477   6476   6498     1  0.0000000  0.6508444  3
   6480   6481   6482   6486     1  0.0000000  0.6508444  3
   6480   6481   6482   6498     1  0.0000000  0.6508444  3
   6481   6480   6477   6489     1  0.0000000  0.6508444  3
   6482   6481   6480   6488     1  0.0000000  0.6508444  3
   6482   6498   6476   6490     1  180.0000771  0.4184000  2
   6482   6498   6476   6490     1  0.0000000  1.6024720  3
   6486   6482   6481   6487     1  0.0000000  4.9162000  2
   6486   6482   6481   6487     1  0.0000000  0.6024960  3
   6487   6481   6480   6488     1  0.0000000  4.9162000  2
   6487   6481   6480   6488     1  0.0000000  0.6024960  3
   6487   6481   6482   6498     1  0.0000000  4.9162000  2
   6487   6481   6482   6498     1  0.0000000  0.6024960  3
   6488   6480   6477   6489     1  0.0000000  4.9162000  2
   6488   6480   6477   6489     1  0.0000000  0.6024960  3
   6489   6477   6476   6490     1  0.0000000  0.6508444  3
   6489   6477   6476   6498     1  0.0000000  4.9162000  2
   6489   6477   6476   6498     1  0.0000000  0.6024960  3
   6496   6490   6476   6498     1  0.0000000  4.9162000  2
   6496   6490   6476   6498     1  0.0000000  0.6024960  3
   6499   6500   6503   6504     1  180.0000771  0.8368000  1
   6499   6500   6503   6504     1  180.0000771  1.0460000  2
   6499   6500   6503   6504     1  0.0000000  0.7531200  3
   6499   6500   6503   6511     1  0.0000000  0.6508444  3
   6499   6521   6505   6509     1  180.0000771  5.6484000  1
   6499   6521   6505   6509     1  180.0000771  3.5564000  2
   6499   6521   6505   6509     1  0.0000000  0.4184000  3
   6499   6521   6505   6504     1  180.0000771  0.4184000  2
   6499   6521   6505   6504     1  0.0000000  1.6024720  3
   6500   6503   6504   6505     1  180.0000771  0.8368000  1
   6500   6503   6504   6505     1  180.0000771  1.0460000  2
   6500   6503   6504   6505     1  0.0000000  0.7531200  3
   6500   6503   6504   6510     1  0.0000000  0.6508444  3
   6500   6499   6513   6519     1  0.0000000  0.6508444  3
   6500   6499   6521   6505     1  180.0000771  0.4184000  2
   6500   6499   6521   6505     1  0.0000000  1.6024720  3
   6503   6504   6505   6509     1  0.0000000  0.6508444  3
   6503   6504   6505   6521     1  0.0000000  0.6508444  3
   6503   6500   6499   6513     1  180.0000771  0.8368000  1
   6503   6500   6499   6513     1  180.0000771  1.0460000  2
   6503   6500   6499   6513     1  0.0000000  0.7531200  3
   6503   6500   6499   6521     1  0.0000000  0.6508444  3
   6504   6503   6500   6512     1  0.0000000  0.6508444  3
   6505   6521   6499   6513     1  180.0000771  0.4184000  2
   6505   6521   6499   6513     1  0.0000000  1.6024720  3
   6505   6504   6503   6511     1  0.0000000  0.6508444  3
   6509   6505   6504   6510     1  0.0000000  4.9162000  2
   6509   6505   6504   6510     1  0.0000000  0.6024960  3
   6510   6504   6505   6521     1  0.0000000  4.9162000  2
   6510   6504   6505   6521     1  0.0000000  0.6024960  3
   6510   6504   6503   6511     1  0.0000000  4.9162000  2
   6510   6504   6503   6511     1  0.0000000  0.6024960  3
   6511   6503   6500   6512     1  0.0000000  4.9162000  2
   6511   6503   6500   6512     1  0.0000000  0.6024960  3
   6512   6500   6499   6513     1  0.0000000  0.6508444  3
   6512   6500   6499   6521     1  0.0000000  4.9162000  2
   6512   6500   6499   6521     1  0.0000000  0.6024960  3
   6519   6513   6499   6521     1  0.0000000  4.9162000  2
   6519   6513   6499   6521     1  0.0000000  0.6024960  3
   6522   6523   6526   6527     1  180.0000771  0.8368000  1
   6522   6523   6526   6527     1  180.0000771  1.0460000  2
   6522   6523   6526   6527     1  0.0000000  0.7531200  3
   6522   6523   6526   6534     1  0.0000000  0.6508444  3
   6522   6544   6528   6527     1  180.0000771  0.4184000  2
   6522   6544   6528   6527     1  0.0000000  1.6024720  3
   6522   6544   6528   6532     1  180.0000771  5.6484000  1
   6522   6544   6528   6532     1  180.0000771  3.5564000  2
   6522   6544   6528   6532     1  0.0000000  0.4184000  3
   6523   6522   6536   6542     1  0.0000000  0.6508444  3
   6523   6522   6544   6528     1  180.0000771  0.4184000  2
   6523   6522   6544   6528     1  0.0000000  1.6024720  3
   6523   6526   6527   6528     1  180.0000771  0.8368000  1
   6523   6526   6527   6528     1  180.0000771  1.0460000  2
   6523   6526   6527   6528     1  0.0000000  0.7531200  3
   6523   6526   6527   6533     1  0.0000000  0.6508444  3
   6526   6523   6522   6536     1  180.0000771  0.8368000  1
   6526   6523   6522   6536     1  180.0000771  1.0460000  2
   6526   6523   6522   6536     1  0.0000000  0.7531200  3
   6526   6523   6522   6544     1  0.0000000  0.6508444  3
   6526   6527   6528   6532     1  0.0000000  0.6508444  3
   6526   6527   6528   6544     1  0.0000000  0.6508444  3
   6527   6526   6523   6535     1  0.0000000  0.6508444  3
   6528   6527   6526   6534     1  0.0000000  0.6508444  3
   6528   6544   6522   6536     1  180.0000771  0.4184000  2
   6528   6544   6522   6536     1  0.0000000  1.6024720  3
   6532   6528   6527   6533     1  0.0000000  4.9162000  2
   6532   6528   6527   6533     1  0.0000000  0.6024960  3
   6533   6527   6526   6534     1  0.0000000  4.9162000  2
   6533   6527   6526   6534     1  0.0000000  0.6024960  3
   6533   6527   6528   6544     1  0.0000000  4.9162000  2
   6533   6527   6528   6544     1  0.0000000  0.6024960  3
   6534   6526   6523   6535     1  0.0000000  4.9162000  2
   6534   6526   6523   6535     1  0.0000000  0.6024960  3
   6535   6523   6522   6536     1  0.0000000  0.6508444  3
   6535   6523   6522   6544     1  0.0000000  4.9162000  2
   6535   6523   6522   6544     1  0.0000000  0.6024960  3
   6542   6536   6522   6544     1  0.0000000  4.9162000  2
   6542   6536   6522   6544     1  0.0000000  0.6024960  3
   6545   6546   6549   6550     1  180.0000771  0.8368000  1
   6545   6546   6549   6550     1  180.0000771  1.0460000  2
   6545   6546   6549   6550     1  0.0000000  0.7531200  3
   6545   6546   6549   6557     1  0.0000000  0.6508444  3
   6545   6567   6551   6555     1  180.0000771  5.6484000  1
   6545   6567   6551   6555     1  180.0000771  3.5564000  2
   6545   6567   6551   6555     1  0.0000000  0.4184000  3
   6545   6567   6551   6550     1  180.0000771  0.4184000  2
   6545   6567   6551   6550     1  0.0000000  1.6024720  3
   6546   6549   6550   6551     1  180.0000771  0.8368000  1
   6546   6549   6550   6551     1  180.0000771  1.0460000  2
   6546   6549   6550   6551     1  0.0000000  0.7531200  3
   6546   6549   6550   6556     1  0.0000000  0.6508444  3
   6546   6545   6559   6565     1  0.0000000  0.6508444  3
   6546   6545   6567   6551     1  180.0000771  0.4184000  2
   6546   6545   6567   6551     1  0.0000000  1.6024720  3
   6549   6550   6551   6555     1  0.0000000  0.6508444  3
   6549   6550   6551   6567     1  0.0000000  0.6508444  3
   6549   6546   6545   6559     1  180.0000771  0.8368000  1
   6549   6546   6545   6559     1  180.0000771  1.0460000  2
   6549   6546   6545   6559     1  0.0000000  0.7531200  3
   6549   6546   6545   6567     1  0.0000000  0.6508444  3
   6550   6549   6546   6558     1  0.0000000  0.6508444  3
   6551   6567   6545   6559     1  180.0000771  0.4184000  2
   6551   6567   6545   6559     1  0.0000000  1.6024720  3
   6551   6550   6549   6557     1  0.0000000  0.6508444  3
   6555   6551   6550   6556     1  0.0000000  4.9162000  2
   6555   6551   6550   6556     1  0.0000000  0.6024960  3
   6556   6550   6551   6567     1  0.0000000  4.9162000  2
   6556   6550   6551   6567     1  0.0000000  0.6024960  3
   6556   6550   6549   6557     1  0.0000000  4.9162000  2
   6556   6550   6549   6557     1  0.0000000  0.6024960  3
   6557   6549   6546   6558     1  0.0000000  4.9162000  2
   6557   6549   6546   6558     1  0.0000000  0.6024960  3
   6558   6546   6545   6559     1  0.0000000  0.6508444  3
   6558   6546   6545   6567     1  0.0000000  4.9162000  2
   6558   6546   6545   6567     1  0.0000000  0.6024960  3
   6565   6559   6545   6567     1  0.0000000  4.9162000  2
   6565   6559   6545   6567     1  0.0000000  0.6024960  3
   6568   6569   6572   6573     1  180.0000771  0.8368000  1
   6568   6569   6572   6573     1  180.0000771  1.0460000  2
   6568   6569   6572   6573     1  0.0000000  0.7531200  3
   6568   6569   6572   6580     1  0.0000000  0.6508444  3
   6568   6590   6574   6573     1  180.0000771  0.4184000  2
   6568   6590   6574   6573     1  0.0000000  1.6024720  3
   6568   6590   6574   6578     1  180.0000771  5.6484000  1
   6568   6590   6574   6578     1  180.0000771  3.5564000  2
   6568   6590   6574   6578     1  0.0000000  0.4184000  3
   6569   6568   6582   6588     1  0.0000000  0.6508444  3
   6569   6568   6590   6574     1  180.0000771  0.4184000  2
   6569   6568   6590   6574     1  0.0000000  1.6024720  3
   6569   6572   6573   6574     1  180.0000771  0.8368000  1
   6569   6572   6573   6574     1  180.0000771  1.0460000  2
   6569   6572   6573   6574     1  0.0000000  0.7531200  3
   6569   6572   6573   6579     1  0.0000000  0.6508444  3
   6572   6569   6568   6582     1  180.0000771  0.8368000  1
   6572   6569   6568   6582     1  180.0000771  1.0460000  2
   6572   6569   6568   6582     1  0.0000000  0.7531200  3
   6572   6569   6568   6590     1  0.0000000  0.6508444  3
   6572   6573   6574   6578     1  0.0000000  0.6508444  3
   6572   6573   6574   6590     1  0.0000000  0.6508444  3
   6573   6572   6569   6581     1  0.0000000  0.6508444  3
   6574   6573   6572   6580     1  0.0000000  0.6508444  3
   6574   6590   6568   6582     1  180.0000771  0.4184000  2
   6574   6590   6568   6582     1  0.0000000  1.6024720  3
   6578   6574   6573   6579     1  0.0000000  4.9162000  2
   6578   6574   6573   6579     1  0.0000000  0.6024960  3
   6579   6573   6572   6580     1  0.0000000  4.9162000  2
   6579   6573   6572   6580     1  0.0000000  0.6024960  3
   6579   6573   6574   6590     1  0.0000000  4.9162000  2
   6579   6573   6574   6590     1  0.0000000  0.6024960  3
   6580   6572   6569   6581     1  0.0000000  4.9162000  2
   6580   6572   6569   6581     1  0.0000000  0.6024960  3
   6581   6569   6568   6582     1  0.0000000  0.6508444  3
   6581   6569   6568   6590     1  0.0000000  4.9162000  2
   6581   6569   6568   6590     1  0.0000000  0.6024960  3
   6588   6582   6568   6590     1  0.0000000  4.9162000  2
   6588   6582   6568   6590     1  0.0000000  0.6024960  3
   6591   6592   6595   6596     1  180.0000771  0.8368000  1
   6591   6592   6595   6596     1  180.0000771  1.0460000  2
   6591   6592   6595   6596     1  0.0000000  0.7531200  3
   6591   6592   6595   6603     1  0.0000000  0.6508444  3
   6591   6613   6597   6601     1  180.0000771  5.6484000  1
   6591   6613   6597   6601     1  180.0000771  3.5564000  2
   6591   6613   6597   6601     1  0.0000000  0.4184000  3
   6591   6613   6597   6596     1  180.0000771  0.4184000  2
   6591   6613   6597   6596     1  0.0000000  1.6024720  3
   6592   6595   6596   6597     1  180.0000771  0.8368000  1
   6592   6595   6596   6597     1  180.0000771  1.0460000  2
   6592   6595   6596   6597     1  0.0000000  0.7531200  3
   6592   6595   6596   6602     1  0.0000000  0.6508444  3
   6592   6591   6605   6611     1  0.0000000  0.6508444  3
   6592   6591   6613   6597     1  180.0000771  0.4184000  2
   6592   6591   6613   6597     1  0.0000000  1.6024720  3
   6595   6596   6597   6601     1  0.0000000  0.6508444  3
   6595   6596   6597   6613     1  0.0000000  0.6508444  3
   6595   6592   6591   6605     1  180.0000771  0.8368000  1
   6595   6592   6591   6605     1  180.0000771  1.0460000  2
   6595   6592   6591   6605     1  0.0000000  0.7531200  3
   6595   6592   6591   6613     1  0.0000000  0.6508444  3
   6596   6595   6592   6604     1  0.0000000  0.6508444  3
   6597   6613   6591   6605     1  180.0000771  0.4184000  2
   6597   6613   6591   6605     1  0.0000000  1.6024720  3
   6597   6596   6595   6603     1  0.0000000  0.6508444  3
   6601   6597   6596   6602     1  0.0000000  4.9162000  2
   6601   6597   6596   6602     1  0.0000000  0.6024960  3
   6602   6596   6597   6613     1  0.0000000  4.9162000  2
   6602   6596   6597   6613     1  0.0000000  0.6024960  3
   6602   6596   6595   6603     1  0.0000000  4.9162000  2
   6602   6596   6595   6603     1  0.0000000  0.6024960  3
   6603   6595   6592   6604     1  0.0000000  4.9162000  2
   6603   6595   6592   6604     1  0.0000000  0.6024960  3
   6604   6592   6591   6605     1  0.0000000  0.6508444  3
   6604   6592   6591   6613     1  0.0000000  4.9162000  2
   6604   6592   6591   6613     1  0.0000000  0.6024960  3
   6611   6605   6591   6613     1  0.0000000  4.9162000  2
   6611   6605   6591   6613     1  0.0000000  0.6024960  3
   6614   6615   6618   6619     1  180.0000771  0.8368000  1
   6614   6615   6618   6619     1  180.0000771  1.0460000  2
   6614   6615   6618   6619     1  0.0000000  0.7531200  3
   6614   6615   6618   6626     1  0.0000000  0.6508444  3
   6614   6636   6620   6619     1  180.0000771  0.4184000  2
   6614   6636   6620   6619     1  0.0000000  1.6024720  3
   6614   6636   6620   6624     1  180.0000771  5.6484000  1
   6614   6636   6620   6624     1  180.0000771  3.5564000  2
   6614   6636   6620   6624     1  0.0000000  0.4184000  3
   6615   6614   6628   6634     1  0.0000000  0.6508444  3
   6615   6614   6636   6620     1  180.0000771  0.4184000  2
   6615   6614   6636   6620     1  0.0000000  1.6024720  3
   6615   6618   6619   6620     1  180.0000771  0.8368000  1
   6615   6618   6619   6620     1  180.0000771  1.0460000  2
   6615   6618   6619   6620     1  0.0000000  0.7531200  3
   6615   6618   6619   6625     1  0.0000000  0.6508444  3
   6618   6615   6614   6628     1  180.0000771  0.8368000  1
   6618   6615   6614   6628     1  180.0000771  1.0460000  2
   6618   6615   6614   6628     1  0.0000000  0.7531200  3
   6618   6615   6614   6636     1  0.0000000  0.6508444  3
   6618   6619   6620   6624     1  0.0000000  0.6508444  3
   6618   6619   6620   6636     1  0.0000000  0.6508444  3
   6619   6618   6615   6627     1  0.0000000  0.6508444  3
   6620   6619   6618   6626     1  0.0000000  0.6508444  3
   6620   6636   6614   6628     1  180.0000771  0.4184000  2
   6620   6636   6614   6628     1  0.0000000  1.6024720  3
   6624   6620   6619   6625     1  0.0000000  4.9162000  2
   6624   6620   6619   6625     1  0.0000000  0.6024960  3
   6625   6619   6618   6626     1  0.0000000  4.9162000  2
   6625   6619   6618   6626     1  0.0000000  0.6024960  3
   6625   6619   6620   6636     1  0.0000000  4.9162000  2
   6625   6619   6620   6636     1  0.0000000  0.6024960  3
   6626   6618   6615   6627     1  0.0000000  4.9162000  2
   6626   6618   6615   6627     1  0.0000000  0.6024960  3
   6627   6615   6614   6628     1  0.0000000  0.6508444  3
   6627   6615   6614   6636     1  0.0000000  4.9162000  2
   6627   6615   6614   6636     1  0.0000000  0.6024960  3
   6634   6628   6614   6636     1  0.0000000  4.9162000  2
   6634   6628   6614   6636     1  0.0000000  0.6024960  3
   6637   6638   6641   6642     1  180.0000771  0.8368000  1
   6637   6638   6641   6642     1  180.0000771  1.0460000  2
   6637   6638   6641   6642     1  0.0000000  0.7531200  3
   6637   6638   6641   6649     1  0.0000000  0.6508444  3
   6637   6659   6643   6647     1  180.0000771  5.6484000  1
   6637   6659   6643   6647     1  180.0000771  3.5564000  2
   6637   6659   6643   6647     1  0.0000000  0.4184000  3
   6637   6659   6643   6642     1  180.0000771  0.4184000  2
   6637   6659   6643   6642     1  0.0000000  1.6024720  3
   6638   6641   6642   6643     1  180.0000771  0.8368000  1
   6638   6641   6642   6643     1  180.0000771  1.0460000  2
   6638   6641   6642   6643     1  0.0000000  0.7531200  3
   6638   6641   6642   6648     1  0.0000000  0.6508444  3
   6638   6637   6651   6657     1  0.0000000  0.6508444  3
   6638   6637   6659   6643     1  180.0000771  0.4184000  2
   6638   6637   6659   6643     1  0.0000000  1.6024720  3
   6641   6642   6643   6647     1  0.0000000  0.6508444  3
   6641   6642   6643   6659     1  0.0000000  0.6508444  3
   6641   6638   6637   6651     1  180.0000771  0.8368000  1
   6641   6638   6637   6651     1  180.0000771  1.0460000  2
   6641   6638   6637   6651     1  0.0000000  0.7531200  3
   6641   6638   6637   6659     1  0.0000000  0.6508444  3
   6642   6641   6638   6650     1  0.0000000  0.6508444  3
   6643   6659   6637   6651     1  180.0000771  0.4184000  2
   6643   6659   6637   6651     1  0.0000000  1.6024720  3
   6643   6642   6641   6649     1  0.0000000  0.6508444  3
   6647   6643   6642   6648     1  0.0000000  4.9162000  2
   6647   6643   6642   6648     1  0.0000000  0.6024960  3
   6648   6642   6643   6659     1  0.0000000  4.9162000  2
   6648   6642   6643   6659     1  0.0000000  0.6024960  3
   6648   6642   6641   6649     1  0.0000000  4.9162000  2
   6648   6642   6641   6649     1  0.0000000  0.6024960  3
   6649   6641   6638   6650     1  0.0000000  4.9162000  2
   6649   6641   6638   6650     1  0.0000000  0.6024960  3
   6650   6638   6637   6651     1  0.0000000  0.6508444  3
   6650   6638   6637   6659     1  0.0000000  4.9162000  2
   6650   6638   6637   6659     1  0.0000000  0.6024960  3
   6657   6651   6637   6659     1  0.0000000  4.9162000  2
   6657   6651   6637   6659     1  0.0000000  0.6024960  3
   6660   6661   6664   6665     1  180.0000771  0.8368000  1
   6660   6661   6664   6665     1  180.0000771  1.0460000  2
   6660   6661   6664   6665     1  0.0000000  0.7531200  3
   6660   6661   6664   6672     1  0.0000000  0.6508444  3
   6660   6682   6666   6665     1  180.0000771  0.4184000  2
   6660   6682   6666   6665     1  0.0000000  1.6024720  3
   6660   6682   6666   6670     1  180.0000771  5.6484000  1
   6660   6682   6666   6670     1  180.0000771  3.5564000  2
   6660   6682   6666   6670     1  0.0000000  0.4184000  3
   6661   6660   6674   6680     1  0.0000000  0.6508444  3
   6661   6660   6682   6666     1  180.0000771  0.4184000  2
   6661   6660   6682   6666     1  0.0000000  1.6024720  3
   6661   6664   6665   6666     1  180.0000771  0.8368000  1
   6661   6664   6665   6666     1  180.0000771  1.0460000  2
   6661   6664   6665   6666     1  0.0000000  0.7531200  3
   6661   6664   6665   6671     1  0.0000000  0.6508444  3
   6664   6661   6660   6674     1  180.0000771  0.8368000  1
   6664   6661   6660   6674     1  180.0000771  1.0460000  2
   6664   6661   6660   6674     1  0.0000000  0.7531200  3
   6664   6661   6660   6682     1  0.0000000  0.6508444  3
   6664   6665   6666   6670     1  0.0000000  0.6508444  3
   6664   6665   6666   6682     1  0.0000000  0.6508444  3
   6665   6664   6661   6673     1  0.0000000  0.6508444  3
   6666   6665   6664   6672     1  0.0000000  0.6508444  3
   6666   6682   6660   6674     1  180.0000771  0.4184000  2
   6666   6682   6660   6674     1  0.0000000  1.6024720  3
   6670   6666   6665   6671     1  0.0000000  4.9162000  2
   6670   6666   6665   6671     1  0.0000000  0.6024960  3
   6671   6665   6664   6672     1  0.0000000  4.9162000  2
   6671   6665   6664   6672     1  0.0000000  0.6024960  3
   6671   6665   6666   6682     1  0.0000000  4.9162000  2
   6671   6665   6666   6682     1  0.0000000  0.6024960  3
   6672   6664   6661   6673     1  0.0000000  4.9162000  2
   6672   6664   6661   6673     1  0.0000000  0.6024960  3
   6673   6661   6660   6674     1  0.0000000  0.6508444  3
   6673   6661   6660   6682     1  0.0000000  4.9162000  2
   6673   6661   6660   6682     1  0.0000000  0.6024960  3
   6680   6674   6660   6682     1  0.0000000  4.9162000  2
   6680   6674   6660   6682     1  0.0000000  0.6024960  3
   6683   6684   6687   6688     1  180.0000771  0.8368000  1
   6683   6684   6687   6688     1  180.0000771  1.0460000  2
   6683   6684   6687   6688     1  0.0000000  0.7531200  3
   6683   6684   6687   6695     1  0.0000000  0.6508444  3
   6683   6705   6689   6693     1  180.0000771  5.6484000  1
   6683   6705   6689   6693     1  180.0000771  3.5564000  2
   6683   6705   6689   6693     1  0.0000000  0.4184000  3
   6683   6705   6689   6688     1  180.0000771  0.4184000  2
   6683   6705   6689   6688     1  0.0000000  1.6024720  3
   6684   6687   6688   6689     1  180.0000771  0.8368000  1
   6684   6687   6688   6689     1  180.0000771  1.0460000  2
   6684   6687   6688   6689     1  0.0000000  0.7531200  3
   6684   6687   6688   6694     1  0.0000000  0.6508444  3
   6684   6683   6697   6703     1  0.0000000  0.6508444  3
   6684   6683   6705   6689     1  180.0000771  0.4184000  2
   6684   6683   6705   6689     1  0.0000000  1.6024720  3
   6687   6688   6689   6693     1  0.0000000  0.6508444  3
   6687   6688   6689   6705     1  0.0000000  0.6508444  3
   6687   6684   6683   6697     1  180.0000771  0.8368000  1
   6687   6684   6683   6697     1  180.0000771  1.0460000  2
   6687   6684   6683   6697     1  0.0000000  0.7531200  3
   6687   6684   6683   6705     1  0.0000000  0.6508444  3
   6688   6687   6684   6696     1  0.0000000  0.6508444  3
   6689   6705   6683   6697     1  180.0000771  0.4184000  2
   6689   6705   6683   6697     1  0.0000000  1.6024720  3
   6689   6688   6687   6695     1  0.0000000  0.6508444  3
   6693   6689   6688   6694     1  0.0000000  4.9162000  2
   6693   6689   6688   6694     1  0.0000000  0.6024960  3
   6694   6688   6689   6705     1  0.0000000  4.9162000  2
   6694   6688   6689   6705     1  0.0000000  0.6024960  3
   6694   6688   6687   6695     1  0.0000000  4.9162000  2
   6694   6688   6687   6695     1  0.0000000  0.6024960  3
   6695   6687   6684   6696     1  0.0000000  4.9162000  2
   6695   6687   6684   6696     1  0.0000000  0.6024960  3
   6696   6684   6683   6697     1  0.0000000  0.6508444  3
   6696   6684   6683   6705     1  0.0000000  4.9162000  2
   6696   6684   6683   6705     1  0.0000000  0.6024960  3
   6703   6697   6683   6705     1  0.0000000  4.9162000  2
   6703   6697   6683   6705     1  0.0000000  0.6024960  3
   6706   6707   6710   6711     1  180.0000771  0.8368000  1
   6706   6707   6710   6711     1  180.0000771  1.0460000  2
   6706   6707   6710   6711     1  0.0000000  0.7531200  3
   6706   6707   6710   6718     1  0.0000000  0.6508444  3
   6706   6728   6712   6711     1  180.0000771  0.4184000  2
   6706   6728   6712   6711     1  0.0000000  1.6024720  3
   6706   6728   6712   6716     1  180.0000771  5.6484000  1
   6706   6728   6712   6716     1  180.0000771  3.5564000  2
   6706   6728   6712   6716     1  0.0000000  0.4184000  3
   6707   6706   6720   6726     1  0.0000000  0.6508444  3
   6707   6706   6728   6712     1  180.0000771  0.4184000  2
   6707   6706   6728   6712     1  0.0000000  1.6024720  3
   6707   6710   6711   6712     1  180.0000771  0.8368000  1
   6707   6710   6711   6712     1  180.0000771  1.0460000  2
   6707   6710   6711   6712     1  0.0000000  0.7531200  3
   6707   6710   6711   6717     1  0.0000000  0.6508444  3
   6710   6707   6706   6720     1  180.0000771  0.8368000  1
   6710   6707   6706   6720     1  180.0000771  1.0460000  2
   6710   6707   6706   6720     1  0.0000000  0.7531200  3
   6710   6707   6706   6728     1  0.0000000  0.6508444  3
   6710   6711   6712   6716     1  0.0000000  0.6508444  3
   6710   6711   6712   6728     1  0.0000000  0.6508444  3
   6711   6710   6707   6719     1  0.0000000  0.6508444  3
   6712   6711   6710   6718     1  0.0000000  0.6508444  3
   6712   6728   6706   6720     1  180.0000771  0.4184000  2
   6712   6728   6706   6720     1  0.0000000  1.6024720  3
   6716   6712   6711   6717     1  0.0000000  4.9162000  2
   6716   6712   6711   6717     1  0.0000000  0.6024960  3
   6717   6711   6710   6718     1  0.0000000  4.9162000  2
   6717   6711   6710   6718     1  0.0000000  0.6024960  3
   6717   6711   6712   6728     1  0.0000000  4.9162000  2
   6717   6711   6712   6728     1  0.0000000  0.6024960  3
   6718   6710   6707   6719     1  0.0000000  4.9162000  2
   6718   6710   6707   6719     1  0.0000000  0.6024960  3
   6719   6707   6706   6720     1  0.0000000  0.6508444  3
   6719   6707   6706   6728     1  0.0000000  4.9162000  2
   6719   6707   6706   6728     1  0.0000000  0.6024960  3
   6726   6720   6706   6728     1  0.0000000  4.9162000  2
   6726   6720   6706   6728     1  0.0000000  0.6024960  3
   6729   6730   6733   6734     1  180.0000771  0.8368000  1
   6729   6730   6733   6734     1  180.0000771  1.0460000  2
   6729   6730   6733   6734     1  0.0000000  0.7531200  3
   6729   6730   6733   6741     1  0.0000000  0.6508444  3
   6729   6751   6735   6739     1  180.0000771  5.6484000  1
   6729   6751   6735   6739     1  180.0000771  3.5564000  2
   6729   6751   6735   6739     1  0.0000000  0.4184000  3
   6729   6751   6735   6734     1  180.0000771  0.4184000  2
   6729   6751   6735   6734     1  0.0000000  1.6024720  3
   6730   6733   6734   6735     1  180.0000771  0.8368000  1
   6730   6733   6734   6735     1  180.0000771  1.0460000  2
   6730   6733   6734   6735     1  0.0000000  0.7531200  3
   6730   6733   6734   6740     1  0.0000000  0.6508444  3
   6730   6729   6743   6749     1  0.0000000  0.6508444  3
   6730   6729   6751   6735     1  180.0000771  0.4184000  2
   6730   6729   6751   6735     1  0.0000000  1.6024720  3
   6733   6734   6735   6739     1  0.0000000  0.6508444  3
   6733   6734   6735   6751     1  0.0000000  0.6508444  3
   6733   6730   6729   6743     1  180.0000771  0.8368000  1
   6733   6730   6729   6743     1  180.0000771  1.0460000  2
   6733   6730   6729   6743     1  0.0000000  0.7531200  3
   6733   6730   6729   6751     1  0.0000000  0.6508444  3
   6734   6733   6730   6742     1  0.0000000  0.6508444  3
   6735   6751   6729   6743     1  180.0000771  0.4184000  2
   6735   6751   6729   6743     1  0.0000000  1.6024720  3
   6735   6734   6733   6741     1  0.0000000  0.6508444  3
   6739   6735   6734   6740     1  0.0000000  4.9162000  2
   6739   6735   6734   6740     1  0.0000000  0.6024960  3
   6740   6734   6735   6751     1  0.0000000  4.9162000  2
   6740   6734   6735   6751     1  0.0000000  0.6024960  3
   6740   6734   6733   6741     1  0.0000000  4.9162000  2
   6740   6734   6733   6741     1  0.0000000  0.6024960  3
   6741   6733   6730   6742     1  0.0000000  4.9162000  2
   6741   6733   6730   6742     1  0.0000000  0.6024960  3
   6742   6730   6729   6743     1  0.0000000  0.6508444  3
   6742   6730   6729   6751     1  0.0000000  4.9162000  2
   6742   6730   6729   6751     1  0.0000000  0.6024960  3
   6749   6743   6729   6751     1  0.0000000  4.9162000  2
   6749   6743   6729   6751     1  0.0000000  0.6024960  3
   6752   6753   6756   6757     1  180.0000771  0.8368000  1
   6752   6753   6756   6757     1  180.0000771  1.0460000  2
   6752   6753   6756   6757     1  0.0000000  0.7531200  3
   6752   6753   6756   6764     1  0.0000000  0.6508444  3
   6752   6774   6758   6757     1  180.0000771  0.4184000  2
   6752   6774   6758   6757     1  0.0000000  1.6024720  3
   6752   6774   6758   6762     1  180.0000771  5.6484000  1
   6752   6774   6758   6762     1  180.0000771  3.5564000  2
   6752   6774   6758   6762     1  0.0000000  0.4184000  3
   6753   6752   6766   6772     1  0.0000000  0.6508444  3
   6753   6752   6774   6758     1  180.0000771  0.4184000  2
   6753   6752   6774   6758     1  0.0000000  1.6024720  3
   6753   6756   6757   6758     1  180.0000771  0.8368000  1
   6753   6756   6757   6758     1  180.0000771  1.0460000  2
   6753   6756   6757   6758     1  0.0000000  0.7531200  3
   6753   6756   6757   6763     1  0.0000000  0.6508444  3
   6756   6753   6752   6766     1  180.0000771  0.8368000  1
   6756   6753   6752   6766     1  180.0000771  1.0460000  2
   6756   6753   6752   6766     1  0.0000000  0.7531200  3
   6756   6753   6752   6774     1  0.0000000  0.6508444  3
   6756   6757   6758   6762     1  0.0000000  0.6508444  3
   6756   6757   6758   6774     1  0.0000000  0.6508444  3
   6757   6756   6753   6765     1  0.0000000  0.6508444  3
   6758   6757   6756   6764     1  0.0000000  0.6508444  3
   6758   6774   6752   6766     1  180.0000771  0.4184000  2
   6758   6774   6752   6766     1  0.0000000  1.6024720  3
   6762   6758   6757   6763     1  0.0000000  4.9162000  2
   6762   6758   6757   6763     1  0.0000000  0.6024960  3
   6763   6757   6756   6764     1  0.0000000  4.9162000  2
   6763   6757   6756   6764     1  0.0000000  0.6024960  3
   6763   6757   6758   6774     1  0.0000000  4.9162000  2
   6763   6757   6758   6774     1  0.0000000  0.6024960  3
   6764   6756   6753   6765     1  0.0000000  4.9162000  2
   6764   6756   6753   6765     1  0.0000000  0.6024960  3
   6765   6753   6752   6766     1  0.0000000  0.6508444  3
   6765   6753   6752   6774     1  0.0000000  4.9162000  2
   6765   6753   6752   6774     1  0.0000000  0.6024960  3
   6772   6766   6752   6774     1  0.0000000  4.9162000  2
   6772   6766   6752   6774     1  0.0000000  0.6024960  3
   6775   6776   6779   6780     1  180.0000771  0.8368000  1
   6775   6776   6779   6780     1  180.0000771  1.0460000  2
   6775   6776   6779   6780     1  0.0000000  0.7531200  3
   6775   6776   6779   6787     1  0.0000000  0.6508444  3
   6775   6797   6781   6785     1  180.0000771  5.6484000  1
   6775   6797   6781   6785     1  180.0000771  3.5564000  2
   6775   6797   6781   6785     1  0.0000000  0.4184000  3
   6775   6797   6781   6780     1  180.0000771  0.4184000  2
   6775   6797   6781   6780     1  0.0000000  1.6024720  3
   6776   6779   6780   6781     1  180.0000771  0.8368000  1
   6776   6779   6780   6781     1  180.0000771  1.0460000  2
   6776   6779   6780   6781     1  0.0000000  0.7531200  3
   6776   6779   6780   6786     1  0.0000000  0.6508444  3
   6776   6775   6789   6795     1  0.0000000  0.6508444  3
   6776   6775   6797   6781     1  180.0000771  0.4184000  2
   6776   6775   6797   6781     1  0.0000000  1.6024720  3
   6779   6780   6781   6785     1  0.0000000  0.6508444  3
   6779   6780   6781   6797     1  0.0000000  0.6508444  3
   6779   6776   6775   6789     1  180.0000771  0.8368000  1
   6779   6776   6775   6789     1  180.0000771  1.0460000  2
   6779   6776   6775   6789     1  0.0000000  0.7531200  3
   6779   6776   6775   6797     1  0.0000000  0.6508444  3
   6780   6779   6776   6788     1  0.0000000  0.6508444  3
   6781   6797   6775   6789     1  180.0000771  0.4184000  2
   6781   6797   6775   6789     1  0.0000000  1.6024720  3
   6781   6780   6779   6787     1  0.0000000  0.6508444  3
   6785   6781   6780   6786     1  0.0000000  4.9162000  2
   6785   6781   6780   6786     1  0.0000000  0.6024960  3
   6786   6780   6781   6797     1  0.0000000  4.9162000  2
   6786   6780   6781   6797     1  0.0000000  0.6024960  3
   6786   6780   6779   6787     1  0.0000000  4.9162000  2
   6786   6780   6779   6787     1  0.0000000  0.6024960  3
   6787   6779   6776   6788     1  0.0000000  4.9162000  2
   6787   6779   6776   6788     1  0.0000000  0.6024960  3
   6788   6776   6775   6789     1  0.0000000  0.6508444  3
   6788   6776   6775   6797     1  0.0000000  4.9162000  2
   6788   6776   6775   6797     1  0.0000000  0.6024960  3
   6795   6789   6775   6797     1  0.0000000  4.9162000  2
   6795   6789   6775   6797     1  0.0000000  0.6024960  3
   6798   6799   6802   6803     1  180.0000771  0.8368000  1
   6798   6799   6802   6803     1  180.0000771  1.0460000  2
   6798   6799   6802   6803     1  0.0000000  0.7531200  3
   6798   6799   6802   6810     1  0.0000000  0.6508444  3
   6798   6820   6804   6803     1  180.0000771  0.4184000  2
   6798   6820   6804   6803     1  0.0000000  1.6024720  3
   6798   6820   6804   6808     1  180.0000771  5.6484000  1
   6798   6820   6804   6808     1  180.0000771  3.5564000  2
   6798   6820   6804   6808     1  0.0000000  0.4184000  3
   6799   6798   6812   6818     1  0.0000000  0.6508444  3
   6799   6798   6820   6804     1  180.0000771  0.4184000  2
   6799   6798   6820   6804     1  0.0000000  1.6024720  3
   6799   6802   6803   6804     1  180.0000771  0.8368000  1
   6799   6802   6803   6804     1  180.0000771  1.0460000  2
   6799   6802   6803   6804     1  0.0000000  0.7531200  3
   6799   6802   6803   6809     1  0.0000000  0.6508444  3
   6802   6799   6798   6812     1  180.0000771  0.8368000  1
   6802   6799   6798   6812     1  180.0000771  1.0460000  2
   6802   6799   6798   6812     1  0.0000000  0.7531200  3
   6802   6799   6798   6820     1  0.0000000  0.6508444  3
   6802   6803   6804   6808     1  0.0000000  0.6508444  3
   6802   6803   6804   6820     1  0.0000000  0.6508444  3
   6803   6802   6799   6811     1  0.0000000  0.6508444  3
   6804   6803   6802   6810     1  0.0000000  0.6508444  3
   6804   6820   6798   6812     1  180.0000771  0.4184000  2
   6804   6820   6798   6812     1  0.0000000  1.6024720  3
   6808   6804   6803   6809     1  0.0000000  4.9162000  2
   6808   6804   6803   6809     1  0.0000000  0.6024960  3
   6809   6803   6802   6810     1  0.0000000  4.9162000  2
   6809   6803   6802   6810     1  0.0000000  0.6024960  3
   6809   6803   6804   6820     1  0.0000000  4.9162000  2
   6809   6803   6804   6820     1  0.0000000  0.6024960  3
   6810   6802   6799   6811     1  0.0000000  4.9162000  2
   6810   6802   6799   6811     1  0.0000000  0.6024960  3
   6811   6799   6798   6812     1  0.0000000  0.6508444  3
   6811   6799   6798   6820     1  0.0000000  4.9162000  2
   6811   6799   6798   6820     1  0.0000000  0.6024960  3
   6818   6812   6798   6820     1  0.0000000  4.9162000  2
   6818   6812   6798   6820     1  0.0000000  0.6024960  3
   6821   6822   6825   6826     1  180.0000771  0.8368000  1
   6821   6822   6825   6826     1  180.0000771  1.0460000  2
   6821   6822   6825   6826     1  0.0000000  0.7531200  3
   6821   6822   6825   6833     1  0.0000000  0.6508444  3
   6821   6843   6827   6831     1  180.0000771  5.6484000  1
   6821   6843   6827   6831     1  180.0000771  3.5564000  2
   6821   6843   6827   6831     1  0.0000000  0.4184000  3
   6821   6843   6827   6826     1  180.0000771  0.4184000  2
   6821   6843   6827   6826     1  0.0000000  1.6024720  3
   6822   6825   6826   6827     1  180.0000771  0.8368000  1
   6822   6825   6826   6827     1  180.0000771  1.0460000  2
   6822   6825   6826   6827     1  0.0000000  0.7531200  3
   6822   6825   6826   6832     1  0.0000000  0.6508444  3
   6822   6821   6835   6841     1  0.0000000  0.6508444  3
   6822   6821   6843   6827     1  180.0000771  0.4184000  2
   6822   6821   6843   6827     1  0.0000000  1.6024720  3
   6825   6826   6827   6831     1  0.0000000  0.6508444  3
   6825   6826   6827   6843     1  0.0000000  0.6508444  3
   6825   6822   6821   6835     1  180.0000771  0.8368000  1
   6825   6822   6821   6835     1  180.0000771  1.0460000  2
   6825   6822   6821   6835     1  0.0000000  0.7531200  3
   6825   6822   6821   6843     1  0.0000000  0.6508444  3
   6826   6825   6822   6834     1  0.0000000  0.6508444  3
   6827   6843   6821   6835     1  180.0000771  0.4184000  2
   6827   6843   6821   6835     1  0.0000000  1.6024720  3
   6827   6826   6825   6833     1  0.0000000  0.6508444  3
   6831   6827   6826   6832     1  0.0000000  4.9162000  2
   6831   6827   6826   6832     1  0.0000000  0.6024960  3
   6832   6826   6827   6843     1  0.0000000  4.9162000  2
   6832   6826   6827   6843     1  0.0000000  0.6024960  3
   6832   6826   6825   6833     1  0.0000000  4.9162000  2
   6832   6826   6825   6833     1  0.0000000  0.6024960  3
   6833   6825   6822   6834     1  0.0000000  4.9162000  2
   6833   6825   6822   6834     1  0.0000000  0.6024960  3
   6834   6822   6821   6835     1  0.0000000  0.6508444  3
   6834   6822   6821   6843     1  0.0000000  4.9162000  2
   6834   6822   6821   6843     1  0.0000000  0.6024960  3
   6841   6835   6821   6843     1  0.0000000  4.9162000  2
   6841   6835   6821   6843     1  0.0000000  0.6024960  3
   6844   6845   6848   6849     1  180.0000771  0.8368000  1
   6844   6845   6848   6849     1  180.0000771  1.0460000  2
   6844   6845   6848   6849     1  0.0000000  0.7531200  3
   6844   6845   6848   6856     1  0.0000000  0.6508444  3
   6844   6866   6850   6849     1  180.0000771  0.4184000  2
   6844   6866   6850   6849     1  0.0000000  1.6024720  3
   6844   6866   6850   6854     1  180.0000771  5.6484000  1
   6844   6866   6850   6854     1  180.0000771  3.5564000  2
   6844   6866   6850   6854     1  0.0000000  0.4184000  3
   6845   6844   6858   6864     1  0.0000000  0.6508444  3
   6845   6844   6866   6850     1  180.0000771  0.4184000  2
   6845   6844   6866   6850     1  0.0000000  1.6024720  3
   6845   6848   6849   6850     1  180.0000771  0.8368000  1
   6845   6848   6849   6850     1  180.0000771  1.0460000  2
   6845   6848   6849   6850     1  0.0000000  0.7531200  3
   6845   6848   6849   6855     1  0.0000000  0.6508444  3
   6848   6845   6844   6858     1  180.0000771  0.8368000  1
   6848   6845   6844   6858     1  180.0000771  1.0460000  2
   6848   6845   6844   6858     1  0.0000000  0.7531200  3
   6848   6845   6844   6866     1  0.0000000  0.6508444  3
   6848   6849   6850   6854     1  0.0000000  0.6508444  3
   6848   6849   6850   6866     1  0.0000000  0.6508444  3
   6849   6848   6845   6857     1  0.0000000  0.6508444  3
   6850   6849   6848   6856     1  0.0000000  0.6508444  3
   6850   6866   6844   6858     1  180.0000771  0.4184000  2
   6850   6866   6844   6858     1  0.0000000  1.6024720  3
   6854   6850   6849   6855     1  0.0000000  4.9162000  2
   6854   6850   6849   6855     1  0.0000000  0.6024960  3
   6855   6849   6848   6856     1  0.0000000  4.9162000  2
   6855   6849   6848   6856     1  0.0000000  0.6024960  3
   6855   6849   6850   6866     1  0.0000000  4.9162000  2
   6855   6849   6850   6866     1  0.0000000  0.6024960  3
   6856   6848   6845   6857     1  0.0000000  4.9162000  2
   6856   6848   6845   6857     1  0.0000000  0.6024960  3
   6857   6845   6844   6858     1  0.0000000  0.6508444  3
   6857   6845   6844   6866     1  0.0000000  4.9162000  2
   6857   6845   6844   6866     1  0.0000000  0.6024960  3
   6864   6858   6844   6866     1  0.0000000  4.9162000  2
   6864   6858   6844   6866     1  0.0000000  0.6024960  3
   6867   6868   6871   6872     1  180.0000771  0.8368000  1
   6867   6868   6871   6872     1  180.0000771  1.0460000  2
   6867   6868   6871   6872     1  0.0000000  0.7531200  3
   6867   6868   6871   6879     1  0.0000000  0.6508444  3
   6867   6889   6873   6877     1  180.0000771  5.6484000  1
   6867   6889   6873   6877     1  180.0000771  3.5564000  2
   6867   6889   6873   6877     1  0.0000000  0.4184000  3
   6867   6889   6873   6872     1  180.0000771  0.4184000  2
   6867   6889   6873   6872     1  0.0000000  1.6024720  3
   6868   6871   6872   6873     1  180.0000771  0.8368000  1
   6868   6871   6872   6873     1  180.0000771  1.0460000  2
   6868   6871   6872   6873     1  0.0000000  0.7531200  3
   6868   6871   6872   6878     1  0.0000000  0.6508444  3
   6868   6867   6881   6887     1  0.0000000  0.6508444  3
   6868   6867   6889   6873     1  180.0000771  0.4184000  2
   6868   6867   6889   6873     1  0.0000000  1.6024720  3
   6871   6872   6873   6877     1  0.0000000  0.6508444  3
   6871   6872   6873   6889     1  0.0000000  0.6508444  3
   6871   6868   6867   6881     1  180.0000771  0.8368000  1
   6871   6868   6867   6881     1  180.0000771  1.0460000  2
   6871   6868   6867   6881     1  0.0000000  0.7531200  3
   6871   6868   6867   6889     1  0.0000000  0.6508444  3
   6872   6871   6868   6880     1  0.0000000  0.6508444  3
   6873   6889   6867   6881     1  180.0000771  0.4184000  2
   6873   6889   6867   6881     1  0.0000000  1.6024720  3
   6873   6872   6871   6879     1  0.0000000  0.6508444  3
   6877   6873   6872   6878     1  0.0000000  4.9162000  2
   6877   6873   6872   6878     1  0.0000000  0.6024960  3
   6878   6872   6873   6889     1  0.0000000  4.9162000  2
   6878   6872   6873   6889     1  0.0000000  0.6024960  3
   6878   6872   6871   6879     1  0.0000000  4.9162000  2
   6878   6872   6871   6879     1  0.0000000  0.6024960  3
   6879   6871   6868   6880     1  0.0000000  4.9162000  2
   6879   6871   6868   6880     1  0.0000000  0.6024960  3
   6880   6868   6867   6881     1  0.0000000  0.6508444  3
   6880   6868   6867   6889     1  0.0000000  4.9162000  2
   6880   6868   6867   6889     1  0.0000000  0.6024960  3
   6887   6881   6867   6889     1  0.0000000  4.9162000  2
   6887   6881   6867   6889     1  0.0000000  0.6024960  3
   6890   6891   6894   6895     1  180.0000771  0.8368000  1
   6890   6891   6894   6895     1  180.0000771  1.0460000  2
   6890   6891   6894   6895     1  0.0000000  0.7531200  3
   6890   6891   6894   6902     1  0.0000000  0.6508444  3
   6890   6912   6896   6895     1  180.0000771  0.4184000  2
   6890   6912   6896   6895     1  0.0000000  1.6024720  3
   6890   6912   6896   6900     1  180.0000771  5.6484000  1
   6890   6912   6896   6900     1  180.0000771  3.5564000  2
   6890   6912   6896   6900     1  0.0000000  0.4184000  3
   6891   6890   6904   6910     1  0.0000000  0.6508444  3
   6891   6890   6912   6896     1  180.0000771  0.4184000  2
   6891   6890   6912   6896     1  0.0000000  1.6024720  3
   6891   6894   6895   6896     1  180.0000771  0.8368000  1
   6891   6894   6895   6896     1  180.0000771  1.0460000  2
   6891   6894   6895   6896     1  0.0000000  0.7531200  3
   6891   6894   6895   6901     1  0.0000000  0.6508444  3
   6894   6891   6890   6904     1  180.0000771  0.8368000  1
   6894   6891   6890   6904     1  180.0000771  1.0460000  2
   6894   6891   6890   6904     1  0.0000000  0.7531200  3
   6894   6891   6890   6912     1  0.0000000  0.6508444  3
   6894   6895   6896   6900     1  0.0000000  0.6508444  3
   6894   6895   6896   6912     1  0.0000000  0.6508444  3
   6895   6894   6891   6903     1  0.0000000  0.6508444  3
   6896   6895   6894   6902     1  0.0000000  0.6508444  3
   6896   6912   6890   6904     1  180.0000771  0.4184000  2
   6896   6912   6890   6904     1  0.0000000  1.6024720  3
   6900   6896   6895   6901     1  0.0000000  4.9162000  2
   6900   6896   6895   6901     1  0.0000000  0.6024960  3
   6901   6895   6894   6902     1  0.0000000  4.9162000  2
   6901   6895   6894   6902     1  0.0000000  0.6024960  3
   6901   6895   6896   6912     1  0.0000000  4.9162000  2
   6901   6895   6896   6912     1  0.0000000  0.6024960  3
   6902   6894   6891   6903     1  0.0000000  4.9162000  2
   6902   6894   6891   6903     1  0.0000000  0.6024960  3
   6903   6891   6890   6904     1  0.0000000  0.6508444  3
   6903   6891   6890   6912     1  0.0000000  4.9162000  2
   6903   6891   6890   6912     1  0.0000000  0.6024960  3
   6910   6904   6890   6912     1  0.0000000  4.9162000  2
   6910   6904   6890   6912     1  0.0000000  0.6024960  3
   6913   6914   6917   6918     1  180.0000771  0.8368000  1
   6913   6914   6917   6918     1  180.0000771  1.0460000  2
   6913   6914   6917   6918     1  0.0000000  0.7531200  3
   6913   6914   6917   6925     1  0.0000000  0.6508444  3
   6913   6935   6919   6923     1  180.0000771  5.6484000  1
   6913   6935   6919   6923     1  180.0000771  3.5564000  2
   6913   6935   6919   6923     1  0.0000000  0.4184000  3
   6913   6935   6919   6918     1  180.0000771  0.4184000  2
   6913   6935   6919   6918     1  0.0000000  1.6024720  3
   6914   6917   6918   6919     1  180.0000771  0.8368000  1
   6914   6917   6918   6919     1  180.0000771  1.0460000  2
   6914   6917   6918   6919     1  0.0000000  0.7531200  3
   6914   6917   6918   6924     1  0.0000000  0.6508444  3
   6914   6913   6927   6933     1  0.0000000  0.6508444  3
   6914   6913   6935   6919     1  180.0000771  0.4184000  2
   6914   6913   6935   6919     1  0.0000000  1.6024720  3
   6917   6918   6919   6923     1  0.0000000  0.6508444  3
   6917   6918   6919   6935     1  0.0000000  0.6508444  3
   6917   6914   6913   6927     1  180.0000771  0.8368000  1
   6917   6914   6913   6927     1  180.0000771  1.0460000  2
   6917   6914   6913   6927     1  0.0000000  0.7531200  3
   6917   6914   6913   6935     1  0.0000000  0.6508444  3
   6918   6917   6914   6926     1  0.0000000  0.6508444  3
   6919   6935   6913   6927     1  180.0000771  0.4184000  2
   6919   6935   6913   6927     1  0.0000000  1.6024720  3
   6919   6918   6917   6925     1  0.0000000  0.6508444  3
   6923   6919   6918   6924     1  0.0000000  4.9162000  2
   6923   6919   6918   6924     1  0.0000000  0.6024960  3
   6924   6918   6919   6935     1  0.0000000  4.9162000  2
   6924   6918   6919   6935     1  0.0000000  0.6024960  3
   6924   6918   6917   6925     1  0.0000000  4.9162000  2
   6924   6918   6917   6925     1  0.0000000  0.6024960  3
   6925   6917   6914   6926     1  0.0000000  4.9162000  2
   6925   6917   6914   6926     1  0.0000000  0.6024960  3
   6926   6914   6913   6927     1  0.0000000  0.6508444  3
   6926   6914   6913   6935     1  0.0000000  4.9162000  2
   6926   6914   6913   6935     1  0.0000000  0.6024960  3
   6933   6927   6913   6935     1  0.0000000  4.9162000  2
   6933   6927   6913   6935     1  0.0000000  0.6024960  3
   6936   6937   6940   6941     1  180.0000771  0.8368000  1
   6936   6937   6940   6941     1  180.0000771  1.0460000  2
   6936   6937   6940   6941     1  0.0000000  0.7531200  3
   6936   6937   6940   6948     1  0.0000000  0.6508444  3
   6936   6958   6942   6941     1  180.0000771  0.4184000  2
   6936   6958   6942   6941     1  0.0000000  1.6024720  3
   6936   6958   6942   6946     1  180.0000771  5.6484000  1
   6936   6958   6942   6946     1  180.0000771  3.5564000  2
   6936   6958   6942   6946     1  0.0000000  0.4184000  3
   6937   6936   6950   6956     1  0.0000000  0.6508444  3
   6937   6936   6958   6942     1  180.0000771  0.4184000  2
   6937   6936   6958   6942     1  0.0000000  1.6024720  3
   6937   6940   6941   6942     1  180.0000771  0.8368000  1
   6937   6940   6941   6942     1  180.0000771  1.0460000  2
   6937   6940   6941   6942     1  0.0000000  0.7531200  3
   6937   6940   6941   6947     1  0.0000000  0.6508444  3
   6940   6937   6936   6950     1  180.0000771  0.8368000  1
   6940   6937   6936   6950     1  180.0000771  1.0460000  2
   6940   6937   6936   6950     1  0.0000000  0.7531200  3
   6940   6937   6936   6958     1  0.0000000  0.6508444  3
   6940   6941   6942   6946     1  0.0000000  0.6508444  3
   6940   6941   6942   6958     1  0.0000000  0.6508444  3
   6941   6940   6937   6949     1  0.0000000  0.6508444  3
   6942   6941   6940   6948     1  0.0000000  0.6508444  3
   6942   6958   6936   6950     1  180.0000771  0.4184000  2
   6942   6958   6936   6950     1  0.0000000  1.6024720  3
   6946   6942   6941   6947     1  0.0000000  4.9162000  2
   6946   6942   6941   6947     1  0.0000000  0.6024960  3
   6947   6941   6940   6948     1  0.0000000  4.9162000  2
   6947   6941   6940   6948     1  0.0000000  0.6024960  3
   6947   6941   6942   6958     1  0.0000000  4.9162000  2
   6947   6941   6942   6958     1  0.0000000  0.6024960  3
   6948   6940   6937   6949     1  0.0000000  4.9162000  2
   6948   6940   6937   6949     1  0.0000000  0.6024960  3
   6949   6937   6936   6950     1  0.0000000  0.6508444  3
   6949   6937   6936   6958     1  0.0000000  4.9162000  2
   6949   6937   6936   6958     1  0.0000000  0.6024960  3
   6956   6950   6936   6958     1  0.0000000  4.9162000  2
   6956   6950   6936   6958     1  0.0000000  0.6024960  3
   6959   6960   6963   6964     1  180.0000771  0.8368000  1
   6959   6960   6963   6964     1  180.0000771  1.0460000  2
   6959   6960   6963   6964     1  0.0000000  0.7531200  3
   6959   6960   6963   6971     1  0.0000000  0.6508444  3
   6959   6981   6965   6969     1  180.0000771  5.6484000  1
   6959   6981   6965   6969     1  180.0000771  3.5564000  2
   6959   6981   6965   6969     1  0.0000000  0.4184000  3
   6959   6981   6965   6964     1  180.0000771  0.4184000  2
   6959   6981   6965   6964     1  0.0000000  1.6024720  3
   6960   6963   6964   6965     1  180.0000771  0.8368000  1
   6960   6963   6964   6965     1  180.0000771  1.0460000  2
   6960   6963   6964   6965     1  0.0000000  0.7531200  3
   6960   6963   6964   6970     1  0.0000000  0.6508444  3
   6960   6959   6973   6979     1  0.0000000  0.6508444  3
   6960   6959   6981   6965     1  180.0000771  0.4184000  2
   6960   6959   6981   6965     1  0.0000000  1.6024720  3
   6963   6964   6965   6969     1  0.0000000  0.6508444  3
   6963   6964   6965   6981     1  0.0000000  0.6508444  3
   6963   6960   6959   6973     1  180.0000771  0.8368000  1
   6963   6960   6959   6973     1  180.0000771  1.0460000  2
   6963   6960   6959   6973     1  0.0000000  0.7531200  3
   6963   6960   6959   6981     1  0.0000000  0.6508444  3
   6964   6963   6960   6972     1  0.0000000  0.6508444  3
   6965   6981   6959   6973     1  180.0000771  0.4184000  2
   6965   6981   6959   6973     1  0.0000000  1.6024720  3
   6965   6964   6963   6971     1  0.0000000  0.6508444  3
   6969   6965   6964   6970     1  0.0000000  4.9162000  2
   6969   6965   6964   6970     1  0.0000000  0.6024960  3
   6970   6964   6965   6981     1  0.0000000  4.9162000  2
   6970   6964   6965   6981     1  0.0000000  0.6024960  3
   6970   6964   6963   6971     1  0.0000000  4.9162000  2
   6970   6964   6963   6971     1  0.0000000  0.6024960  3
   6971   6963   6960   6972     1  0.0000000  4.9162000  2
   6971   6963   6960   6972     1  0.0000000  0.6024960  3
   6972   6960   6959   6973     1  0.0000000  0.6508444  3
   6972   6960   6959   6981     1  0.0000000  4.9162000  2
   6972   6960   6959   6981     1  0.0000000  0.6024960  3
   6979   6973   6959   6981     1  0.0000000  4.9162000  2
   6979   6973   6959   6981     1  0.0000000  0.6024960  3
   6982   6983   6986   6987     1  180.0000771  0.8368000  1
   6982   6983   6986   6987     1  180.0000771  1.0460000  2
   6982   6983   6986   6987     1  0.0000000  0.7531200  3
   6982   6983   6986   6994     1  0.0000000  0.6508444  3
   6982   7004   6988   6987     1  180.0000771  0.4184000  2
   6982   7004   6988   6987     1  0.0000000  1.6024720  3
   6982   7004   6988   6992     1  180.0000771  5.6484000  1
   6982   7004   6988   6992     1  180.0000771  3.5564000  2
   6982   7004   6988   6992     1  0.0000000  0.4184000  3
   6983   6982   6996   7002     1  0.0000000  0.6508444  3
   6983   6982   7004   6988     1  180.0000771  0.4184000  2
   6983   6982   7004   6988     1  0.0000000  1.6024720  3
   6983   6986   6987   6988     1  180.0000771  0.8368000  1
   6983   6986   6987   6988     1  180.0000771  1.0460000  2
   6983   6986   6987   6988     1  0.0000000  0.7531200  3
   6983   6986   6987   6993     1  0.0000000  0.6508444  3
   6986   6983   6982   6996     1  180.0000771  0.8368000  1
   6986   6983   6982   6996     1  180.0000771  1.0460000  2
   6986   6983   6982   6996     1  0.0000000  0.7531200  3
   6986   6983   6982   7004     1  0.0000000  0.6508444  3
   6986   6987   6988   6992     1  0.0000000  0.6508444  3
   6986   6987   6988   7004     1  0.0000000  0.6508444  3
   6987   6986   6983   6995     1  0.0000000  0.6508444  3
   6988   6987   6986   6994     1  0.0000000  0.6508444  3
   6988   7004   6982   6996     1  180.0000771  0.4184000  2
   6988   7004   6982   6996     1  0.0000000  1.6024720  3
   6992   6988   6987   6993     1  0.0000000  4.9162000  2
   6992   6988   6987   6993     1  0.0000000  0.6024960  3
   6993   6987   6986   6994     1  0.0000000  4.9162000  2
   6993   6987   6986   6994     1  0.0000000  0.6024960  3
   6993   6987   6988   7004     1  0.0000000  4.9162000  2
   6993   6987   6988   7004     1  0.0000000  0.6024960  3
   6994   6986   6983   6995     1  0.0000000  4.9162000  2
   6994   6986   6983   6995     1  0.0000000  0.6024960  3
   6995   6983   6982   6996     1  0.0000000  0.6508444  3
   6995   6983   6982   7004     1  0.0000000  4.9162000  2
   6995   6983   6982   7004     1  0.0000000  0.6024960  3
   7002   6996   6982   7004     1  0.0000000  4.9162000  2
   7002   6996   6982   7004     1  0.0000000  0.6024960  3
   7005   7006   7009   7010     1  180.0000771  0.8368000  1
   7005   7006   7009   7010     1  180.0000771  1.0460000  2
   7005   7006   7009   7010     1  0.0000000  0.7531200  3
   7005   7006   7009   7017     1  0.0000000  0.6508444  3
   7005   7027   7011   7015     1  180.0000771  5.6484000  1
   7005   7027   7011   7015     1  180.0000771  3.5564000  2
   7005   7027   7011   7015     1  0.0000000  0.4184000  3
   7005   7027   7011   7010     1  180.0000771  0.4184000  2
   7005   7027   7011   7010     1  0.0000000  1.6024720  3
   7006   7009   7010   7011     1  180.0000771  0.8368000  1
   7006   7009   7010   7011     1  180.0000771  1.0460000  2
   7006   7009   7010   7011     1  0.0000000  0.7531200  3
   7006   7009   7010   7016     1  0.0000000  0.6508444  3
   7006   7005   7019   7025     1  0.0000000  0.6508444  3
   7006   7005   7027   7011     1  180.0000771  0.4184000  2
   7006   7005   7027   7011     1  0.0000000  1.6024720  3
   7009   7010   7011   7015     1  0.0000000  0.6508444  3
   7009   7010   7011   7027     1  0.0000000  0.6508444  3
   7009   7006   7005   7019     1  180.0000771  0.8368000  1
   7009   7006   7005   7019     1  180.0000771  1.0460000  2
   7009   7006   7005   7019     1  0.0000000  0.7531200  3
   7009   7006   7005   7027     1  0.0000000  0.6508444  3
   7010   7009   7006   7018     1  0.0000000  0.6508444  3
   7011   7027   7005   7019     1  180.0000771  0.4184000  2
   7011   7027   7005   7019     1  0.0000000  1.6024720  3
   7011   7010   7009   7017     1  0.0000000  0.6508444  3
   7015   7011   7010   7016     1  0.0000000  4.9162000  2
   7015   7011   7010   7016     1  0.0000000  0.6024960  3
   7016   7010   7011   7027     1  0.0000000  4.9162000  2
   7016   7010   7011   7027     1  0.0000000  0.6024960  3
   7016   7010   7009   7017     1  0.0000000  4.9162000  2
   7016   7010   7009   7017     1  0.0000000  0.6024960  3
   7017   7009   7006   7018     1  0.0000000  4.9162000  2
   7017   7009   7006   7018     1  0.0000000  0.6024960  3
   7018   7006   7005   7019     1  0.0000000  0.6508444  3
   7018   7006   7005   7027     1  0.0000000  4.9162000  2
   7018   7006   7005   7027     1  0.0000000  0.6024960  3
   7025   7019   7005   7027     1  0.0000000  4.9162000  2
   7025   7019   7005   7027     1  0.0000000  0.6024960  3
   7028   7029   7032   7033     1  180.0000771  0.8368000  1
   7028   7029   7032   7033     1  180.0000771  1.0460000  2
   7028   7029   7032   7033     1  0.0000000  0.7531200  3
   7028   7029   7032   7040     1  0.0000000  0.6508444  3
   7028   7050   7034   7033     1  180.0000771  0.4184000  2
   7028   7050   7034   7033     1  0.0000000  1.6024720  3
   7028   7050   7034   7038     1  180.0000771  5.6484000  1
   7028   7050   7034   7038     1  180.0000771  3.5564000  2
   7028   7050   7034   7038     1  0.0000000  0.4184000  3
   7029   7028   7042   7048     1  0.0000000  0.6508444  3
   7029   7028   7050   7034     1  180.0000771  0.4184000  2
   7029   7028   7050   7034     1  0.0000000  1.6024720  3
   7029   7032   7033   7034     1  180.0000771  0.8368000  1
   7029   7032   7033   7034     1  180.0000771  1.0460000  2
   7029   7032   7033   7034     1  0.0000000  0.7531200  3
   7029   7032   7033   7039     1  0.0000000  0.6508444  3
   7032   7029   7028   7042     1  180.0000771  0.8368000  1
   7032   7029   7028   7042     1  180.0000771  1.0460000  2
   7032   7029   7028   7042     1  0.0000000  0.7531200  3
   7032   7029   7028   7050     1  0.0000000  0.6508444  3
   7032   7033   7034   7038     1  0.0000000  0.6508444  3
   7032   7033   7034   7050     1  0.0000000  0.6508444  3
   7033   7032   7029   7041     1  0.0000000  0.6508444  3
   7034   7033   7032   7040     1  0.0000000  0.6508444  3
   7034   7050   7028   7042     1  180.0000771  0.4184000  2
   7034   7050   7028   7042     1  0.0000000  1.6024720  3
   7038   7034   7033   7039     1  0.0000000  4.9162000  2
   7038   7034   7033   7039     1  0.0000000  0.6024960  3
   7039   7033   7032   7040     1  0.0000000  4.9162000  2
   7039   7033   7032   7040     1  0.0000000  0.6024960  3
   7039   7033   7034   7050     1  0.0000000  4.9162000  2
   7039   7033   7034   7050     1  0.0000000  0.6024960  3
   7040   7032   7029   7041     1  0.0000000  4.9162000  2
   7040   7032   7029   7041     1  0.0000000  0.6024960  3
   7041   7029   7028   7042     1  0.0000000  0.6508444  3
   7041   7029   7028   7050     1  0.0000000  4.9162000  2
   7041   7029   7028   7050     1  0.0000000  0.6024960  3
   7048   7042   7028   7050     1  0.0000000  4.9162000  2
   7048   7042   7028   7050     1  0.0000000  0.6024960  3
   7051   7052   7055   7056     1  180.0000771  0.8368000  1
   7051   7052   7055   7056     1  180.0000771  1.0460000  2
   7051   7052   7055   7056     1  0.0000000  0.7531200  3
   7051   7052   7055   7063     1  0.0000000  0.6508444  3
   7051   7073   7057   7061     1  180.0000771  5.6484000  1
   7051   7073   7057   7061     1  180.0000771  3.5564000  2
   7051   7073   7057   7061     1  0.0000000  0.4184000  3
   7051   7073   7057   7056     1  180.0000771  0.4184000  2
   7051   7073   7057   7056     1  0.0000000  1.6024720  3
   7052   7055   7056   7057     1  180.0000771  0.8368000  1
   7052   7055   7056   7057     1  180.0000771  1.0460000  2
   7052   7055   7056   7057     1  0.0000000  0.7531200  3
   7052   7055   7056   7062     1  0.0000000  0.6508444  3
   7052   7051   7065   7071     1  0.0000000  0.6508444  3
   7052   7051   7073   7057     1  180.0000771  0.4184000  2
   7052   7051   7073   7057     1  0.0000000  1.6024720  3
   7055   7056   7057   7061     1  0.0000000  0.6508444  3
   7055   7056   7057   7073     1  0.0000000  0.6508444  3
   7055   7052   7051   7065     1  180.0000771  0.8368000  1
   7055   7052   7051   7065     1  180.0000771  1.0460000  2
   7055   7052   7051   7065     1  0.0000000  0.7531200  3
   7055   7052   7051   7073     1  0.0000000  0.6508444  3
   7056   7055   7052   7064     1  0.0000000  0.6508444  3
   7057   7073   7051   7065     1  180.0000771  0.4184000  2
   7057   7073   7051   7065     1  0.0000000  1.6024720  3
   7057   7056   7055   7063     1  0.0000000  0.6508444  3
   7061   7057   7056   7062     1  0.0000000  4.9162000  2
   7061   7057   7056   7062     1  0.0000000  0.6024960  3
   7062   7056   7057   7073     1  0.0000000  4.9162000  2
   7062   7056   7057   7073     1  0.0000000  0.6024960  3
   7062   7056   7055   7063     1  0.0000000  4.9162000  2
   7062   7056   7055   7063     1  0.0000000  0.6024960  3
   7063   7055   7052   7064     1  0.0000000  4.9162000  2
   7063   7055   7052   7064     1  0.0000000  0.6024960  3
   7064   7052   7051   7065     1  0.0000000  0.6508444  3
   7064   7052   7051   7073     1  0.0000000  4.9162000  2
   7064   7052   7051   7073     1  0.0000000  0.6024960  3
   7071   7065   7051   7073     1  0.0000000  4.9162000  2
   7071   7065   7051   7073     1  0.0000000  0.6024960  3
   7074   7075   7078   7079     1  180.0000771  0.8368000  1
   7074   7075   7078   7079     1  180.0000771  1.0460000  2
   7074   7075   7078   7079     1  0.0000000  0.7531200  3
   7074   7075   7078   7086     1  0.0000000  0.6508444  3
   7074   7096   7080   7079     1  180.0000771  0.4184000  2
   7074   7096   7080   7079     1  0.0000000  1.6024720  3
   7074   7096   7080   7084     1  180.0000771  5.6484000  1
   7074   7096   7080   7084     1  180.0000771  3.5564000  2
   7074   7096   7080   7084     1  0.0000000  0.4184000  3
   7075   7074   7088   7094     1  0.0000000  0.6508444  3
   7075   7074   7096   7080     1  180.0000771  0.4184000  2
   7075   7074   7096   7080     1  0.0000000  1.6024720  3
   7075   7078   7079   7080     1  180.0000771  0.8368000  1
   7075   7078   7079   7080     1  180.0000771  1.0460000  2
   7075   7078   7079   7080     1  0.0000000  0.7531200  3
   7075   7078   7079   7085     1  0.0000000  0.6508444  3
   7078   7075   7074   7088     1  180.0000771  0.8368000  1
   7078   7075   7074   7088     1  180.0000771  1.0460000  2
   7078   7075   7074   7088     1  0.0000000  0.7531200  3
   7078   7075   7074   7096     1  0.0000000  0.6508444  3
   7078   7079   7080   7084     1  0.0000000  0.6508444  3
   7078   7079   7080   7096     1  0.0000000  0.6508444  3
   7079   7078   7075   7087     1  0.0000000  0.6508444  3
   7080   7079   7078   7086     1  0.0000000  0.6508444  3
   7080   7096   7074   7088     1  180.0000771  0.4184000  2
   7080   7096   7074   7088     1  0.0000000  1.6024720  3
   7084   7080   7079   7085     1  0.0000000  4.9162000  2
   7084   7080   7079   7085     1  0.0000000  0.6024960  3
   7085   7079   7078   7086     1  0.0000000  4.9162000  2
   7085   7079   7078   7086     1  0.0000000  0.6024960  3
   7085   7079   7080   7096     1  0.0000000  4.9162000  2
   7085   7079   7080   7096     1  0.0000000  0.6024960  3
   7086   7078   7075   7087     1  0.0000000  4.9162000  2
   7086   7078   7075   7087     1  0.0000000  0.6024960  3
   7087   7075   7074   7088     1  0.0000000  0.6508444  3
   7087   7075   7074   7096     1  0.0000000  4.9162000  2
   7087   7075   7074   7096     1  0.0000000  0.6024960  3
   7094   7088   7074   7096     1  0.0000000  4.9162000  2
   7094   7088   7074   7096     1  0.0000000  0.6024960  3
   7097   7098   7101   7102     1  180.0000771  0.8368000  1
   7097   7098   7101   7102     1  180.0000771  1.0460000  2
   7097   7098   7101   7102     1  0.0000000  0.7531200  3
   7097   7098   7101   7109     1  0.0000000  0.6508444  3
   7097   7119   7103   7107     1  180.0000771  5.6484000  1
   7097   7119   7103   7107     1  180.0000771  3.5564000  2
   7097   7119   7103   7107     1  0.0000000  0.4184000  3
   7097   7119   7103   7102     1  180.0000771  0.4184000  2
   7097   7119   7103   7102     1  0.0000000  1.6024720  3
   7098   7101   7102   7103     1  180.0000771  0.8368000  1
   7098   7101   7102   7103     1  180.0000771  1.0460000  2
   7098   7101   7102   7103     1  0.0000000  0.7531200  3
   7098   7101   7102   7108     1  0.0000000  0.6508444  3
   7098   7097   7111   7117     1  0.0000000  0.6508444  3
   7098   7097   7119   7103     1  180.0000771  0.4184000  2
   7098   7097   7119   7103     1  0.0000000  1.6024720  3
   7101   7102   7103   7107     1  0.0000000  0.6508444  3
   7101   7102   7103   7119     1  0.0000000  0.6508444  3
   7101   7098   7097   7111     1  180.0000771  0.8368000  1
   7101   7098   7097   7111     1  180.0000771  1.0460000  2
   7101   7098   7097   7111     1  0.0000000  0.7531200  3
   7101   7098   7097   7119     1  0.0000000  0.6508444  3
   7102   7101   7098   7110     1  0.0000000  0.6508444  3
   7103   7119   7097   7111     1  180.0000771  0.4184000  2
   7103   7119   7097   7111     1  0.0000000  1.6024720  3
   7103   7102   7101   7109     1  0.0000000  0.6508444  3
   7107   7103   7102   7108     1  0.0000000  4.9162000  2
   7107   7103   7102   7108     1  0.0000000  0.6024960  3
   7108   7102   7103   7119     1  0.0000000  4.9162000  2
   7108   7102   7103   7119     1  0.0000000  0.6024960  3
   7108   7102   7101   7109     1  0.0000000  4.9162000  2
   7108   7102   7101   7109     1  0.0000000  0.6024960  3
   7109   7101   7098   7110     1  0.0000000  4.9162000  2
   7109   7101   7098   7110     1  0.0000000  0.6024960  3
   7110   7098   7097   7111     1  0.0000000  0.6508444  3
   7110   7098   7097   7119     1  0.0000000  4.9162000  2
   7110   7098   7097   7119     1  0.0000000  0.6024960  3
   7117   7111   7097   7119     1  0.0000000  4.9162000  2
   7117   7111   7097   7119     1  0.0000000  0.6024960  3
   7120   7121   7124   7125     1  180.0000771  0.8368000  1
   7120   7121   7124   7125     1  180.0000771  1.0460000  2
   7120   7121   7124   7125     1  0.0000000  0.7531200  3
   7120   7121   7124   7132     1  0.0000000  0.6508444  3
   7120   7142   7126   7125     1  180.0000771  0.4184000  2
   7120   7142   7126   7125     1  0.0000000  1.6024720  3
   7120   7142   7126   7130     1  180.0000771  5.6484000  1
   7120   7142   7126   7130     1  180.0000771  3.5564000  2
   7120   7142   7126   7130     1  0.0000000  0.4184000  3
   7121   7120   7134   7140     1  0.0000000  0.6508444  3
   7121   7120   7142   7126     1  180.0000771  0.4184000  2
   7121   7120   7142   7126     1  0.0000000  1.6024720  3
   7121   7124   7125   7126     1  180.0000771  0.8368000  1
   7121   7124   7125   7126     1  180.0000771  1.0460000  2
   7121   7124   7125   7126     1  0.0000000  0.7531200  3
   7121   7124   7125   7131     1  0.0000000  0.6508444  3
   7124   7121   7120   7134     1  180.0000771  0.8368000  1
   7124   7121   7120   7134     1  180.0000771  1.0460000  2
   7124   7121   7120   7134     1  0.0000000  0.7531200  3
   7124   7121   7120   7142     1  0.0000000  0.6508444  3
   7124   7125   7126   7130     1  0.0000000  0.6508444  3
   7124   7125   7126   7142     1  0.0000000  0.6508444  3
   7125   7124   7121   7133     1  0.0000000  0.6508444  3
   7126   7125   7124   7132     1  0.0000000  0.6508444  3
   7126   7142   7120   7134     1  180.0000771  0.4184000  2
   7126   7142   7120   7134     1  0.0000000  1.6024720  3
   7130   7126   7125   7131     1  0.0000000  4.9162000  2
   7130   7126   7125   7131     1  0.0000000  0.6024960  3
   7131   7125   7124   7132     1  0.0000000  4.9162000  2
   7131   7125   7124   7132     1  0.0000000  0.6024960  3
   7131   7125   7126   7142     1  0.0000000  4.9162000  2
   7131   7125   7126   7142     1  0.0000000  0.6024960  3
   7132   7124   7121   7133     1  0.0000000  4.9162000  2
   7132   7124   7121   7133     1  0.0000000  0.6024960  3
   7133   7121   7120   7134     1  0.0000000  0.6508444  3
   7133   7121   7120   7142     1  0.0000000  4.9162000  2
   7133   7121   7120   7142     1  0.0000000  0.6024960  3
   7140   7134   7120   7142     1  0.0000000  4.9162000  2
   7140   7134   7120   7142     1  0.0000000  0.6024960  3
   7143   7144   7147   7148     1  180.0000771  0.8368000  1
   7143   7144   7147   7148     1  180.0000771  1.0460000  2
   7143   7144   7147   7148     1  0.0000000  0.7531200  3
   7143   7144   7147   7155     1  0.0000000  0.6508444  3
   7143   7165   7149   7153     1  180.0000771  5.6484000  1
   7143   7165   7149   7153     1  180.0000771  3.5564000  2
   7143   7165   7149   7153     1  0.0000000  0.4184000  3
   7143   7165   7149   7148     1  180.0000771  0.4184000  2
   7143   7165   7149   7148     1  0.0000000  1.6024720  3
   7144   7147   7148   7149     1  180.0000771  0.8368000  1
   7144   7147   7148   7149     1  180.0000771  1.0460000  2
   7144   7147   7148   7149     1  0.0000000  0.7531200  3
   7144   7147   7148   7154     1  0.0000000  0.6508444  3
   7144   7143   7157   7163     1  0.0000000  0.6508444  3
   7144   7143   7165   7149     1  180.0000771  0.4184000  2
   7144   7143   7165   7149     1  0.0000000  1.6024720  3
   7147   7148   7149   7153     1  0.0000000  0.6508444  3
   7147   7148   7149   7165     1  0.0000000  0.6508444  3
   7147   7144   7143   7157     1  180.0000771  0.8368000  1
   7147   7144   7143   7157     1  180.0000771  1.0460000  2
   7147   7144   7143   7157     1  0.0000000  0.7531200  3
   7147   7144   7143   7165     1  0.0000000  0.6508444  3
   7148   7147   7144   7156     1  0.0000000  0.6508444  3
   7149   7165   7143   7157     1  180.0000771  0.4184000  2
   7149   7165   7143   7157     1  0.0000000  1.6024720  3
   7149   7148   7147   7155     1  0.0000000  0.6508444  3
   7153   7149   7148   7154     1  0.0000000  4.9162000  2
   7153   7149   7148   7154     1  0.0000000  0.6024960  3
   7154   7148   7149   7165     1  0.0000000  4.9162000  2
   7154   7148   7149   7165     1  0.0000000  0.6024960  3
   7154   7148   7147   7155     1  0.0000000  4.9162000  2
   7154   7148   7147   7155     1  0.0000000  0.6024960  3
   7155   7147   7144   7156     1  0.0000000  4.9162000  2
   7155   7147   7144   7156     1  0.0000000  0.6024960  3
   7156   7144   7143   7157     1  0.0000000  0.6508444  3
   7156   7144   7143   7165     1  0.0000000  4.9162000  2
   7156   7144   7143   7165     1  0.0000000  0.6024960  3
   7163   7157   7143   7165     1  0.0000000  4.9162000  2
   7163   7157   7143   7165     1  0.0000000  0.6024960  3
   7166   7167   7170   7171     1  180.0000771  0.8368000  1
   7166   7167   7170   7171     1  180.0000771  1.0460000  2
   7166   7167   7170   7171     1  0.0000000  0.7531200  3
   7166   7167   7170   7178     1  0.0000000  0.6508444  3
   7166   7188   7172   7171     1  180.0000771  0.4184000  2
   7166   7188   7172   7171     1  0.0000000  1.6024720  3
   7166   7188   7172   7176     1  180.0000771  5.6484000  1
   7166   7188   7172   7176     1  180.0000771  3.5564000  2
   7166   7188   7172   7176     1  0.0000000  0.4184000  3
   7167   7166   7180   7186     1  0.0000000  0.6508444  3
   7167   7166   7188   7172     1  180.0000771  0.4184000  2
   7167   7166   7188   7172     1  0.0000000  1.6024720  3
   7167   7170   7171   7172     1  180.0000771  0.8368000  1
   7167   7170   7171   7172     1  180.0000771  1.0460000  2
   7167   7170   7171   7172     1  0.0000000  0.7531200  3
   7167   7170   7171   7177     1  0.0000000  0.6508444  3
   7170   7167   7166   7180     1  180.0000771  0.8368000  1
   7170   7167   7166   7180     1  180.0000771  1.0460000  2
   7170   7167   7166   7180     1  0.0000000  0.7531200  3
   7170   7167   7166   7188     1  0.0000000  0.6508444  3
   7170   7171   7172   7176     1  0.0000000  0.6508444  3
   7170   7171   7172   7188     1  0.0000000  0.6508444  3
   7171   7170   7167   7179     1  0.0000000  0.6508444  3
   7172   7171   7170   7178     1  0.0000000  0.6508444  3
   7172   7188   7166   7180     1  180.0000771  0.4184000  2
   7172   7188   7166   7180     1  0.0000000  1.6024720  3
   7176   7172   7171   7177     1  0.0000000  4.9162000  2
   7176   7172   7171   7177     1  0.0000000  0.6024960  3
   7177   7171   7170   7178     1  0.0000000  4.9162000  2
   7177   7171   7170   7178     1  0.0000000  0.6024960  3
   7177   7171   7172   7188     1  0.0000000  4.9162000  2
   7177   7171   7172   7188     1  0.0000000  0.6024960  3
   7178   7170   7167   7179     1  0.0000000  4.9162000  2
   7178   7170   7167   7179     1  0.0000000  0.6024960  3
   7179   7167   7166   7180     1  0.0000000  0.6508444  3
   7179   7167   7166   7188     1  0.0000000  4.9162000  2
   7179   7167   7166   7188     1  0.0000000  0.6024960  3
   7186   7180   7166   7188     1  0.0000000  4.9162000  2
   7186   7180   7166   7188     1  0.0000000  0.6024960  3
   7189   7190   7193   7194     1  180.0000771  0.8368000  1
   7189   7190   7193   7194     1  180.0000771  1.0460000  2
   7189   7190   7193   7194     1  0.0000000  0.7531200  3
   7189   7190   7193   7201     1  0.0000000  0.6508444  3
   7189   7211   7195   7199     1  180.0000771  5.6484000  1
   7189   7211   7195   7199     1  180.0000771  3.5564000  2
   7189   7211   7195   7199     1  0.0000000  0.4184000  3
   7189   7211   7195   7194     1  180.0000771  0.4184000  2
   7189   7211   7195   7194     1  0.0000000  1.6024720  3
   7190   7193   7194   7195     1  180.0000771  0.8368000  1
   7190   7193   7194   7195     1  180.0000771  1.0460000  2
   7190   7193   7194   7195     1  0.0000000  0.7531200  3
   7190   7193   7194   7200     1  0.0000000  0.6508444  3
   7190   7189   7203   7209     1  0.0000000  0.6508444  3
   7190   7189   7211   7195     1  180.0000771  0.4184000  2
   7190   7189   7211   7195     1  0.0000000  1.6024720  3
   7193   7194   7195   7199     1  0.0000000  0.6508444  3
   7193   7194   7195   7211     1  0.0000000  0.6508444  3
   7193   7190   7189   7203     1  180.0000771  0.8368000  1
   7193   7190   7189   7203     1  180.0000771  1.0460000  2
   7193   7190   7189   7203     1  0.0000000  0.7531200  3
   7193   7190   7189   7211     1  0.0000000  0.6508444  3
   7194   7193   7190   7202     1  0.0000000  0.6508444  3
   7195   7211   7189   7203     1  180.0000771  0.4184000  2
   7195   7211   7189   7203     1  0.0000000  1.6024720  3
   7195   7194   7193   7201     1  0.0000000  0.6508444  3
   7199   7195   7194   7200     1  0.0000000  4.9162000  2
   7199   7195   7194   7200     1  0.0000000  0.6024960  3
   7200   7194   7195   7211     1  0.0000000  4.9162000  2
   7200   7194   7195   7211     1  0.0000000  0.6024960  3
   7200   7194   7193   7201     1  0.0000000  4.9162000  2
   7200   7194   7193   7201     1  0.0000000  0.6024960  3
   7201   7193   7190   7202     1  0.0000000  4.9162000  2
   7201   7193   7190   7202     1  0.0000000  0.6024960  3
   7202   7190   7189   7203     1  0.0000000  0.6508444  3
   7202   7190   7189   7211     1  0.0000000  4.9162000  2
   7202   7190   7189   7211     1  0.0000000  0.6024960  3
   7209   7203   7189   7211     1  0.0000000  4.9162000  2
   7209   7203   7189   7211     1  0.0000000  0.6024960  3
   7212   7213   7216   7217     1  180.0000771  0.8368000  1
   7212   7213   7216   7217     1  180.0000771  1.0460000  2
   7212   7213   7216   7217     1  0.0000000  0.7531200  3
   7212   7213   7216   7224     1  0.0000000  0.6508444  3
   7212   7234   7218   7217     1  180.0000771  0.4184000  2
   7212   7234   7218   7217     1  0.0000000  1.6024720  3
   7212   7234   7218   7222     1  180.0000771  5.6484000  1
   7212   7234   7218   7222     1  180.0000771  3.5564000  2
   7212   7234   7218   7222     1  0.0000000  0.4184000  3
   7213   7212   7226   7232     1  0.0000000  0.6508444  3
   7213   7212   7234   7218     1  180.0000771  0.4184000  2
   7213   7212   7234   7218     1  0.0000000  1.6024720  3
   7213   7216   7217   7218     1  180.0000771  0.8368000  1
   7213   7216   7217   7218     1  180.0000771  1.0460000  2
   7213   7216   7217   7218     1  0.0000000  0.7531200  3
   7213   7216   7217   7223     1  0.0000000  0.6508444  3
   7216   7213   7212   7226     1  180.0000771  0.8368000  1
   7216   7213   7212   7226     1  180.0000771  1.0460000  2
   7216   7213   7212   7226     1  0.0000000  0.7531200  3
   7216   7213   7212   7234     1  0.0000000  0.6508444  3
   7216   7217   7218   7222     1  0.0000000  0.6508444  3
   7216   7217   7218   7234     1  0.0000000  0.6508444  3
   7217   7216   7213   7225     1  0.0000000  0.6508444  3
   7218   7217   7216   7224     1  0.0000000  0.6508444  3
   7218   7234   7212   7226     1  180.0000771  0.4184000  2
   7218   7234   7212   7226     1  0.0000000  1.6024720  3
   7222   7218   7217   7223     1  0.0000000  4.9162000  2
   7222   7218   7217   7223     1  0.0000000  0.6024960  3
   7223   7217   7216   7224     1  0.0000000  4.9162000  2
   7223   7217   7216   7224     1  0.0000000  0.6024960  3
   7223   7217   7218   7234     1  0.0000000  4.9162000  2
   7223   7217   7218   7234     1  0.0000000  0.6024960  3
   7224   7216   7213   7225     1  0.0000000  4.9162000  2
   7224   7216   7213   7225     1  0.0000000  0.6024960  3
   7225   7213   7212   7226     1  0.0000000  0.6508444  3
   7225   7213   7212   7234     1  0.0000000  4.9162000  2
   7225   7213   7212   7234     1  0.0000000  0.6024960  3
   7232   7226   7212   7234     1  0.0000000  4.9162000  2
   7232   7226   7212   7234     1  0.0000000  0.6024960  3
   7235   7236   7239   7240     1  180.0000771  0.8368000  1
   7235   7236   7239   7240     1  180.0000771  1.0460000  2
   7235   7236   7239   7240     1  0.0000000  0.7531200  3
   7235   7236   7239   7247     1  0.0000000  0.6508444  3
   7235   7257   7241   7245     1  180.0000771  5.6484000  1
   7235   7257   7241   7245     1  180.0000771  3.5564000  2
   7235   7257   7241   7245     1  0.0000000  0.4184000  3
   7235   7257   7241   7240     1  180.0000771  0.4184000  2
   7235   7257   7241   7240     1  0.0000000  1.6024720  3
   7236   7239   7240   7241     1  180.0000771  0.8368000  1
   7236   7239   7240   7241     1  180.0000771  1.0460000  2
   7236   7239   7240   7241     1  0.0000000  0.7531200  3
   7236   7239   7240   7246     1  0.0000000  0.6508444  3
   7236   7235   7249   7255     1  0.0000000  0.6508444  3
   7236   7235   7257   7241     1  180.0000771  0.4184000  2
   7236   7235   7257   7241     1  0.0000000  1.6024720  3
   7239   7240   7241   7245     1  0.0000000  0.6508444  3
   7239   7240   7241   7257     1  0.0000000  0.6508444  3
   7239   7236   7235   7249     1  180.0000771  0.8368000  1
   7239   7236   7235   7249     1  180.0000771  1.0460000  2
   7239   7236   7235   7249     1  0.0000000  0.7531200  3
   7239   7236   7235   7257     1  0.0000000  0.6508444  3
   7240   7239   7236   7248     1  0.0000000  0.6508444  3
   7241   7257   7235   7249     1  180.0000771  0.4184000  2
   7241   7257   7235   7249     1  0.0000000  1.6024720  3
   7241   7240   7239   7247     1  0.0000000  0.6508444  3
   7245   7241   7240   7246     1  0.0000000  4.9162000  2
   7245   7241   7240   7246     1  0.0000000  0.6024960  3
   7246   7240   7241   7257     1  0.0000000  4.9162000  2
   7246   7240   7241   7257     1  0.0000000  0.6024960  3
   7246   7240   7239   7247     1  0.0000000  4.9162000  2
   7246   7240   7239   7247     1  0.0000000  0.6024960  3
   7247   7239   7236   7248     1  0.0000000  4.9162000  2
   7247   7239   7236   7248     1  0.0000000  0.6024960  3
   7248   7236   7235   7249     1  0.0000000  0.6508444  3
   7248   7236   7235   7257     1  0.0000000  4.9162000  2
   7248   7236   7235   7257     1  0.0000000  0.6024960  3
   7255   7249   7235   7257     1  0.0000000  4.9162000  2
   7255   7249   7235   7257     1  0.0000000  0.6024960  3
   7258   7259   7262   7263     1  180.0000771  0.8368000  1
   7258   7259   7262   7263     1  180.0000771  1.0460000  2
   7258   7259   7262   7263     1  0.0000000  0.7531200  3
   7258   7259   7262   7270     1  0.0000000  0.6508444  3
   7258   7280   7264   7263     1  180.0000771  0.4184000  2
   7258   7280   7264   7263     1  0.0000000  1.6024720  3
   7258   7280   7264   7268     1  180.0000771  5.6484000  1
   7258   7280   7264   7268     1  180.0000771  3.5564000  2
   7258   7280   7264   7268     1  0.0000000  0.4184000  3
   7259   7258   7272   7278     1  0.0000000  0.6508444  3
   7259   7258   7280   7264     1  180.0000771  0.4184000  2
   7259   7258   7280   7264     1  0.0000000  1.6024720  3
   7259   7262   7263   7264     1  180.0000771  0.8368000  1
   7259   7262   7263   7264     1  180.0000771  1.0460000  2
   7259   7262   7263   7264     1  0.0000000  0.7531200  3
   7259   7262   7263   7269     1  0.0000000  0.6508444  3
   7262   7259   7258   7272     1  180.0000771  0.8368000  1
   7262   7259   7258   7272     1  180.0000771  1.0460000  2
   7262   7259   7258   7272     1  0.0000000  0.7531200  3
   7262   7259   7258   7280     1  0.0000000  0.6508444  3
   7262   7263   7264   7268     1  0.0000000  0.6508444  3
   7262   7263   7264   7280     1  0.0000000  0.6508444  3
   7263   7262   7259   7271     1  0.0000000  0.6508444  3
   7264   7263   7262   7270     1  0.0000000  0.6508444  3
   7264   7280   7258   7272     1  180.0000771  0.4184000  2
   7264   7280   7258   7272     1  0.0000000  1.6024720  3
   7268   7264   7263   7269     1  0.0000000  4.9162000  2
   7268   7264   7263   7269     1  0.0000000  0.6024960  3
   7269   7263   7262   7270     1  0.0000000  4.9162000  2
   7269   7263   7262   7270     1  0.0000000  0.6024960  3
   7269   7263   7264   7280     1  0.0000000  4.9162000  2
   7269   7263   7264   7280     1  0.0000000  0.6024960  3
   7270   7262   7259   7271     1  0.0000000  4.9162000  2
   7270   7262   7259   7271     1  0.0000000  0.6024960  3
   7271   7259   7258   7272     1  0.0000000  0.6508444  3
   7271   7259   7258   7280     1  0.0000000  4.9162000  2
   7271   7259   7258   7280     1  0.0000000  0.6024960  3
   7278   7272   7258   7280     1  0.0000000  4.9162000  2
   7278   7272   7258   7280     1  0.0000000  0.6024960  3
   7281   7282   7285   7286     1  180.0000771  0.8368000  1
   7281   7282   7285   7286     1  180.0000771  1.0460000  2
   7281   7282   7285   7286     1  0.0000000  0.7531200  3
   7281   7282   7285   7293     1  0.0000000  0.6508444  3
   7281   7303   7287   7291     1  180.0000771  5.6484000  1
   7281   7303   7287   7291     1  180.0000771  3.5564000  2
   7281   7303   7287   7291     1  0.0000000  0.4184000  3
   7281   7303   7287   7286     1  180.0000771  0.4184000  2
   7281   7303   7287   7286     1  0.0000000  1.6024720  3
   7282   7285   7286   7287     1  180.0000771  0.8368000  1
   7282   7285   7286   7287     1  180.0000771  1.0460000  2
   7282   7285   7286   7287     1  0.0000000  0.7531200  3
   7282   7285   7286   7292     1  0.0000000  0.6508444  3
   7282   7281   7295   7301     1  0.0000000  0.6508444  3
   7282   7281   7303   7287     1  180.0000771  0.4184000  2
   7282   7281   7303   7287     1  0.0000000  1.6024720  3
   7285   7286   7287   7291     1  0.0000000  0.6508444  3
   7285   7286   7287   7303     1  0.0000000  0.6508444  3
   7285   7282   7281   7295     1  180.0000771  0.8368000  1
   7285   7282   7281   7295     1  180.0000771  1.0460000  2
   7285   7282   7281   7295     1  0.0000000  0.7531200  3
   7285   7282   7281   7303     1  0.0000000  0.6508444  3
   7286   7285   7282   7294     1  0.0000000  0.6508444  3
   7287   7303   7281   7295     1  180.0000771  0.4184000  2
   7287   7303   7281   7295     1  0.0000000  1.6024720  3
   7287   7286   7285   7293     1  0.0000000  0.6508444  3
   7291   7287   7286   7292     1  0.0000000  4.9162000  2
   7291   7287   7286   7292     1  0.0000000  0.6024960  3
   7292   7286   7287   7303     1  0.0000000  4.9162000  2
   7292   7286   7287   7303     1  0.0000000  0.6024960  3
   7292   7286   7285   7293     1  0.0000000  4.9162000  2
   7292   7286   7285   7293     1  0.0000000  0.6024960  3
   7293   7285   7282   7294     1  0.0000000  4.9162000  2
   7293   7285   7282   7294     1  0.0000000  0.6024960  3
   7294   7282   7281   7295     1  0.0000000  0.6508444  3
   7294   7282   7281   7303     1  0.0000000  4.9162000  2
   7294   7282   7281   7303     1  0.0000000  0.6024960  3
   7301   7295   7281   7303     1  0.0000000  4.9162000  2
   7301   7295   7281   7303     1  0.0000000  0.6024960  3
   7304   7305   7308   7309     1  180.0000771  0.8368000  1
   7304   7305   7308   7309     1  180.0000771  1.0460000  2
   7304   7305   7308   7309     1  0.0000000  0.7531200  3
   7304   7305   7308   7316     1  0.0000000  0.6508444  3
   7304   7326   7310   7309     1  180.0000771  0.4184000  2
   7304   7326   7310   7309     1  0.0000000  1.6024720  3
   7304   7326   7310   7314     1  180.0000771  5.6484000  1
   7304   7326   7310   7314     1  180.0000771  3.5564000  2
   7304   7326   7310   7314     1  0.0000000  0.4184000  3
   7305   7304   7318   7324     1  0.0000000  0.6508444  3
   7305   7304   7326   7310     1  180.0000771  0.4184000  2
   7305   7304   7326   7310     1  0.0000000  1.6024720  3
   7305   7308   7309   7310     1  180.0000771  0.8368000  1
   7305   7308   7309   7310     1  180.0000771  1.0460000  2
   7305   7308   7309   7310     1  0.0000000  0.7531200  3
   7305   7308   7309   7315     1  0.0000000  0.6508444  3
   7308   7305   7304   7318     1  180.0000771  0.8368000  1
   7308   7305   7304   7318     1  180.0000771  1.0460000  2
   7308   7305   7304   7318     1  0.0000000  0.7531200  3
   7308   7305   7304   7326     1  0.0000000  0.6508444  3
   7308   7309   7310   7314     1  0.0000000  0.6508444  3
   7308   7309   7310   7326     1  0.0000000  0.6508444  3
   7309   7308   7305   7317     1  0.0000000  0.6508444  3
   7310   7309   7308   7316     1  0.0000000  0.6508444  3
   7310   7326   7304   7318     1  180.0000771  0.4184000  2
   7310   7326   7304   7318     1  0.0000000  1.6024720  3
   7314   7310   7309   7315     1  0.0000000  4.9162000  2
   7314   7310   7309   7315     1  0.0000000  0.6024960  3
   7315   7309   7308   7316     1  0.0000000  4.9162000  2
   7315   7309   7308   7316     1  0.0000000  0.6024960  3
   7315   7309   7310   7326     1  0.0000000  4.9162000  2
   7315   7309   7310   7326     1  0.0000000  0.6024960  3
   7316   7308   7305   7317     1  0.0000000  4.9162000  2
   7316   7308   7305   7317     1  0.0000000  0.6024960  3
   7317   7305   7304   7318     1  0.0000000  0.6508444  3
   7317   7305   7304   7326     1  0.0000000  4.9162000  2
   7317   7305   7304   7326     1  0.0000000  0.6024960  3
   7324   7318   7304   7326     1  0.0000000  4.9162000  2
   7324   7318   7304   7326     1  0.0000000  0.6024960  3
   7327   7328   7331   7332     1  180.0000771  0.8368000  1
   7327   7328   7331   7332     1  180.0000771  1.0460000  2
   7327   7328   7331   7332     1  0.0000000  0.7531200  3
   7327   7328   7331   7339     1  0.0000000  0.6508444  3
   7327   7349   7333   7337     1  180.0000771  5.6484000  1
   7327   7349   7333   7337     1  180.0000771  3.5564000  2
   7327   7349   7333   7337     1  0.0000000  0.4184000  3
   7327   7349   7333   7332     1  180.0000771  0.4184000  2
   7327   7349   7333   7332     1  0.0000000  1.6024720  3
   7328   7331   7332   7333     1  180.0000771  0.8368000  1
   7328   7331   7332   7333     1  180.0000771  1.0460000  2
   7328   7331   7332   7333     1  0.0000000  0.7531200  3
   7328   7331   7332   7338     1  0.0000000  0.6508444  3
   7328   7327   7341   7347     1  0.0000000  0.6508444  3
   7328   7327   7349   7333     1  180.0000771  0.4184000  2
   7328   7327   7349   7333     1  0.0000000  1.6024720  3
   7331   7332   7333   7337     1  0.0000000  0.6508444  3
   7331   7332   7333   7349     1  0.0000000  0.6508444  3
   7331   7328   7327   7341     1  180.0000771  0.8368000  1
   7331   7328   7327   7341     1  180.0000771  1.0460000  2
   7331   7328   7327   7341     1  0.0000000  0.7531200  3
   7331   7328   7327   7349     1  0.0000000  0.6508444  3
   7332   7331   7328   7340     1  0.0000000  0.6508444  3
   7333   7349   7327   7341     1  180.0000771  0.4184000  2
   7333   7349   7327   7341     1  0.0000000  1.6024720  3
   7333   7332   7331   7339     1  0.0000000  0.6508444  3
   7337   7333   7332   7338     1  0.0000000  4.9162000  2
   7337   7333   7332   7338     1  0.0000000  0.6024960  3
   7338   7332   7333   7349     1  0.0000000  4.9162000  2
   7338   7332   7333   7349     1  0.0000000  0.6024960  3
   7338   7332   7331   7339     1  0.0000000  4.9162000  2
   7338   7332   7331   7339     1  0.0000000  0.6024960  3
   7339   7331   7328   7340     1  0.0000000  4.9162000  2
   7339   7331   7328   7340     1  0.0000000  0.6024960  3
   7340   7328   7327   7341     1  0.0000000  0.6508444  3
   7340   7328   7327   7349     1  0.0000000  4.9162000  2
   7340   7328   7327   7349     1  0.0000000  0.6024960  3
   7347   7341   7327   7349     1  0.0000000  4.9162000  2
   7347   7341   7327   7349     1  0.0000000  0.6024960  3
   7350   7351   7354   7355     1  180.0000771  0.8368000  1
   7350   7351   7354   7355     1  180.0000771  1.0460000  2
   7350   7351   7354   7355     1  0.0000000  0.7531200  3
   7350   7351   7354   7362     1  0.0000000  0.6508444  3
   7350   7372   7356   7355     1  180.0000771  0.4184000  2
   7350   7372   7356   7355     1  0.0000000  1.6024720  3
   7350   7372   7356   7360     1  180.0000771  5.6484000  1
   7350   7372   7356   7360     1  180.0000771  3.5564000  2
   7350   7372   7356   7360     1  0.0000000  0.4184000  3
   7351   7350   7364   7370     1  0.0000000  0.6508444  3
   7351   7350   7372   7356     1  180.0000771  0.4184000  2
   7351   7350   7372   7356     1  0.0000000  1.6024720  3
   7351   7354   7355   7356     1  180.0000771  0.8368000  1
   7351   7354   7355   7356     1  180.0000771  1.0460000  2
   7351   7354   7355   7356     1  0.0000000  0.7531200  3
   7351   7354   7355   7361     1  0.0000000  0.6508444  3
   7354   7351   7350   7364     1  180.0000771  0.8368000  1
   7354   7351   7350   7364     1  180.0000771  1.0460000  2
   7354   7351   7350   7364     1  0.0000000  0.7531200  3
   7354   7351   7350   7372     1  0.0000000  0.6508444  3
   7354   7355   7356   7360     1  0.0000000  0.6508444  3
   7354   7355   7356   7372     1  0.0000000  0.6508444  3
   7355   7354   7351   7363     1  0.0000000  0.6508444  3
   7356   7355   7354   7362     1  0.0000000  0.6508444  3
   7356   7372   7350   7364     1  180.0000771  0.4184000  2
   7356   7372   7350   7364     1  0.0000000  1.6024720  3
   7360   7356   7355   7361     1  0.0000000  4.9162000  2
   7360   7356   7355   7361     1  0.0000000  0.6024960  3
   7361   7355   7354   7362     1  0.0000000  4.9162000  2
   7361   7355   7354   7362     1  0.0000000  0.6024960  3
   7361   7355   7356   7372     1  0.0000000  4.9162000  2
   7361   7355   7356   7372     1  0.0000000  0.6024960  3
   7362   7354   7351   7363     1  0.0000000  4.9162000  2
   7362   7354   7351   7363     1  0.0000000  0.6024960  3
   7363   7351   7350   7364     1  0.0000000  0.6508444  3
   7363   7351   7350   7372     1  0.0000000  4.9162000  2
   7363   7351   7350   7372     1  0.0000000  0.6024960  3
   7370   7364   7350   7372     1  0.0000000  4.9162000  2
   7370   7364   7350   7372     1  0.0000000  0.6024960  3
   7373   7374   7377   7378     1  180.0000771  0.8368000  1
   7373   7374   7377   7378     1  180.0000771  1.0460000  2
   7373   7374   7377   7378     1  0.0000000  0.7531200  3
   7373   7374   7377   7385     1  0.0000000  0.6508444  3
   7373   7395   7379   7383     1  180.0000771  5.6484000  1
   7373   7395   7379   7383     1  180.0000771  3.5564000  2
   7373   7395   7379   7383     1  0.0000000  0.4184000  3
   7373   7395   7379   7378     1  180.0000771  0.4184000  2
   7373   7395   7379   7378     1  0.0000000  1.6024720  3
   7374   7377   7378   7379     1  180.0000771  0.8368000  1
   7374   7377   7378   7379     1  180.0000771  1.0460000  2
   7374   7377   7378   7379     1  0.0000000  0.7531200  3
   7374   7377   7378   7384     1  0.0000000  0.6508444  3
   7374   7373   7387   7393     1  0.0000000  0.6508444  3
   7374   7373   7395   7379     1  180.0000771  0.4184000  2
   7374   7373   7395   7379     1  0.0000000  1.6024720  3
   7377   7378   7379   7383     1  0.0000000  0.6508444  3
   7377   7378   7379   7395     1  0.0000000  0.6508444  3
   7377   7374   7373   7387     1  180.0000771  0.8368000  1
   7377   7374   7373   7387     1  180.0000771  1.0460000  2
   7377   7374   7373   7387     1  0.0000000  0.7531200  3
   7377   7374   7373   7395     1  0.0000000  0.6508444  3
   7378   7377   7374   7386     1  0.0000000  0.6508444  3
   7379   7395   7373   7387     1  180.0000771  0.4184000  2
   7379   7395   7373   7387     1  0.0000000  1.6024720  3
   7379   7378   7377   7385     1  0.0000000  0.6508444  3
   7383   7379   7378   7384     1  0.0000000  4.9162000  2
   7383   7379   7378   7384     1  0.0000000  0.6024960  3
   7384   7378   7379   7395     1  0.0000000  4.9162000  2
   7384   7378   7379   7395     1  0.0000000  0.6024960  3
   7384   7378   7377   7385     1  0.0000000  4.9162000  2
   7384   7378   7377   7385     1  0.0000000  0.6024960  3
   7385   7377   7374   7386     1  0.0000000  4.9162000  2
   7385   7377   7374   7386     1  0.0000000  0.6024960  3
   7386   7374   7373   7387     1  0.0000000  0.6508444  3
   7386   7374   7373   7395     1  0.0000000  4.9162000  2
   7386   7374   7373   7395     1  0.0000000  0.6024960  3
   7393   7387   7373   7395     1  0.0000000  4.9162000  2
   7393   7387   7373   7395     1  0.0000000  0.6024960  3
   7396   7397   7400   7401     1  180.0000771  0.8368000  1
   7396   7397   7400   7401     1  180.0000771  1.0460000  2
   7396   7397   7400   7401     1  0.0000000  0.7531200  3
   7396   7397   7400   7408     1  0.0000000  0.6508444  3
   7396   7418   7402   7401     1  180.0000771  0.4184000  2
   7396   7418   7402   7401     1  0.0000000  1.6024720  3
   7396   7418   7402   7406     1  180.0000771  5.6484000  1
   7396   7418   7402   7406     1  180.0000771  3.5564000  2
   7396   7418   7402   7406     1  0.0000000  0.4184000  3
   7397   7396   7410   7416     1  0.0000000  0.6508444  3
   7397   7396   7418   7402     1  180.0000771  0.4184000  2
   7397   7396   7418   7402     1  0.0000000  1.6024720  3
   7397   7400   7401   7402     1  180.0000771  0.8368000  1
   7397   7400   7401   7402     1  180.0000771  1.0460000  2
   7397   7400   7401   7402     1  0.0000000  0.7531200  3
   7397   7400   7401   7407     1  0.0000000  0.6508444  3
   7400   7397   7396   7410     1  180.0000771  0.8368000  1
   7400   7397   7396   7410     1  180.0000771  1.0460000  2
   7400   7397   7396   7410     1  0.0000000  0.7531200  3
   7400   7397   7396   7418     1  0.0000000  0.6508444  3
   7400   7401   7402   7406     1  0.0000000  0.6508444  3
   7400   7401   7402   7418     1  0.0000000  0.6508444  3
   7401   7400   7397   7409     1  0.0000000  0.6508444  3
   7402   7401   7400   7408     1  0.0000000  0.6508444  3
   7402   7418   7396   7410     1  180.0000771  0.4184000  2
   7402   7418   7396   7410     1  0.0000000  1.6024720  3
   7406   7402   7401   7407     1  0.0000000  4.9162000  2
   7406   7402   7401   7407     1  0.0000000  0.6024960  3
   7407   7401   7400   7408     1  0.0000000  4.9162000  2
   7407   7401   7400   7408     1  0.0000000  0.6024960  3
   7407   7401   7402   7418     1  0.0000000  4.9162000  2
   7407   7401   7402   7418     1  0.0000000  0.6024960  3
   7408   7400   7397   7409     1  0.0000000  4.9162000  2
   7408   7400   7397   7409     1  0.0000000  0.6024960  3
   7409   7397   7396   7410     1  0.0000000  0.6508444  3
   7409   7397   7396   7418     1  0.0000000  4.9162000  2
   7409   7397   7396   7418     1  0.0000000  0.6024960  3
   7416   7410   7396   7418     1  0.0000000  4.9162000  2
   7416   7410   7396   7418     1  0.0000000  0.6024960  3
   7419   7420   7423   7424     1  180.0000771  0.8368000  1
   7419   7420   7423   7424     1  180.0000771  1.0460000  2
   7419   7420   7423   7424     1  0.0000000  0.7531200  3
   7419   7420   7423   7431     1  0.0000000  0.6508444  3
   7419   7441   7425   7429     1  180.0000771  5.6484000  1
   7419   7441   7425   7429     1  180.0000771  3.5564000  2
   7419   7441   7425   7429     1  0.0000000  0.4184000  3
   7419   7441   7425   7424     1  180.0000771  0.4184000  2
   7419   7441   7425   7424     1  0.0000000  1.6024720  3
   7420   7423   7424   7425     1  180.0000771  0.8368000  1
   7420   7423   7424   7425     1  180.0000771  1.0460000  2
   7420   7423   7424   7425     1  0.0000000  0.7531200  3
   7420   7423   7424   7430     1  0.0000000  0.6508444  3
   7420   7419   7433   7439     1  0.0000000  0.6508444  3
   7420   7419   7441   7425     1  180.0000771  0.4184000  2
   7420   7419   7441   7425     1  0.0000000  1.6024720  3
   7423   7424   7425   7429     1  0.0000000  0.6508444  3
   7423   7424   7425   7441     1  0.0000000  0.6508444  3
   7423   7420   7419   7433     1  180.0000771  0.8368000  1
   7423   7420   7419   7433     1  180.0000771  1.0460000  2
   7423   7420   7419   7433     1  0.0000000  0.7531200  3
   7423   7420   7419   7441     1  0.0000000  0.6508444  3
   7424   7423   7420   7432     1  0.0000000  0.6508444  3
   7425   7441   7419   7433     1  180.0000771  0.4184000  2
   7425   7441   7419   7433     1  0.0000000  1.6024720  3
   7425   7424   7423   7431     1  0.0000000  0.6508444  3
   7429   7425   7424   7430     1  0.0000000  4.9162000  2
   7429   7425   7424   7430     1  0.0000000  0.6024960  3
   7430   7424   7425   7441     1  0.0000000  4.9162000  2
   7430   7424   7425   7441     1  0.0000000  0.6024960  3
   7430   7424   7423   7431     1  0.0000000  4.9162000  2
   7430   7424   7423   7431     1  0.0000000  0.6024960  3
   7431   7423   7420   7432     1  0.0000000  4.9162000  2
   7431   7423   7420   7432     1  0.0000000  0.6024960  3
   7432   7420   7419   7433     1  0.0000000  0.6508444  3
   7432   7420   7419   7441     1  0.0000000  4.9162000  2
   7432   7420   7419   7441     1  0.0000000  0.6024960  3
   7439   7433   7419   7441     1  0.0000000  4.9162000  2
   7439   7433   7419   7441     1  0.0000000  0.6024960  3
   7442   7443   7446   7447     1  180.0000771  0.8368000  1
   7442   7443   7446   7447     1  180.0000771  1.0460000  2
   7442   7443   7446   7447     1  0.0000000  0.7531200  3
   7442   7443   7446   7454     1  0.0000000  0.6508444  3
   7442   7464   7448   7447     1  180.0000771  0.4184000  2
   7442   7464   7448   7447     1  0.0000000  1.6024720  3
   7442   7464   7448   7452     1  180.0000771  5.6484000  1
   7442   7464   7448   7452     1  180.0000771  3.5564000  2
   7442   7464   7448   7452     1  0.0000000  0.4184000  3
   7443   7442   7456   7462     1  0.0000000  0.6508444  3
   7443   7442   7464   7448     1  180.0000771  0.4184000  2
   7443   7442   7464   7448     1  0.0000000  1.6024720  3
   7443   7446   7447   7448     1  180.0000771  0.8368000  1
   7443   7446   7447   7448     1  180.0000771  1.0460000  2
   7443   7446   7447   7448     1  0.0000000  0.7531200  3
   7443   7446   7447   7453     1  0.0000000  0.6508444  3
   7446   7443   7442   7456     1  180.0000771  0.8368000  1
   7446   7443   7442   7456     1  180.0000771  1.0460000  2
   7446   7443   7442   7456     1  0.0000000  0.7531200  3
   7446   7443   7442   7464     1  0.0000000  0.6508444  3
   7446   7447   7448   7452     1  0.0000000  0.6508444  3
   7446   7447   7448   7464     1  0.0000000  0.6508444  3
   7447   7446   7443   7455     1  0.0000000  0.6508444  3
   7448   7447   7446   7454     1  0.0000000  0.6508444  3
   7448   7464   7442   7456     1  180.0000771  0.4184000  2
   7448   7464   7442   7456     1  0.0000000  1.6024720  3
   7452   7448   7447   7453     1  0.0000000  4.9162000  2
   7452   7448   7447   7453     1  0.0000000  0.6024960  3
   7453   7447   7446   7454     1  0.0000000  4.9162000  2
   7453   7447   7446   7454     1  0.0000000  0.6024960  3
   7453   7447   7448   7464     1  0.0000000  4.9162000  2
   7453   7447   7448   7464     1  0.0000000  0.6024960  3
   7454   7446   7443   7455     1  0.0000000  4.9162000  2
   7454   7446   7443   7455     1  0.0000000  0.6024960  3
   7455   7443   7442   7456     1  0.0000000  0.6508444  3
   7455   7443   7442   7464     1  0.0000000  4.9162000  2
   7455   7443   7442   7464     1  0.0000000  0.6024960  3
   7462   7456   7442   7464     1  0.0000000  4.9162000  2
   7462   7456   7442   7464     1  0.0000000  0.6024960  3
   7465   7466   7469   7470     1  180.0000771  0.8368000  1
   7465   7466   7469   7470     1  180.0000771  1.0460000  2
   7465   7466   7469   7470     1  0.0000000  0.7531200  3
   7465   7466   7469   7477     1  0.0000000  0.6508444  3
   7465   7487   7471   7475     1  180.0000771  5.6484000  1
   7465   7487   7471   7475     1  180.0000771  3.5564000  2
   7465   7487   7471   7475     1  0.0000000  0.4184000  3
   7465   7487   7471   7470     1  180.0000771  0.4184000  2
   7465   7487   7471   7470     1  0.0000000  1.6024720  3
   7466   7469   7470   7471     1  180.0000771  0.8368000  1
   7466   7469   7470   7471     1  180.0000771  1.0460000  2
   7466   7469   7470   7471     1  0.0000000  0.7531200  3
   7466   7469   7470   7476     1  0.0000000  0.6508444  3
   7466   7465   7479   7485     1  0.0000000  0.6508444  3
   7466   7465   7487   7471     1  180.0000771  0.4184000  2
   7466   7465   7487   7471     1  0.0000000  1.6024720  3
   7469   7470   7471   7475     1  0.0000000  0.6508444  3
   7469   7470   7471   7487     1  0.0000000  0.6508444  3
   7469   7466   7465   7479     1  180.0000771  0.8368000  1
   7469   7466   7465   7479     1  180.0000771  1.0460000  2
   7469   7466   7465   7479     1  0.0000000  0.7531200  3
   7469   7466   7465   7487     1  0.0000000  0.6508444  3
   7470   7469   7466   7478     1  0.0000000  0.6508444  3
   7471   7487   7465   7479     1  180.0000771  0.4184000  2
   7471   7487   7465   7479     1  0.0000000  1.6024720  3
   7471   7470   7469   7477     1  0.0000000  0.6508444  3
   7475   7471   7470   7476     1  0.0000000  4.9162000  2
   7475   7471   7470   7476     1  0.0000000  0.6024960  3
   7476   7470   7471   7487     1  0.0000000  4.9162000  2
   7476   7470   7471   7487     1  0.0000000  0.6024960  3
   7476   7470   7469   7477     1  0.0000000  4.9162000  2
   7476   7470   7469   7477     1  0.0000000  0.6024960  3
   7477   7469   7466   7478     1  0.0000000  4.9162000  2
   7477   7469   7466   7478     1  0.0000000  0.6024960  3
   7478   7466   7465   7479     1  0.0000000  0.6508444  3
   7478   7466   7465   7487     1  0.0000000  4.9162000  2
   7478   7466   7465   7487     1  0.0000000  0.6024960  3
   7485   7479   7465   7487     1  0.0000000  4.9162000  2
   7485   7479   7465   7487     1  0.0000000  0.6024960  3
   7488   7489   7492   7493     1  180.0000771  0.8368000  1
   7488   7489   7492   7493     1  180.0000771  1.0460000  2
   7488   7489   7492   7493     1  0.0000000  0.7531200  3
   7488   7489   7492   7500     1  0.0000000  0.6508444  3
   7488   7510   7494   7493     1  180.0000771  0.4184000  2
   7488   7510   7494   7493     1  0.0000000  1.6024720  3
   7488   7510   7494   7498     1  180.0000771  5.6484000  1
   7488   7510   7494   7498     1  180.0000771  3.5564000  2
   7488   7510   7494   7498     1  0.0000000  0.4184000  3
   7489   7488   7502   7508     1  0.0000000  0.6508444  3
   7489   7488   7510   7494     1  180.0000771  0.4184000  2
   7489   7488   7510   7494     1  0.0000000  1.6024720  3
   7489   7492   7493   7494     1  180.0000771  0.8368000  1
   7489   7492   7493   7494     1  180.0000771  1.0460000  2
   7489   7492   7493   7494     1  0.0000000  0.7531200  3
   7489   7492   7493   7499     1  0.0000000  0.6508444  3
   7492   7489   7488   7502     1  180.0000771  0.8368000  1
   7492   7489   7488   7502     1  180.0000771  1.0460000  2
   7492   7489   7488   7502     1  0.0000000  0.7531200  3
   7492   7489   7488   7510     1  0.0000000  0.6508444  3
   7492   7493   7494   7498     1  0.0000000  0.6508444  3
   7492   7493   7494   7510     1  0.0000000  0.6508444  3
   7493   7492   7489   7501     1  0.0000000  0.6508444  3
   7494   7493   7492   7500     1  0.0000000  0.6508444  3
   7494   7510   7488   7502     1  180.0000771  0.4184000  2
   7494   7510   7488   7502     1  0.0000000  1.6024720  3
   7498   7494   7493   7499     1  0.0000000  4.9162000  2
   7498   7494   7493   7499     1  0.0000000  0.6024960  3
   7499   7493   7492   7500     1  0.0000000  4.9162000  2
   7499   7493   7492   7500     1  0.0000000  0.6024960  3
   7499   7493   7494   7510     1  0.0000000  4.9162000  2
   7499   7493   7494   7510     1  0.0000000  0.6024960  3
   7500   7492   7489   7501     1  0.0000000  4.9162000  2
   7500   7492   7489   7501     1  0.0000000  0.6024960  3
   7501   7489   7488   7502     1  0.0000000  0.6508444  3
   7501   7489   7488   7510     1  0.0000000  4.9162000  2
   7501   7489   7488   7510     1  0.0000000  0.6024960  3
   7508   7502   7488   7510     1  0.0000000  4.9162000  2
   7508   7502   7488   7510     1  0.0000000  0.6024960  3
   7511   7512   7515   7516     1  180.0000771  0.8368000  1
   7511   7512   7515   7516     1  180.0000771  1.0460000  2
   7511   7512   7515   7516     1  0.0000000  0.7531200  3
   7511   7512   7515   7523     1  0.0000000  0.6508444  3
   7511   7533   7517   7521     1  180.0000771  5.6484000  1
   7511   7533   7517   7521     1  180.0000771  3.5564000  2
   7511   7533   7517   7521     1  0.0000000  0.4184000  3
   7511   7533   7517   7516     1  180.0000771  0.4184000  2
   7511   7533   7517   7516     1  0.0000000  1.6024720  3
   7512   7515   7516   7517     1  180.0000771  0.8368000  1
   7512   7515   7516   7517     1  180.0000771  1.0460000  2
   7512   7515   7516   7517     1  0.0000000  0.7531200  3
   7512   7515   7516   7522     1  0.0000000  0.6508444  3
   7512   7511   7525   7531     1  0.0000000  0.6508444  3
   7512   7511   7533   7517     1  180.0000771  0.4184000  2
   7512   7511   7533   7517     1  0.0000000  1.6024720  3
   7515   7516   7517   7521     1  0.0000000  0.6508444  3
   7515   7516   7517   7533     1  0.0000000  0.6508444  3
   7515   7512   7511   7525     1  180.0000771  0.8368000  1
   7515   7512   7511   7525     1  180.0000771  1.0460000  2
   7515   7512   7511   7525     1  0.0000000  0.7531200  3
   7515   7512   7511   7533     1  0.0000000  0.6508444  3
   7516   7515   7512   7524     1  0.0000000  0.6508444  3
   7517   7533   7511   7525     1  180.0000771  0.4184000  2
   7517   7533   7511   7525     1  0.0000000  1.6024720  3
   7517   7516   7515   7523     1  0.0000000  0.6508444  3
   7521   7517   7516   7522     1  0.0000000  4.9162000  2
   7521   7517   7516   7522     1  0.0000000  0.6024960  3
   7522   7516   7517   7533     1  0.0000000  4.9162000  2
   7522   7516   7517   7533     1  0.0000000  0.6024960  3
   7522   7516   7515   7523     1  0.0000000  4.9162000  2
   7522   7516   7515   7523     1  0.0000000  0.6024960  3
   7523   7515   7512   7524     1  0.0000000  4.9162000  2
   7523   7515   7512   7524     1  0.0000000  0.6024960  3
   7524   7512   7511   7525     1  0.0000000  0.6508444  3
   7524   7512   7511   7533     1  0.0000000  4.9162000  2
   7524   7512   7511   7533     1  0.0000000  0.6024960  3
   7531   7525   7511   7533     1  0.0000000  4.9162000  2
   7531   7525   7511   7533     1  0.0000000  0.6024960  3
   7534   7535   7538   7539     1  180.0000771  0.8368000  1
   7534   7535   7538   7539     1  180.0000771  1.0460000  2
   7534   7535   7538   7539     1  0.0000000  0.7531200  3
   7534   7535   7538   7546     1  0.0000000  0.6508444  3
   7534   7556   7540   7539     1  180.0000771  0.4184000  2
   7534   7556   7540   7539     1  0.0000000  1.6024720  3
   7534   7556   7540   7544     1  180.0000771  5.6484000  1
   7534   7556   7540   7544     1  180.0000771  3.5564000  2
   7534   7556   7540   7544     1  0.0000000  0.4184000  3
   7535   7534   7548   7554     1  0.0000000  0.6508444  3
   7535   7534   7556   7540     1  180.0000771  0.4184000  2
   7535   7534   7556   7540     1  0.0000000  1.6024720  3
   7535   7538   7539   7540     1  180.0000771  0.8368000  1
   7535   7538   7539   7540     1  180.0000771  1.0460000  2
   7535   7538   7539   7540     1  0.0000000  0.7531200  3
   7535   7538   7539   7545     1  0.0000000  0.6508444  3
   7538   7535   7534   7548     1  180.0000771  0.8368000  1
   7538   7535   7534   7548     1  180.0000771  1.0460000  2
   7538   7535   7534   7548     1  0.0000000  0.7531200  3
   7538   7535   7534   7556     1  0.0000000  0.6508444  3
   7538   7539   7540   7544     1  0.0000000  0.6508444  3
   7538   7539   7540   7556     1  0.0000000  0.6508444  3
   7539   7538   7535   7547     1  0.0000000  0.6508444  3
   7540   7539   7538   7546     1  0.0000000  0.6508444  3
   7540   7556   7534   7548     1  180.0000771  0.4184000  2
   7540   7556   7534   7548     1  0.0000000  1.6024720  3
   7544   7540   7539   7545     1  0.0000000  4.9162000  2
   7544   7540   7539   7545     1  0.0000000  0.6024960  3
   7545   7539   7538   7546     1  0.0000000  4.9162000  2
   7545   7539   7538   7546     1  0.0000000  0.6024960  3
   7545   7539   7540   7556     1  0.0000000  4.9162000  2
   7545   7539   7540   7556     1  0.0000000  0.6024960  3
   7546   7538   7535   7547     1  0.0000000  4.9162000  2
   7546   7538   7535   7547     1  0.0000000  0.6024960  3
   7547   7535   7534   7548     1  0.0000000  0.6508444  3
   7547   7535   7534   7556     1  0.0000000  4.9162000  2
   7547   7535   7534   7556     1  0.0000000  0.6024960  3
   7554   7548   7534   7556     1  0.0000000  4.9162000  2
   7554   7548   7534   7556     1  0.0000000  0.6024960  3
   7557   7558   7561   7562     1  180.0000771  0.8368000  1
   7557   7558   7561   7562     1  180.0000771  1.0460000  2
   7557   7558   7561   7562     1  0.0000000  0.7531200  3
   7557   7558   7561   7569     1  0.0000000  0.6508444  3
   7557   7579   7563   7567     1  180.0000771  5.6484000  1
   7557   7579   7563   7567     1  180.0000771  3.5564000  2
   7557   7579   7563   7567     1  0.0000000  0.4184000  3
   7557   7579   7563   7562     1  180.0000771  0.4184000  2
   7557   7579   7563   7562     1  0.0000000  1.6024720  3
   7558   7561   7562   7563     1  180.0000771  0.8368000  1
   7558   7561   7562   7563     1  180.0000771  1.0460000  2
   7558   7561   7562   7563     1  0.0000000  0.7531200  3
   7558   7561   7562   7568     1  0.0000000  0.6508444  3
   7558   7557   7571   7577     1  0.0000000  0.6508444  3
   7558   7557   7579   7563     1  180.0000771  0.4184000  2
   7558   7557   7579   7563     1  0.0000000  1.6024720  3
   7561   7562   7563   7567     1  0.0000000  0.6508444  3
   7561   7562   7563   7579     1  0.0000000  0.6508444  3
   7561   7558   7557   7571     1  180.0000771  0.8368000  1
   7561   7558   7557   7571     1  180.0000771  1.0460000  2
   7561   7558   7557   7571     1  0.0000000  0.7531200  3
   7561   7558   7557   7579     1  0.0000000  0.6508444  3
   7562   7561   7558   7570     1  0.0000000  0.6508444  3
   7563   7579   7557   7571     1  180.0000771  0.4184000  2
   7563   7579   7557   7571     1  0.0000000  1.6024720  3
   7563   7562   7561   7569     1  0.0000000  0.6508444  3
   7567   7563   7562   7568     1  0.0000000  4.9162000  2
   7567   7563   7562   7568     1  0.0000000  0.6024960  3
   7568   7562   7563   7579     1  0.0000000  4.9162000  2
   7568   7562   7563   7579     1  0.0000000  0.6024960  3
   7568   7562   7561   7569     1  0.0000000  4.9162000  2
   7568   7562   7561   7569     1  0.0000000  0.6024960  3
   7569   7561   7558   7570     1  0.0000000  4.9162000  2
   7569   7561   7558   7570     1  0.0000000  0.6024960  3
   7570   7558   7557   7571     1  0.0000000  0.6508444  3
   7570   7558   7557   7579     1  0.0000000  4.9162000  2
   7570   7558   7557   7579     1  0.0000000  0.6024960  3
   7577   7571   7557   7579     1  0.0000000  4.9162000  2
   7577   7571   7557   7579     1  0.0000000  0.6024960  3
   7580   7581   7584   7585     1  180.0000771  0.8368000  1
   7580   7581   7584   7585     1  180.0000771  1.0460000  2
   7580   7581   7584   7585     1  0.0000000  0.7531200  3
   7580   7581   7584   7592     1  0.0000000  0.6508444  3
   7580   7602   7586   7585     1  180.0000771  0.4184000  2
   7580   7602   7586   7585     1  0.0000000  1.6024720  3
   7580   7602   7586   7590     1  180.0000771  5.6484000  1
   7580   7602   7586   7590     1  180.0000771  3.5564000  2
   7580   7602   7586   7590     1  0.0000000  0.4184000  3
   7581   7580   7594   7600     1  0.0000000  0.6508444  3
   7581   7580   7602   7586     1  180.0000771  0.4184000  2
   7581   7580   7602   7586     1  0.0000000  1.6024720  3
   7581   7584   7585   7586     1  180.0000771  0.8368000  1
   7581   7584   7585   7586     1  180.0000771  1.0460000  2
   7581   7584   7585   7586     1  0.0000000  0.7531200  3
   7581   7584   7585   7591     1  0.0000000  0.6508444  3
   7584   7581   7580   7594     1  180.0000771  0.8368000  1
   7584   7581   7580   7594     1  180.0000771  1.0460000  2
   7584   7581   7580   7594     1  0.0000000  0.7531200  3
   7584   7581   7580   7602     1  0.0000000  0.6508444  3
   7584   7585   7586   7590     1  0.0000000  0.6508444  3
   7584   7585   7586   7602     1  0.0000000  0.6508444  3
   7585   7584   7581   7593     1  0.0000000  0.6508444  3
   7586   7585   7584   7592     1  0.0000000  0.6508444  3
   7586   7602   7580   7594     1  180.0000771  0.4184000  2
   7586   7602   7580   7594     1  0.0000000  1.6024720  3
   7590   7586   7585   7591     1  0.0000000  4.9162000  2
   7590   7586   7585   7591     1  0.0000000  0.6024960  3
   7591   7585   7584   7592     1  0.0000000  4.9162000  2
   7591   7585   7584   7592     1  0.0000000  0.6024960  3
   7591   7585   7586   7602     1  0.0000000  4.9162000  2
   7591   7585   7586   7602     1  0.0000000  0.6024960  3
   7592   7584   7581   7593     1  0.0000000  4.9162000  2
   7592   7584   7581   7593     1  0.0000000  0.6024960  3
   7593   7581   7580   7594     1  0.0000000  0.6508444  3
   7593   7581   7580   7602     1  0.0000000  4.9162000  2
   7593   7581   7580   7602     1  0.0000000  0.6024960  3
   7600   7594   7580   7602     1  0.0000000  4.9162000  2
   7600   7594   7580   7602     1  0.0000000  0.6024960  3
   7603   7604   7607   7608     1  180.0000771  0.8368000  1
   7603   7604   7607   7608     1  180.0000771  1.0460000  2
   7603   7604   7607   7608     1  0.0000000  0.7531200  3
   7603   7604   7607   7615     1  0.0000000  0.6508444  3
   7603   7625   7609   7613     1  180.0000771  5.6484000  1
   7603   7625   7609   7613     1  180.0000771  3.5564000  2
   7603   7625   7609   7613     1  0.0000000  0.4184000  3
   7603   7625   7609   7608     1  180.0000771  0.4184000  2
   7603   7625   7609   7608     1  0.0000000  1.6024720  3
   7604   7607   7608   7609     1  180.0000771  0.8368000  1
   7604   7607   7608   7609     1  180.0000771  1.0460000  2
   7604   7607   7608   7609     1  0.0000000  0.7531200  3
   7604   7607   7608   7614     1  0.0000000  0.6508444  3
   7604   7603   7617   7623     1  0.0000000  0.6508444  3
   7604   7603   7625   7609     1  180.0000771  0.4184000  2
   7604   7603   7625   7609     1  0.0000000  1.6024720  3
   7607   7608   7609   7613     1  0.0000000  0.6508444  3
   7607   7608   7609   7625     1  0.0000000  0.6508444  3
   7607   7604   7603   7617     1  180.0000771  0.8368000  1
   7607   7604   7603   7617     1  180.0000771  1.0460000  2
   7607   7604   7603   7617     1  0.0000000  0.7531200  3
   7607   7604   7603   7625     1  0.0000000  0.6508444  3
   7608   7607   7604   7616     1  0.0000000  0.6508444  3
   7609   7625   7603   7617     1  180.0000771  0.4184000  2
   7609   7625   7603   7617     1  0.0000000  1.6024720  3
   7609   7608   7607   7615     1  0.0000000  0.6508444  3
   7613   7609   7608   7614     1  0.0000000  4.9162000  2
   7613   7609   7608   7614     1  0.0000000  0.6024960  3
   7614   7608   7609   7625     1  0.0000000  4.9162000  2
   7614   7608   7609   7625     1  0.0000000  0.6024960  3
   7614   7608   7607   7615     1  0.0000000  4.9162000  2
   7614   7608   7607   7615     1  0.0000000  0.6024960  3
   7615   7607   7604   7616     1  0.0000000  4.9162000  2
   7615   7607   7604   7616     1  0.0000000  0.6024960  3
   7616   7604   7603   7617     1  0.0000000  0.6508444  3
   7616   7604   7603   7625     1  0.0000000  4.9162000  2
   7616   7604   7603   7625     1  0.0000000  0.6024960  3
   7623   7617   7603   7625     1  0.0000000  4.9162000  2
   7623   7617   7603   7625     1  0.0000000  0.6024960  3
   7626   7627   7630   7631     1  180.0000771  0.8368000  1
   7626   7627   7630   7631     1  180.0000771  1.0460000  2
   7626   7627   7630   7631     1  0.0000000  0.7531200  3
   7626   7627   7630   7638     1  0.0000000  0.6508444  3
   7626   7648   7632   7631     1  180.0000771  0.4184000  2
   7626   7648   7632   7631     1  0.0000000  1.6024720  3
   7626   7648   7632   7636     1  180.0000771  5.6484000  1
   7626   7648   7632   7636     1  180.0000771  3.5564000  2
   7626   7648   7632   7636     1  0.0000000  0.4184000  3
   7627   7626   7640   7646     1  0.0000000  0.6508444  3
   7627   7626   7648   7632     1  180.0000771  0.4184000  2
   7627   7626   7648   7632     1  0.0000000  1.6024720  3
   7627   7630   7631   7632     1  180.0000771  0.8368000  1
   7627   7630   7631   7632     1  180.0000771  1.0460000  2
   7627   7630   7631   7632     1  0.0000000  0.7531200  3
   7627   7630   7631   7637     1  0.0000000  0.6508444  3
   7630   7627   7626   7640     1  180.0000771  0.8368000  1
   7630   7627   7626   7640     1  180.0000771  1.0460000  2
   7630   7627   7626   7640     1  0.0000000  0.7531200  3
   7630   7627   7626   7648     1  0.0000000  0.6508444  3
   7630   7631   7632   7636     1  0.0000000  0.6508444  3
   7630   7631   7632   7648     1  0.0000000  0.6508444  3
   7631   7630   7627   7639     1  0.0000000  0.6508444  3
   7632   7631   7630   7638     1  0.0000000  0.6508444  3
   7632   7648   7626   7640     1  180.0000771  0.4184000  2
   7632   7648   7626   7640     1  0.0000000  1.6024720  3
   7636   7632   7631   7637     1  0.0000000  4.9162000  2
   7636   7632   7631   7637     1  0.0000000  0.6024960  3
   7637   7631   7630   7638     1  0.0000000  4.9162000  2
   7637   7631   7630   7638     1  0.0000000  0.6024960  3
   7637   7631   7632   7648     1  0.0000000  4.9162000  2
   7637   7631   7632   7648     1  0.0000000  0.6024960  3
   7638   7630   7627   7639     1  0.0000000  4.9162000  2
   7638   7630   7627   7639     1  0.0000000  0.6024960  3
   7639   7627   7626   7640     1  0.0000000  0.6508444  3
   7639   7627   7626   7648     1  0.0000000  4.9162000  2
   7639   7627   7626   7648     1  0.0000000  0.6024960  3
   7646   7640   7626   7648     1  0.0000000  4.9162000  2
   7646   7640   7626   7648     1  0.0000000  0.6024960  3
   7649   7650   7653   7654     1  180.0000771  0.8368000  1
   7649   7650   7653   7654     1  180.0000771  1.0460000  2
   7649   7650   7653   7654     1  0.0000000  0.7531200  3
   7649   7650   7653   7661     1  0.0000000  0.6508444  3
   7649   7671   7655   7659     1  180.0000771  5.6484000  1
   7649   7671   7655   7659     1  180.0000771  3.5564000  2
   7649   7671   7655   7659     1  0.0000000  0.4184000  3
   7649   7671   7655   7654     1  180.0000771  0.4184000  2
   7649   7671   7655   7654     1  0.0000000  1.6024720  3
   7650   7653   7654   7655     1  180.0000771  0.8368000  1
   7650   7653   7654   7655     1  180.0000771  1.0460000  2
   7650   7653   7654   7655     1  0.0000000  0.7531200  3
   7650   7653   7654   7660     1  0.0000000  0.6508444  3
   7650   7649   7663   7669     1  0.0000000  0.6508444  3
   7650   7649   7671   7655     1  180.0000771  0.4184000  2
   7650   7649   7671   7655     1  0.0000000  1.6024720  3
   7653   7654   7655   7659     1  0.0000000  0.6508444  3
   7653   7654   7655   7671     1  0.0000000  0.6508444  3
   7653   7650   7649   7663     1  180.0000771  0.8368000  1
   7653   7650   7649   7663     1  180.0000771  1.0460000  2
   7653   7650   7649   7663     1  0.0000000  0.7531200  3
   7653   7650   7649   7671     1  0.0000000  0.6508444  3
   7654   7653   7650   7662     1  0.0000000  0.6508444  3
   7655   7671   7649   7663     1  180.0000771  0.4184000  2
   7655   7671   7649   7663     1  0.0000000  1.6024720  3
   7655   7654   7653   7661     1  0.0000000  0.6508444  3
   7659   7655   7654   7660     1  0.0000000  4.9162000  2
   7659   7655   7654   7660     1  0.0000000  0.6024960  3
   7660   7654   7655   7671     1  0.0000000  4.9162000  2
   7660   7654   7655   7671     1  0.0000000  0.6024960  3
   7660   7654   7653   7661     1  0.0000000  4.9162000  2
   7660   7654   7653   7661     1  0.0000000  0.6024960  3
   7661   7653   7650   7662     1  0.0000000  4.9162000  2
   7661   7653   7650   7662     1  0.0000000  0.6024960  3
   7662   7650   7649   7663     1  0.0000000  0.6508444  3
   7662   7650   7649   7671     1  0.0000000  4.9162000  2
   7662   7650   7649   7671     1  0.0000000  0.6024960  3
   7669   7663   7649   7671     1  0.0000000  4.9162000  2
   7669   7663   7649   7671     1  0.0000000  0.6024960  3
   7672   7673   7676   7677     1  180.0000771  0.8368000  1
   7672   7673   7676   7677     1  180.0000771  1.0460000  2
   7672   7673   7676   7677     1  0.0000000  0.7531200  3
   7672   7673   7676   7684     1  0.0000000  0.6508444  3
   7672   7694   7678   7677     1  180.0000771  0.4184000  2
   7672   7694   7678   7677     1  0.0000000  1.6024720  3
   7672   7694   7678   7682     1  180.0000771  5.6484000  1
   7672   7694   7678   7682     1  180.0000771  3.5564000  2
   7672   7694   7678   7682     1  0.0000000  0.4184000  3
   7673   7672   7686   7692     1  0.0000000  0.6508444  3
   7673   7672   7694   7678     1  180.0000771  0.4184000  2
   7673   7672   7694   7678     1  0.0000000  1.6024720  3
   7673   7676   7677   7678     1  180.0000771  0.8368000  1
   7673   7676   7677   7678     1  180.0000771  1.0460000  2
   7673   7676   7677   7678     1  0.0000000  0.7531200  3
   7673   7676   7677   7683     1  0.0000000  0.6508444  3
   7676   7673   7672   7686     1  180.0000771  0.8368000  1
   7676   7673   7672   7686     1  180.0000771  1.0460000  2
   7676   7673   7672   7686     1  0.0000000  0.7531200  3
   7676   7673   7672   7694     1  0.0000000  0.6508444  3
   7676   7677   7678   7682     1  0.0000000  0.6508444  3
   7676   7677   7678   7694     1  0.0000000  0.6508444  3
   7677   7676   7673   7685     1  0.0000000  0.6508444  3
   7678   7677   7676   7684     1  0.0000000  0.6508444  3
   7678   7694   7672   7686     1  180.0000771  0.4184000  2
   7678   7694   7672   7686     1  0.0000000  1.6024720  3
   7682   7678   7677   7683     1  0.0000000  4.9162000  2
   7682   7678   7677   7683     1  0.0000000  0.6024960  3
   7683   7677   7676   7684     1  0.0000000  4.9162000  2
   7683   7677   7676   7684     1  0.0000000  0.6024960  3
   7683   7677   7678   7694     1  0.0000000  4.9162000  2
   7683   7677   7678   7694     1  0.0000000  0.6024960  3
   7684   7676   7673   7685     1  0.0000000  4.9162000  2
   7684   7676   7673   7685     1  0.0000000  0.6024960  3
   7685   7673   7672   7686     1  0.0000000  0.6508444  3
   7685   7673   7672   7694     1  0.0000000  4.9162000  2
   7685   7673   7672   7694     1  0.0000000  0.6024960  3
   7692   7686   7672   7694     1  0.0000000  4.9162000  2
   7692   7686   7672   7694     1  0.0000000  0.6024960  3
   7695   7696   7699   7700     1  180.0000771  0.8368000  1
   7695   7696   7699   7700     1  180.0000771  1.0460000  2
   7695   7696   7699   7700     1  0.0000000  0.7531200  3
   7695   7696   7699   7707     1  0.0000000  0.6508444  3
   7695   7717   7701   7705     1  180.0000771  5.6484000  1
   7695   7717   7701   7705     1  180.0000771  3.5564000  2
   7695   7717   7701   7705     1  0.0000000  0.4184000  3
   7695   7717   7701   7700     1  180.0000771  0.4184000  2
   7695   7717   7701   7700     1  0.0000000  1.6024720  3
   7696   7699   7700   7701     1  180.0000771  0.8368000  1
   7696   7699   7700   7701     1  180.0000771  1.0460000  2
   7696   7699   7700   7701     1  0.0000000  0.7531200  3
   7696   7699   7700   7706     1  0.0000000  0.6508444  3
   7696   7695   7709   7715     1  0.0000000  0.6508444  3
   7696   7695   7717   7701     1  180.0000771  0.4184000  2
   7696   7695   7717   7701     1  0.0000000  1.6024720  3
   7699   7700   7701   7705     1  0.0000000  0.6508444  3
   7699   7700   7701   7717     1  0.0000000  0.6508444  3
   7699   7696   7695   7709     1  180.0000771  0.8368000  1
   7699   7696   7695   7709     1  180.0000771  1.0460000  2
   7699   7696   7695   7709     1  0.0000000  0.7531200  3
   7699   7696   7695   7717     1  0.0000000  0.6508444  3
   7700   7699   7696   7708     1  0.0000000  0.6508444  3
   7701   7717   7695   7709     1  180.0000771  0.4184000  2
   7701   7717   7695   7709     1  0.0000000  1.6024720  3
   7701   7700   7699   7707     1  0.0000000  0.6508444  3
   7705   7701   7700   7706     1  0.0000000  4.9162000  2
   7705   7701   7700   7706     1  0.0000000  0.6024960  3
   7706   7700   7701   7717     1  0.0000000  4.9162000  2
   7706   7700   7701   7717     1  0.0000000  0.6024960  3
   7706   7700   7699   7707     1  0.0000000  4.9162000  2
   7706   7700   7699   7707     1  0.0000000  0.6024960  3
   7707   7699   7696   7708     1  0.0000000  4.9162000  2
   7707   7699   7696   7708     1  0.0000000  0.6024960  3
   7708   7696   7695   7709     1  0.0000000  0.6508444  3
   7708   7696   7695   7717     1  0.0000000  4.9162000  2
   7708   7696   7695   7717     1  0.0000000  0.6024960  3
   7715   7709   7695   7717     1  0.0000000  4.9162000  2
   7715   7709   7695   7717     1  0.0000000  0.6024960  3
   7718   7719   7722   7723     1  180.0000771  0.8368000  1
   7718   7719   7722   7723     1  180.0000771  1.0460000  2
   7718   7719   7722   7723     1  0.0000000  0.7531200  3
   7718   7719   7722   7730     1  0.0000000  0.6508444  3
   7718   7740   7724   7723     1  180.0000771  0.4184000  2
   7718   7740   7724   7723     1  0.0000000  1.6024720  3
   7718   7740   7724   7728     1  180.0000771  5.6484000  1
   7718   7740   7724   7728     1  180.0000771  3.5564000  2
   7718   7740   7724   7728     1  0.0000000  0.4184000  3
   7719   7718   7732   7738     1  0.0000000  0.6508444  3
   7719   7718   7740   7724     1  180.0000771  0.4184000  2
   7719   7718   7740   7724     1  0.0000000  1.6024720  3
   7719   7722   7723   7724     1  180.0000771  0.8368000  1
   7719   7722   7723   7724     1  180.0000771  1.0460000  2
   7719   7722   7723   7724     1  0.0000000  0.7531200  3
   7719   7722   7723   7729     1  0.0000000  0.6508444  3
   7722   7719   7718   7732     1  180.0000771  0.8368000  1
   7722   7719   7718   7732     1  180.0000771  1.0460000  2
   7722   7719   7718   7732     1  0.0000000  0.7531200  3
   7722   7719   7718   7740     1  0.0000000  0.6508444  3
   7722   7723   7724   7728     1  0.0000000  0.6508444  3
   7722   7723   7724   7740     1  0.0000000  0.6508444  3
   7723   7722   7719   7731     1  0.0000000  0.6508444  3
   7724   7723   7722   7730     1  0.0000000  0.6508444  3
   7724   7740   7718   7732     1  180.0000771  0.4184000  2
   7724   7740   7718   7732     1  0.0000000  1.6024720  3
   7728   7724   7723   7729     1  0.0000000  4.9162000  2
   7728   7724   7723   7729     1  0.0000000  0.6024960  3
   7729   7723   7722   7730     1  0.0000000  4.9162000  2
   7729   7723   7722   7730     1  0.0000000  0.6024960  3
   7729   7723   7724   7740     1  0.0000000  4.9162000  2
   7729   7723   7724   7740     1  0.0000000  0.6024960  3
   7730   7722   7719   7731     1  0.0000000  4.9162000  2
   7730   7722   7719   7731     1  0.0000000  0.6024960  3
   7731   7719   7718   7732     1  0.0000000  0.6508444  3
   7731   7719   7718   7740     1  0.0000000  4.9162000  2
   7731   7719   7718   7740     1  0.0000000  0.6024960  3
   7738   7732   7718   7740     1  0.0000000  4.9162000  2
   7738   7732   7718   7740     1  0.0000000  0.6024960  3
   7741   7742   7745   7746     1  180.0000771  0.8368000  1
   7741   7742   7745   7746     1  180.0000771  1.0460000  2
   7741   7742   7745   7746     1  0.0000000  0.7531200  3
   7741   7742   7745   7753     1  0.0000000  0.6508444  3
   7741   7763   7747   7751     1  180.0000771  5.6484000  1
   7741   7763   7747   7751     1  180.0000771  3.5564000  2
   7741   7763   7747   7751     1  0.0000000  0.4184000  3
   7741   7763   7747   7746     1  180.0000771  0.4184000  2
   7741   7763   7747   7746     1  0.0000000  1.6024720  3
   7742   7745   7746   7747     1  180.0000771  0.8368000  1
   7742   7745   7746   7747     1  180.0000771  1.0460000  2
   7742   7745   7746   7747     1  0.0000000  0.7531200  3
   7742   7745   7746   7752     1  0.0000000  0.6508444  3
   7742   7741   7755   7761     1  0.0000000  0.6508444  3
   7742   7741   7763   7747     1  180.0000771  0.4184000  2
   7742   7741   7763   7747     1  0.0000000  1.6024720  3
   7745   7746   7747   7751     1  0.0000000  0.6508444  3
   7745   7746   7747   7763     1  0.0000000  0.6508444  3
   7745   7742   7741   7755     1  180.0000771  0.8368000  1
   7745   7742   7741   7755     1  180.0000771  1.0460000  2
   7745   7742   7741   7755     1  0.0000000  0.7531200  3
   7745   7742   7741   7763     1  0.0000000  0.6508444  3
   7746   7745   7742   7754     1  0.0000000  0.6508444  3
   7747   7763   7741   7755     1  180.0000771  0.4184000  2
   7747   7763   7741   7755     1  0.0000000  1.6024720  3
   7747   7746   7745   7753     1  0.0000000  0.6508444  3
   7751   7747   7746   7752     1  0.0000000  4.9162000  2
   7751   7747   7746   7752     1  0.0000000  0.6024960  3
   7752   7746   7747   7763     1  0.0000000  4.9162000  2
   7752   7746   7747   7763     1  0.0000000  0.6024960  3
   7752   7746   7745   7753     1  0.0000000  4.9162000  2
   7752   7746   7745   7753     1  0.0000000  0.6024960  3
   7753   7745   7742   7754     1  0.0000000  4.9162000  2
   7753   7745   7742   7754     1  0.0000000  0.6024960  3
   7754   7742   7741   7755     1  0.0000000  0.6508444  3
   7754   7742   7741   7763     1  0.0000000  4.9162000  2
   7754   7742   7741   7763     1  0.0000000  0.6024960  3
   7761   7755   7741   7763     1  0.0000000  4.9162000  2
   7761   7755   7741   7763     1  0.0000000  0.6024960  3
   7764   7765   7768   7769     1  180.0000771  0.8368000  1
   7764   7765   7768   7769     1  180.0000771  1.0460000  2
   7764   7765   7768   7769     1  0.0000000  0.7531200  3
   7764   7765   7768   7776     1  0.0000000  0.6508444  3
   7764   7786   7770   7769     1  180.0000771  0.4184000  2
   7764   7786   7770   7769     1  0.0000000  1.6024720  3
   7764   7786   7770   7774     1  180.0000771  5.6484000  1
   7764   7786   7770   7774     1  180.0000771  3.5564000  2
   7764   7786   7770   7774     1  0.0000000  0.4184000  3
   7765   7764   7778   7784     1  0.0000000  0.6508444  3
   7765   7764   7786   7770     1  180.0000771  0.4184000  2
   7765   7764   7786   7770     1  0.0000000  1.6024720  3
   7765   7768   7769   7770     1  180.0000771  0.8368000  1
   7765   7768   7769   7770     1  180.0000771  1.0460000  2
   7765   7768   7769   7770     1  0.0000000  0.7531200  3
   7765   7768   7769   7775     1  0.0000000  0.6508444  3
   7768   7765   7764   7778     1  180.0000771  0.8368000  1
   7768   7765   7764   7778     1  180.0000771  1.0460000  2
   7768   7765   7764   7778     1  0.0000000  0.7531200  3
   7768   7765   7764   7786     1  0.0000000  0.6508444  3
   7768   7769   7770   7774     1  0.0000000  0.6508444  3
   7768   7769   7770   7786     1  0.0000000  0.6508444  3
   7769   7768   7765   7777     1  0.0000000  0.6508444  3
   7770   7769   7768   7776     1  0.0000000  0.6508444  3
   7770   7786   7764   7778     1  180.0000771  0.4184000  2
   7770   7786   7764   7778     1  0.0000000  1.6024720  3
   7774   7770   7769   7775     1  0.0000000  4.9162000  2
   7774   7770   7769   7775     1  0.0000000  0.6024960  3
   7775   7769   7768   7776     1  0.0000000  4.9162000  2
   7775   7769   7768   7776     1  0.0000000  0.6024960  3
   7775   7769   7770   7786     1  0.0000000  4.9162000  2
   7775   7769   7770   7786     1  0.0000000  0.6024960  3
   7776   7768   7765   7777     1  0.0000000  4.9162000  2
   7776   7768   7765   7777     1  0.0000000  0.6024960  3
   7777   7765   7764   7778     1  0.0000000  0.6508444  3
   7777   7765   7764   7786     1  0.0000000  4.9162000  2
   7777   7765   7764   7786     1  0.0000000  0.6024960  3
   7784   7778   7764   7786     1  0.0000000  4.9162000  2
   7784   7778   7764   7786     1  0.0000000  0.6024960  3
   7787   7788   7791   7792     1  180.0000771  0.8368000  1
   7787   7788   7791   7792     1  180.0000771  1.0460000  2
   7787   7788   7791   7792     1  0.0000000  0.7531200  3
   7787   7788   7791   7799     1  0.0000000  0.6508444  3
   7787   7809   7793   7797     1  180.0000771  5.6484000  1
   7787   7809   7793   7797     1  180.0000771  3.5564000  2
   7787   7809   7793   7797     1  0.0000000  0.4184000  3
   7787   7809   7793   7792     1  180.0000771  0.4184000  2
   7787   7809   7793   7792     1  0.0000000  1.6024720  3
   7788   7791   7792   7793     1  180.0000771  0.8368000  1
   7788   7791   7792   7793     1  180.0000771  1.0460000  2
   7788   7791   7792   7793     1  0.0000000  0.7531200  3
   7788   7791   7792   7798     1  0.0000000  0.6508444  3
   7788   7787   7801   7807     1  0.0000000  0.6508444  3
   7788   7787   7809   7793     1  180.0000771  0.4184000  2
   7788   7787   7809   7793     1  0.0000000  1.6024720  3
   7791   7792   7793   7797     1  0.0000000  0.6508444  3
   7791   7792   7793   7809     1  0.0000000  0.6508444  3
   7791   7788   7787   7801     1  180.0000771  0.8368000  1
   7791   7788   7787   7801     1  180.0000771  1.0460000  2
   7791   7788   7787   7801     1  0.0000000  0.7531200  3
   7791   7788   7787   7809     1  0.0000000  0.6508444  3
   7792   7791   7788   7800     1  0.0000000  0.6508444  3
   7793   7809   7787   7801     1  180.0000771  0.4184000  2
   7793   7809   7787   7801     1  0.0000000  1.6024720  3
   7793   7792   7791   7799     1  0.0000000  0.6508444  3
   7797   7793   7792   7798     1  0.0000000  4.9162000  2
   7797   7793   7792   7798     1  0.0000000  0.6024960  3
   7798   7792   7793   7809     1  0.0000000  4.9162000  2
   7798   7792   7793   7809     1  0.0000000  0.6024960  3
   7798   7792   7791   7799     1  0.0000000  4.9162000  2
   7798   7792   7791   7799     1  0.0000000  0.6024960  3
   7799   7791   7788   7800     1  0.0000000  4.9162000  2
   7799   7791   7788   7800     1  0.0000000  0.6024960  3
   7800   7788   7787   7801     1  0.0000000  0.6508444  3
   7800   7788   7787   7809     1  0.0000000  4.9162000  2
   7800   7788   7787   7809     1  0.0000000  0.6024960  3
   7807   7801   7787   7809     1  0.0000000  4.9162000  2
   7807   7801   7787   7809     1  0.0000000  0.6024960  3
   7810   7811   7814   7815     1  180.0000771  0.8368000  1
   7810   7811   7814   7815     1  180.0000771  1.0460000  2
   7810   7811   7814   7815     1  0.0000000  0.7531200  3
   7810   7811   7814   7822     1  0.0000000  0.6508444  3
   7810   7832   7816   7815     1  180.0000771  0.4184000  2
   7810   7832   7816   7815     1  0.0000000  1.6024720  3
   7810   7832   7816   7820     1  180.0000771  5.6484000  1
   7810   7832   7816   7820     1  180.0000771  3.5564000  2
   7810   7832   7816   7820     1  0.0000000  0.4184000  3
   7811   7810   7824   7830     1  0.0000000  0.6508444  3
   7811   7810   7832   7816     1  180.0000771  0.4184000  2
   7811   7810   7832   7816     1  0.0000000  1.6024720  3
   7811   7814   7815   7816     1  180.0000771  0.8368000  1
   7811   7814   7815   7816     1  180.0000771  1.0460000  2
   7811   7814   7815   7816     1  0.0000000  0.7531200  3
   7811   7814   7815   7821     1  0.0000000  0.6508444  3
   7814   7811   7810   7824     1  180.0000771  0.8368000  1
   7814   7811   7810   7824     1  180.0000771  1.0460000  2
   7814   7811   7810   7824     1  0.0000000  0.7531200  3
   7814   7811   7810   7832     1  0.0000000  0.6508444  3
   7814   7815   7816   7820     1  0.0000000  0.6508444  3
   7814   7815   7816   7832     1  0.0000000  0.6508444  3
   7815   7814   7811   7823     1  0.0000000  0.6508444  3
   7816   7815   7814   7822     1  0.0000000  0.6508444  3
   7816   7832   7810   7824     1  180.0000771  0.4184000  2
   7816   7832   7810   7824     1  0.0000000  1.6024720  3
   7820   7816   7815   7821     1  0.0000000  4.9162000  2
   7820   7816   7815   7821     1  0.0000000  0.6024960  3
   7821   7815   7814   7822     1  0.0000000  4.9162000  2
   7821   7815   7814   7822     1  0.0000000  0.6024960  3
   7821   7815   7816   7832     1  0.0000000  4.9162000  2
   7821   7815   7816   7832     1  0.0000000  0.6024960  3
   7822   7814   7811   7823     1  0.0000000  4.9162000  2
   7822   7814   7811   7823     1  0.0000000  0.6024960  3
   7823   7811   7810   7824     1  0.0000000  0.6508444  3
   7823   7811   7810   7832     1  0.0000000  4.9162000  2
   7823   7811   7810   7832     1  0.0000000  0.6024960  3
   7830   7824   7810   7832     1  0.0000000  4.9162000  2
   7830   7824   7810   7832     1  0.0000000  0.6024960  3
   7833   7834   7837   7838     1  180.0000771  0.8368000  1
   7833   7834   7837   7838     1  180.0000771  1.0460000  2
   7833   7834   7837   7838     1  0.0000000  0.7531200  3
   7833   7834   7837   7845     1  0.0000000  0.6508444  3
   7833   7855   7839   7843     1  180.0000771  5.6484000  1
   7833   7855   7839   7843     1  180.0000771  3.5564000  2
   7833   7855   7839   7843     1  0.0000000  0.4184000  3
   7833   7855   7839   7838     1  180.0000771  0.4184000  2
   7833   7855   7839   7838     1  0.0000000  1.6024720  3
   7834   7837   7838   7839     1  180.0000771  0.8368000  1
   7834   7837   7838   7839     1  180.0000771  1.0460000  2
   7834   7837   7838   7839     1  0.0000000  0.7531200  3
   7834   7837   7838   7844     1  0.0000000  0.6508444  3
   7834   7833   7847   7853     1  0.0000000  0.6508444  3
   7834   7833   7855   7839     1  180.0000771  0.4184000  2
   7834   7833   7855   7839     1  0.0000000  1.6024720  3
   7837   7838   7839   7843     1  0.0000000  0.6508444  3
   7837   7838   7839   7855     1  0.0000000  0.6508444  3
   7837   7834   7833   7847     1  180.0000771  0.8368000  1
   7837   7834   7833   7847     1  180.0000771  1.0460000  2
   7837   7834   7833   7847     1  0.0000000  0.7531200  3
   7837   7834   7833   7855     1  0.0000000  0.6508444  3
   7838   7837   7834   7846     1  0.0000000  0.6508444  3
   7839   7855   7833   7847     1  180.0000771  0.4184000  2
   7839   7855   7833   7847     1  0.0000000  1.6024720  3
   7839   7838   7837   7845     1  0.0000000  0.6508444  3
   7843   7839   7838   7844     1  0.0000000  4.9162000  2
   7843   7839   7838   7844     1  0.0000000  0.6024960  3
   7844   7838   7839   7855     1  0.0000000  4.9162000  2
   7844   7838   7839   7855     1  0.0000000  0.6024960  3
   7844   7838   7837   7845     1  0.0000000  4.9162000  2
   7844   7838   7837   7845     1  0.0000000  0.6024960  3
   7845   7837   7834   7846     1  0.0000000  4.9162000  2
   7845   7837   7834   7846     1  0.0000000  0.6024960  3
   7846   7834   7833   7847     1  0.0000000  0.6508444  3
   7846   7834   7833   7855     1  0.0000000  4.9162000  2
   7846   7834   7833   7855     1  0.0000000  0.6024960  3
   7853   7847   7833   7855     1  0.0000000  4.9162000  2
   7853   7847   7833   7855     1  0.0000000  0.6024960  3
   7856   7857   7860   7861     1  180.0000771  0.8368000  1
   7856   7857   7860   7861     1  180.0000771  1.0460000  2
   7856   7857   7860   7861     1  0.0000000  0.7531200  3
   7856   7857   7860   7868     1  0.0000000  0.6508444  3
   7856   7878   7862   7861     1  180.0000771  0.4184000  2
   7856   7878   7862   7861     1  0.0000000  1.6024720  3
   7856   7878   7862   7866     1  180.0000771  5.6484000  1
   7856   7878   7862   7866     1  180.0000771  3.5564000  2
   7856   7878   7862   7866     1  0.0000000  0.4184000  3
   7857   7856   7870   7876     1  0.0000000  0.6508444  3
   7857   7856   7878   7862     1  180.0000771  0.4184000  2
   7857   7856   7878   7862     1  0.0000000  1.6024720  3
   7857   7860   7861   7862     1  180.0000771  0.8368000  1
   7857   7860   7861   7862     1  180.0000771  1.0460000  2
   7857   7860   7861   7862     1  0.0000000  0.7531200  3
   7857   7860   7861   7867     1  0.0000000  0.6508444  3
   7860   7857   7856   7870     1  180.0000771  0.8368000  1
   7860   7857   7856   7870     1  180.0000771  1.0460000  2
   7860   7857   7856   7870     1  0.0000000  0.7531200  3
   7860   7857   7856   7878     1  0.0000000  0.6508444  3
   7860   7861   7862   7866     1  0.0000000  0.6508444  3
   7860   7861   7862   7878     1  0.0000000  0.6508444  3
   7861   7860   7857   7869     1  0.0000000  0.6508444  3
   7862   7861   7860   7868     1  0.0000000  0.6508444  3
   7862   7878   7856   7870     1  180.0000771  0.4184000  2
   7862   7878   7856   7870     1  0.0000000  1.6024720  3
   7866   7862   7861   7867     1  0.0000000  4.9162000  2
   7866   7862   7861   7867     1  0.0000000  0.6024960  3
   7867   7861   7860   7868     1  0.0000000  4.9162000  2
   7867   7861   7860   7868     1  0.0000000  0.6024960  3
   7867   7861   7862   7878     1  0.0000000  4.9162000  2
   7867   7861   7862   7878     1  0.0000000  0.6024960  3
   7868   7860   7857   7869     1  0.0000000  4.9162000  2
   7868   7860   7857   7869     1  0.0000000  0.6024960  3
   7869   7857   7856   7870     1  0.0000000  0.6508444  3
   7869   7857   7856   7878     1  0.0000000  4.9162000  2
   7869   7857   7856   7878     1  0.0000000  0.6024960  3
   7876   7870   7856   7878     1  0.0000000  4.9162000  2
   7876   7870   7856   7878     1  0.0000000  0.6024960  3
   7879   7880   7883   7884     1  180.0000771  0.8368000  1
   7879   7880   7883   7884     1  180.0000771  1.0460000  2
   7879   7880   7883   7884     1  0.0000000  0.7531200  3
   7879   7880   7883   7891     1  0.0000000  0.6508444  3
   7879   7901   7885   7889     1  180.0000771  5.6484000  1
   7879   7901   7885   7889     1  180.0000771  3.5564000  2
   7879   7901   7885   7889     1  0.0000000  0.4184000  3
   7879   7901   7885   7884     1  180.0000771  0.4184000  2
   7879   7901   7885   7884     1  0.0000000  1.6024720  3
   7880   7883   7884   7885     1  180.0000771  0.8368000  1
   7880   7883   7884   7885     1  180.0000771  1.0460000  2
   7880   7883   7884   7885     1  0.0000000  0.7531200  3
   7880   7883   7884   7890     1  0.0000000  0.6508444  3
   7880   7879   7893   7899     1  0.0000000  0.6508444  3
   7880   7879   7901   7885     1  180.0000771  0.4184000  2
   7880   7879   7901   7885     1  0.0000000  1.6024720  3
   7883   7884   7885   7889     1  0.0000000  0.6508444  3
   7883   7884   7885   7901     1  0.0000000  0.6508444  3
   7883   7880   7879   7893     1  180.0000771  0.8368000  1
   7883   7880   7879   7893     1  180.0000771  1.0460000  2
   7883   7880   7879   7893     1  0.0000000  0.7531200  3
   7883   7880   7879   7901     1  0.0000000  0.6508444  3
   7884   7883   7880   7892     1  0.0000000  0.6508444  3
   7885   7901   7879   7893     1  180.0000771  0.4184000  2
   7885   7901   7879   7893     1  0.0000000  1.6024720  3
   7885   7884   7883   7891     1  0.0000000  0.6508444  3
   7889   7885   7884   7890     1  0.0000000  4.9162000  2
   7889   7885   7884   7890     1  0.0000000  0.6024960  3
   7890   7884   7885   7901     1  0.0000000  4.9162000  2
   7890   7884   7885   7901     1  0.0000000  0.6024960  3
   7890   7884   7883   7891     1  0.0000000  4.9162000  2
   7890   7884   7883   7891     1  0.0000000  0.6024960  3
   7891   7883   7880   7892     1  0.0000000  4.9162000  2
   7891   7883   7880   7892     1  0.0000000  0.6024960  3
   7892   7880   7879   7893     1  0.0000000  0.6508444  3
   7892   7880   7879   7901     1  0.0000000  4.9162000  2
   7892   7880   7879   7901     1  0.0000000  0.6024960  3
   7899   7893   7879   7901     1  0.0000000  4.9162000  2
   7899   7893   7879   7901     1  0.0000000  0.6024960  3
   7902   7903   7906   7907     1  180.0000771  0.8368000  1
   7902   7903   7906   7907     1  180.0000771  1.0460000  2
   7902   7903   7906   7907     1  0.0000000  0.7531200  3
   7902   7903   7906   7914     1  0.0000000  0.6508444  3
   7902   7924   7908   7907     1  180.0000771  0.4184000  2
   7902   7924   7908   7907     1  0.0000000  1.6024720  3
   7902   7924   7908   7912     1  180.0000771  5.6484000  1
   7902   7924   7908   7912     1  180.0000771  3.5564000  2
   7902   7924   7908   7912     1  0.0000000  0.4184000  3
   7903   7902   7916   7922     1  0.0000000  0.6508444  3
   7903   7902   7924   7908     1  180.0000771  0.4184000  2
   7903   7902   7924   7908     1  0.0000000  1.6024720  3
   7903   7906   7907   7908     1  180.0000771  0.8368000  1
   7903   7906   7907   7908     1  180.0000771  1.0460000  2
   7903   7906   7907   7908     1  0.0000000  0.7531200  3
   7903   7906   7907   7913     1  0.0000000  0.6508444  3
   7906   7903   7902   7916     1  180.0000771  0.8368000  1
   7906   7903   7902   7916     1  180.0000771  1.0460000  2
   7906   7903   7902   7916     1  0.0000000  0.7531200  3
   7906   7903   7902   7924     1  0.0000000  0.6508444  3
   7906   7907   7908   7912     1  0.0000000  0.6508444  3
   7906   7907   7908   7924     1  0.0000000  0.6508444  3
   7907   7906   7903   7915     1  0.0000000  0.6508444  3
   7908   7907   7906   7914     1  0.0000000  0.6508444  3
   7908   7924   7902   7916     1  180.0000771  0.4184000  2
   7908   7924   7902   7916     1  0.0000000  1.6024720  3
   7912   7908   7907   7913     1  0.0000000  4.9162000  2
   7912   7908   7907   7913     1  0.0000000  0.6024960  3
   7913   7907   7906   7914     1  0.0000000  4.9162000  2
   7913   7907   7906   7914     1  0.0000000  0.6024960  3
   7913   7907   7908   7924     1  0.0000000  4.9162000  2
   7913   7907   7908   7924     1  0.0000000  0.6024960  3
   7914   7906   7903   7915     1  0.0000000  4.9162000  2
   7914   7906   7903   7915     1  0.0000000  0.6024960  3
   7915   7903   7902   7916     1  0.0000000  0.6508444  3
   7915   7903   7902   7924     1  0.0000000  4.9162000  2
   7915   7903   7902   7924     1  0.0000000  0.6024960  3
   7922   7916   7902   7924     1  0.0000000  4.9162000  2
   7922   7916   7902   7924     1  0.0000000  0.6024960  3
   7925   7926   7929   7930     1  180.0000771  0.8368000  1
   7925   7926   7929   7930     1  180.0000771  1.0460000  2
   7925   7926   7929   7930     1  0.0000000  0.7531200  3
   7925   7926   7929   7937     1  0.0000000  0.6508444  3
   7925   7947   7931   7935     1  180.0000771  5.6484000  1
   7925   7947   7931   7935     1  180.0000771  3.5564000  2
   7925   7947   7931   7935     1  0.0000000  0.4184000  3
   7925   7947   7931   7930     1  180.0000771  0.4184000  2
   7925   7947   7931   7930     1  0.0000000  1.6024720  3
   7926   7929   7930   7931     1  180.0000771  0.8368000  1
   7926   7929   7930   7931     1  180.0000771  1.0460000  2
   7926   7929   7930   7931     1  0.0000000  0.7531200  3
   7926   7929   7930   7936     1  0.0000000  0.6508444  3
   7926   7925   7939   7945     1  0.0000000  0.6508444  3
   7926   7925   7947   7931     1  180.0000771  0.4184000  2
   7926   7925   7947   7931     1  0.0000000  1.6024720  3
   7929   7930   7931   7935     1  0.0000000  0.6508444  3
   7929   7930   7931   7947     1  0.0000000  0.6508444  3
   7929   7926   7925   7939     1  180.0000771  0.8368000  1
   7929   7926   7925   7939     1  180.0000771  1.0460000  2
   7929   7926   7925   7939     1  0.0000000  0.7531200  3
   7929   7926   7925   7947     1  0.0000000  0.6508444  3
   7930   7929   7926   7938     1  0.0000000  0.6508444  3
   7931   7947   7925   7939     1  180.0000771  0.4184000  2
   7931   7947   7925   7939     1  0.0000000  1.6024720  3
   7931   7930   7929   7937     1  0.0000000  0.6508444  3
   7935   7931   7930   7936     1  0.0000000  4.9162000  2
   7935   7931   7930   7936     1  0.0000000  0.6024960  3
   7936   7930   7931   7947     1  0.0000000  4.9162000  2
   7936   7930   7931   7947     1  0.0000000  0.6024960  3
   7936   7930   7929   7937     1  0.0000000  4.9162000  2
   7936   7930   7929   7937     1  0.0000000  0.6024960  3
   7937   7929   7926   7938     1  0.0000000  4.9162000  2
   7937   7929   7926   7938     1  0.0000000  0.6024960  3
   7938   7926   7925   7939     1  0.0000000  0.6508444  3
   7938   7926   7925   7947     1  0.0000000  4.9162000  2
   7938   7926   7925   7947     1  0.0000000  0.6024960  3
   7945   7939   7925   7947     1  0.0000000  4.9162000  2
   7945   7939   7925   7947     1  0.0000000  0.6024960  3
   7948   7949   7952   7953     1  180.0000771  0.8368000  1
   7948   7949   7952   7953     1  180.0000771  1.0460000  2
   7948   7949   7952   7953     1  0.0000000  0.7531200  3
   7948   7949   7952   7960     1  0.0000000  0.6508444  3
   7948   7970   7954   7953     1  180.0000771  0.4184000  2
   7948   7970   7954   7953     1  0.0000000  1.6024720  3
   7948   7970   7954   7958     1  180.0000771  5.6484000  1
   7948   7970   7954   7958     1  180.0000771  3.5564000  2
   7948   7970   7954   7958     1  0.0000000  0.4184000  3
   7949   7948   7962   7968     1  0.0000000  0.6508444  3
   7949   7948   7970   7954     1  180.0000771  0.4184000  2
   7949   7948   7970   7954     1  0.0000000  1.6024720  3
   7949   7952   7953   7954     1  180.0000771  0.8368000  1
   7949   7952   7953   7954     1  180.0000771  1.0460000  2
   7949   7952   7953   7954     1  0.0000000  0.7531200  3
   7949   7952   7953   7959     1  0.0000000  0.6508444  3
   7952   7949   7948   7962     1  180.0000771  0.8368000  1
   7952   7949   7948   7962     1  180.0000771  1.0460000  2
   7952   7949   7948   7962     1  0.0000000  0.7531200  3
   7952   7949   7948   7970     1  0.0000000  0.6508444  3
   7952   7953   7954   7958     1  0.0000000  0.6508444  3
   7952   7953   7954   7970     1  0.0000000  0.6508444  3
   7953   7952   7949   7961     1  0.0000000  0.6508444  3
   7954   7953   7952   7960     1  0.0000000  0.6508444  3
   7954   7970   7948   7962     1  180.0000771  0.4184000  2
   7954   7970   7948   7962     1  0.0000000  1.6024720  3
   7958   7954   7953   7959     1  0.0000000  4.9162000  2
   7958   7954   7953   7959     1  0.0000000  0.6024960  3
   7959   7953   7952   7960     1  0.0000000  4.9162000  2
   7959   7953   7952   7960     1  0.0000000  0.6024960  3
   7959   7953   7954   7970     1  0.0000000  4.9162000  2
   7959   7953   7954   7970     1  0.0000000  0.6024960  3
   7960   7952   7949   7961     1  0.0000000  4.9162000  2
   7960   7952   7949   7961     1  0.0000000  0.6024960  3
   7961   7949   7948   7962     1  0.0000000  0.6508444  3
   7961   7949   7948   7970     1  0.0000000  4.9162000  2
   7961   7949   7948   7970     1  0.0000000  0.6024960  3
   7968   7962   7948   7970     1  0.0000000  4.9162000  2
   7968   7962   7948   7970     1  0.0000000  0.6024960  3
   7971   7972   7975   7976     1  180.0000771  0.8368000  1
   7971   7972   7975   7976     1  180.0000771  1.0460000  2
   7971   7972   7975   7976     1  0.0000000  0.7531200  3
   7971   7972   7975   7983     1  0.0000000  0.6508444  3
   7971   7993   7977   7981     1  180.0000771  5.6484000  1
   7971   7993   7977   7981     1  180.0000771  3.5564000  2
   7971   7993   7977   7981     1  0.0000000  0.4184000  3
   7971   7993   7977   7976     1  180.0000771  0.4184000  2
   7971   7993   7977   7976     1  0.0000000  1.6024720  3
   7972   7975   7976   7977     1  180.0000771  0.8368000  1
   7972   7975   7976   7977     1  180.0000771  1.0460000  2
   7972   7975   7976   7977     1  0.0000000  0.7531200  3
   7972   7975   7976   7982     1  0.0000000  0.6508444  3
   7972   7971   7985   7991     1  0.0000000  0.6508444  3
   7972   7971   7993   7977     1  180.0000771  0.4184000  2
   7972   7971   7993   7977     1  0.0000000  1.6024720  3
   7975   7976   7977   7981     1  0.0000000  0.6508444  3
   7975   7976   7977   7993     1  0.0000000  0.6508444  3
   7975   7972   7971   7985     1  180.0000771  0.8368000  1
   7975   7972   7971   7985     1  180.0000771  1.0460000  2
   7975   7972   7971   7985     1  0.0000000  0.7531200  3
   7975   7972   7971   7993     1  0.0000000  0.6508444  3
   7976   7975   7972   7984     1  0.0000000  0.6508444  3
   7977   7993   7971   7985     1  180.0000771  0.4184000  2
   7977   7993   7971   7985     1  0.0000000  1.6024720  3
   7977   7976   7975   7983     1  0.0000000  0.6508444  3
   7981   7977   7976   7982     1  0.0000000  4.9162000  2
   7981   7977   7976   7982     1  0.0000000  0.6024960  3
   7982   7976   7977   7993     1  0.0000000  4.9162000  2
   7982   7976   7977   7993     1  0.0000000  0.6024960  3
   7982   7976   7975   7983     1  0.0000000  4.9162000  2
   7982   7976   7975   7983     1  0.0000000  0.6024960  3
   7983   7975   7972   7984     1  0.0000000  4.9162000  2
   7983   7975   7972   7984     1  0.0000000  0.6024960  3
   7984   7972   7971   7985     1  0.0000000  0.6508444  3
   7984   7972   7971   7993     1  0.0000000  4.9162000  2
   7984   7972   7971   7993     1  0.0000000  0.6024960  3
   7991   7985   7971   7993     1  0.0000000  4.9162000  2
   7991   7985   7971   7993     1  0.0000000  0.6024960  3
   7994   7995   7998   7999     1  180.0000771  0.8368000  1
   7994   7995   7998   7999     1  180.0000771  1.0460000  2
   7994   7995   7998   7999     1  0.0000000  0.7531200  3
   7994   7995   7998   8006     1  0.0000000  0.6508444  3
   7994   8016   8000   7999     1  180.0000771  0.4184000  2
   7994   8016   8000   7999     1  0.0000000  1.6024720  3
   7994   8016   8000   8004     1  180.0000771  5.6484000  1
   7994   8016   8000   8004     1  180.0000771  3.5564000  2
   7994   8016   8000   8004     1  0.0000000  0.4184000  3
   7995   7994   8008   8014     1  0.0000000  0.6508444  3
   7995   7994   8016   8000     1  180.0000771  0.4184000  2
   7995   7994   8016   8000     1  0.0000000  1.6024720  3
   7995   7998   7999   8000     1  180.0000771  0.8368000  1
   7995   7998   7999   8000     1  180.0000771  1.0460000  2
   7995   7998   7999   8000     1  0.0000000  0.7531200  3
   7995   7998   7999   8005     1  0.0000000  0.6508444  3
   7998   7995   7994   8008     1  180.0000771  0.8368000  1
   7998   7995   7994   8008     1  180.0000771  1.0460000  2
   7998   7995   7994   8008     1  0.0000000  0.7531200  3
   7998   7995   7994   8016     1  0.0000000  0.6508444  3
   7998   7999   8000   8004     1  0.0000000  0.6508444  3
   7998   7999   8000   8016     1  0.0000000  0.6508444  3
   7999   7998   7995   8007     1  0.0000000  0.6508444  3
   8000   7999   7998   8006     1  0.0000000  0.6508444  3
   8000   8016   7994   8008     1  180.0000771  0.4184000  2
   8000   8016   7994   8008     1  0.0000000  1.6024720  3
   8004   8000   7999   8005     1  0.0000000  4.9162000  2
   8004   8000   7999   8005     1  0.0000000  0.6024960  3
   8005   7999   7998   8006     1  0.0000000  4.9162000  2
   8005   7999   7998   8006     1  0.0000000  0.6024960  3
   8005   7999   8000   8016     1  0.0000000  4.9162000  2
   8005   7999   8000   8016     1  0.0000000  0.6024960  3
   8006   7998   7995   8007     1  0.0000000  4.9162000  2
   8006   7998   7995   8007     1  0.0000000  0.6024960  3
   8007   7995   7994   8008     1  0.0000000  0.6508444  3
   8007   7995   7994   8016     1  0.0000000  4.9162000  2
   8007   7995   7994   8016     1  0.0000000  0.6024960  3
   8014   8008   7994   8016     1  0.0000000  4.9162000  2
   8014   8008   7994   8016     1  0.0000000  0.6024960  3
   8017   8018   8021   8022     1  180.0000771  0.8368000  1
   8017   8018   8021   8022     1  180.0000771  1.0460000  2
   8017   8018   8021   8022     1  0.0000000  0.7531200  3
   8017   8018   8021   8029     1  0.0000000  0.6508444  3
   8017   8039   8023   8027     1  180.0000771  5.6484000  1
   8017   8039   8023   8027     1  180.0000771  3.5564000  2
   8017   8039   8023   8027     1  0.0000000  0.4184000  3
   8017   8039   8023   8022     1  180.0000771  0.4184000  2
   8017   8039   8023   8022     1  0.0000000  1.6024720  3
   8018   8021   8022   8023     1  180.0000771  0.8368000  1
   8018   8021   8022   8023     1  180.0000771  1.0460000  2
   8018   8021   8022   8023     1  0.0000000  0.7531200  3
   8018   8021   8022   8028     1  0.0000000  0.6508444  3
   8018   8017   8031   8037     1  0.0000000  0.6508444  3
   8018   8017   8039   8023     1  180.0000771  0.4184000  2
   8018   8017   8039   8023     1  0.0000000  1.6024720  3
   8021   8022   8023   8027     1  0.0000000  0.6508444  3
   8021   8022   8023   8039     1  0.0000000  0.6508444  3
   8021   8018   8017   8031     1  180.0000771  0.8368000  1
   8021   8018   8017   8031     1  180.0000771  1.0460000  2
   8021   8018   8017   8031     1  0.0000000  0.7531200  3
   8021   8018   8017   8039     1  0.0000000  0.6508444  3
   8022   8021   8018   8030     1  0.0000000  0.6508444  3
   8023   8039   8017   8031     1  180.0000771  0.4184000  2
   8023   8039   8017   8031     1  0.0000000  1.6024720  3
   8023   8022   8021   8029     1  0.0000000  0.6508444  3
   8027   8023   8022   8028     1  0.0000000  4.9162000  2
   8027   8023   8022   8028     1  0.0000000  0.6024960  3
   8028   8022   8023   8039     1  0.0000000  4.9162000  2
   8028   8022   8023   8039     1  0.0000000  0.6024960  3
   8028   8022   8021   8029     1  0.0000000  4.9162000  2
   8028   8022   8021   8029     1  0.0000000  0.6024960  3
   8029   8021   8018   8030     1  0.0000000  4.9162000  2
   8029   8021   8018   8030     1  0.0000000  0.6024960  3
   8030   8018   8017   8031     1  0.0000000  0.6508444  3
   8030   8018   8017   8039     1  0.0000000  4.9162000  2
   8030   8018   8017   8039     1  0.0000000  0.6024960  3
   8037   8031   8017   8039     1  0.0000000  4.9162000  2
   8037   8031   8017   8039     1  0.0000000  0.6024960  3
   8040   8041   8044   8045     1  180.0000771  0.8368000  1
   8040   8041   8044   8045     1  180.0000771  1.0460000  2
   8040   8041   8044   8045     1  0.0000000  0.7531200  3
   8040   8041   8044   8052     1  0.0000000  0.6508444  3
   8040   8062   8046   8045     1  180.0000771  0.4184000  2
   8040   8062   8046   8045     1  0.0000000  1.6024720  3
   8040   8062   8046   8050     1  180.0000771  5.6484000  1
   8040   8062   8046   8050     1  180.0000771  3.5564000  2
   8040   8062   8046   8050     1  0.0000000  0.4184000  3
   8041   8040   8054   8060     1  0.0000000  0.6508444  3
   8041   8040   8062   8046     1  180.0000771  0.4184000  2
   8041   8040   8062   8046     1  0.0000000  1.6024720  3
   8041   8044   8045   8046     1  180.0000771  0.8368000  1
   8041   8044   8045   8046     1  180.0000771  1.0460000  2
   8041   8044   8045   8046     1  0.0000000  0.7531200  3
   8041   8044   8045   8051     1  0.0000000  0.6508444  3
   8044   8041   8040   8054     1  180.0000771  0.8368000  1
   8044   8041   8040   8054     1  180.0000771  1.0460000  2
   8044   8041   8040   8054     1  0.0000000  0.7531200  3
   8044   8041   8040   8062     1  0.0000000  0.6508444  3
   8044   8045   8046   8050     1  0.0000000  0.6508444  3
   8044   8045   8046   8062     1  0.0000000  0.6508444  3
   8045   8044   8041   8053     1  0.0000000  0.6508444  3
   8046   8045   8044   8052     1  0.0000000  0.6508444  3
   8046   8062   8040   8054     1  180.0000771  0.4184000  2
   8046   8062   8040   8054     1  0.0000000  1.6024720  3
   8050   8046   8045   8051     1  0.0000000  4.9162000  2
   8050   8046   8045   8051     1  0.0000000  0.6024960  3
   8051   8045   8044   8052     1  0.0000000  4.9162000  2
   8051   8045   8044   8052     1  0.0000000  0.6024960  3
   8051   8045   8046   8062     1  0.0000000  4.9162000  2
   8051   8045   8046   8062     1  0.0000000  0.6024960  3
   8052   8044   8041   8053     1  0.0000000  4.9162000  2
   8052   8044   8041   8053     1  0.0000000  0.6024960  3
   8053   8041   8040   8054     1  0.0000000  0.6508444  3
   8053   8041   8040   8062     1  0.0000000  4.9162000  2
   8053   8041   8040   8062     1  0.0000000  0.6024960  3
   8060   8054   8040   8062     1  0.0000000  4.9162000  2
   8060   8054   8040   8062     1  0.0000000  0.6024960  3
   8063   8064   8067   8068     1  180.0000771  0.8368000  1
   8063   8064   8067   8068     1  180.0000771  1.0460000  2
   8063   8064   8067   8068     1  0.0000000  0.7531200  3
   8063   8064   8067   8075     1  0.0000000  0.6508444  3
   8063   8085   8069   8073     1  180.0000771  5.6484000  1
   8063   8085   8069   8073     1  180.0000771  3.5564000  2
   8063   8085   8069   8073     1  0.0000000  0.4184000  3
   8063   8085   8069   8068     1  180.0000771  0.4184000  2
   8063   8085   8069   8068     1  0.0000000  1.6024720  3
   8064   8067   8068   8069     1  180.0000771  0.8368000  1
   8064   8067   8068   8069     1  180.0000771  1.0460000  2
   8064   8067   8068   8069     1  0.0000000  0.7531200  3
   8064   8067   8068   8074     1  0.0000000  0.6508444  3
   8064   8063   8077   8083     1  0.0000000  0.6508444  3
   8064   8063   8085   8069     1  180.0000771  0.4184000  2
   8064   8063   8085   8069     1  0.0000000  1.6024720  3
   8067   8068   8069   8073     1  0.0000000  0.6508444  3
   8067   8068   8069   8085     1  0.0000000  0.6508444  3
   8067   8064   8063   8077     1  180.0000771  0.8368000  1
   8067   8064   8063   8077     1  180.0000771  1.0460000  2
   8067   8064   8063   8077     1  0.0000000  0.7531200  3
   8067   8064   8063   8085     1  0.0000000  0.6508444  3
   8068   8067   8064   8076     1  0.0000000  0.6508444  3
   8069   8085   8063   8077     1  180.0000771  0.4184000  2
   8069   8085   8063   8077     1  0.0000000  1.6024720  3
   8069   8068   8067   8075     1  0.0000000  0.6508444  3
   8073   8069   8068   8074     1  0.0000000  4.9162000  2
   8073   8069   8068   8074     1  0.0000000  0.6024960  3
   8074   8068   8069   8085     1  0.0000000  4.9162000  2
   8074   8068   8069   8085     1  0.0000000  0.6024960  3
   8074   8068   8067   8075     1  0.0000000  4.9162000  2
   8074   8068   8067   8075     1  0.0000000  0.6024960  3
   8075   8067   8064   8076     1  0.0000000  4.9162000  2
   8075   8067   8064   8076     1  0.0000000  0.6024960  3
   8076   8064   8063   8077     1  0.0000000  0.6508444  3
   8076   8064   8063   8085     1  0.0000000  4.9162000  2
   8076   8064   8063   8085     1  0.0000000  0.6024960  3
   8083   8077   8063   8085     1  0.0000000  4.9162000  2
   8083   8077   8063   8085     1  0.0000000  0.6024960  3
   8086   8087   8090   8091     1  180.0000771  0.8368000  1
   8086   8087   8090   8091     1  180.0000771  1.0460000  2
   8086   8087   8090   8091     1  0.0000000  0.7531200  3
   8086   8087   8090   8098     1  0.0000000  0.6508444  3
   8086   8108   8092   8091     1  180.0000771  0.4184000  2
   8086   8108   8092   8091     1  0.0000000  1.6024720  3
   8086   8108   8092   8096     1  180.0000771  5.6484000  1
   8086   8108   8092   8096     1  180.0000771  3.5564000  2
   8086   8108   8092   8096     1  0.0000000  0.4184000  3
   8087   8086   8100   8106     1  0.0000000  0.6508444  3
   8087   8086   8108   8092     1  180.0000771  0.4184000  2
   8087   8086   8108   8092     1  0.0000000  1.6024720  3
   8087   8090   8091   8092     1  180.0000771  0.8368000  1
   8087   8090   8091   8092     1  180.0000771  1.0460000  2
   8087   8090   8091   8092     1  0.0000000  0.7531200  3
   8087   8090   8091   8097     1  0.0000000  0.6508444  3
   8090   8087   8086   8100     1  180.0000771  0.8368000  1
   8090   8087   8086   8100     1  180.0000771  1.0460000  2
   8090   8087   8086   8100     1  0.0000000  0.7531200  3
   8090   8087   8086   8108     1  0.0000000  0.6508444  3
   8090   8091   8092   8096     1  0.0000000  0.6508444  3
   8090   8091   8092   8108     1  0.0000000  0.6508444  3
   8091   8090   8087   8099     1  0.0000000  0.6508444  3
   8092   8091   8090   8098     1  0.0000000  0.6508444  3
   8092   8108   8086   8100     1  180.0000771  0.4184000  2
   8092   8108   8086   8100     1  0.0000000  1.6024720  3
   8096   8092   8091   8097     1  0.0000000  4.9162000  2
   8096   8092   8091   8097     1  0.0000000  0.6024960  3
   8097   8091   8090   8098     1  0.0000000  4.9162000  2
   8097   8091   8090   8098     1  0.0000000  0.6024960  3
   8097   8091   8092   8108     1  0.0000000  4.9162000  2
   8097   8091   8092   8108     1  0.0000000  0.6024960  3
   8098   8090   8087   8099     1  0.0000000  4.9162000  2
   8098   8090   8087   8099     1  0.0000000  0.6024960  3
   8099   8087   8086   8100     1  0.0000000  0.6508444  3
   8099   8087   8086   8108     1  0.0000000  4.9162000  2
   8099   8087   8086   8108     1  0.0000000  0.6024960  3
   8106   8100   8086   8108     1  0.0000000  4.9162000  2
   8106   8100   8086   8108     1  0.0000000  0.6024960  3
   8109   8110   8113   8114     1  180.0000771  0.8368000  1
   8109   8110   8113   8114     1  180.0000771  1.0460000  2
   8109   8110   8113   8114     1  0.0000000  0.7531200  3
   8109   8110   8113   8121     1  0.0000000  0.6508444  3
   8109   8131   8115   8119     1  180.0000771  5.6484000  1
   8109   8131   8115   8119     1  180.0000771  3.5564000  2
   8109   8131   8115   8119     1  0.0000000  0.4184000  3
   8109   8131   8115   8114     1  180.0000771  0.4184000  2
   8109   8131   8115   8114     1  0.0000000  1.6024720  3
   8110   8113   8114   8115     1  180.0000771  0.8368000  1
   8110   8113   8114   8115     1  180.0000771  1.0460000  2
   8110   8113   8114   8115     1  0.0000000  0.7531200  3
   8110   8113   8114   8120     1  0.0000000  0.6508444  3
   8110   8109   8123   8129     1  0.0000000  0.6508444  3
   8110   8109   8131   8115     1  180.0000771  0.4184000  2
   8110   8109   8131   8115     1  0.0000000  1.6024720  3
   8113   8114   8115   8119     1  0.0000000  0.6508444  3
   8113   8114   8115   8131     1  0.0000000  0.6508444  3
   8113   8110   8109   8123     1  180.0000771  0.8368000  1
   8113   8110   8109   8123     1  180.0000771  1.0460000  2
   8113   8110   8109   8123     1  0.0000000  0.7531200  3
   8113   8110   8109   8131     1  0.0000000  0.6508444  3
   8114   8113   8110   8122     1  0.0000000  0.6508444  3
   8115   8131   8109   8123     1  180.0000771  0.4184000  2
   8115   8131   8109   8123     1  0.0000000  1.6024720  3
   8115   8114   8113   8121     1  0.0000000  0.6508444  3
   8119   8115   8114   8120     1  0.0000000  4.9162000  2
   8119   8115   8114   8120     1  0.0000000  0.6024960  3
   8120   8114   8115   8131     1  0.0000000  4.9162000  2
   8120   8114   8115   8131     1  0.0000000  0.6024960  3
   8120   8114   8113   8121     1  0.0000000  4.9162000  2
   8120   8114   8113   8121     1  0.0000000  0.6024960  3
   8121   8113   8110   8122     1  0.0000000  4.9162000  2
   8121   8113   8110   8122     1  0.0000000  0.6024960  3
   8122   8110   8109   8123     1  0.0000000  0.6508444  3
   8122   8110   8109   8131     1  0.0000000  4.9162000  2
   8122   8110   8109   8131     1  0.0000000  0.6024960  3
   8129   8123   8109   8131     1  0.0000000  4.9162000  2
   8129   8123   8109   8131     1  0.0000000  0.6024960  3
   8132   8133   8136   8137     1  180.0000771  0.8368000  1
   8132   8133   8136   8137     1  180.0000771  1.0460000  2
   8132   8133   8136   8137     1  0.0000000  0.7531200  3
   8132   8133   8136   8144     1  0.0000000  0.6508444  3
   8132   8154   8138   8137     1  180.0000771  0.4184000  2
   8132   8154   8138   8137     1  0.0000000  1.6024720  3
   8132   8154   8138   8142     1  180.0000771  5.6484000  1
   8132   8154   8138   8142     1  180.0000771  3.5564000  2
   8132   8154   8138   8142     1  0.0000000  0.4184000  3
   8133   8132   8146   8152     1  0.0000000  0.6508444  3
   8133   8132   8154   8138     1  180.0000771  0.4184000  2
   8133   8132   8154   8138     1  0.0000000  1.6024720  3
   8133   8136   8137   8138     1  180.0000771  0.8368000  1
   8133   8136   8137   8138     1  180.0000771  1.0460000  2
   8133   8136   8137   8138     1  0.0000000  0.7531200  3
   8133   8136   8137   8143     1  0.0000000  0.6508444  3
   8136   8133   8132   8146     1  180.0000771  0.8368000  1
   8136   8133   8132   8146     1  180.0000771  1.0460000  2
   8136   8133   8132   8146     1  0.0000000  0.7531200  3
   8136   8133   8132   8154     1  0.0000000  0.6508444  3
   8136   8137   8138   8142     1  0.0000000  0.6508444  3
   8136   8137   8138   8154     1  0.0000000  0.6508444  3
   8137   8136   8133   8145     1  0.0000000  0.6508444  3
   8138   8137   8136   8144     1  0.0000000  0.6508444  3
   8138   8154   8132   8146     1  180.0000771  0.4184000  2
   8138   8154   8132   8146     1  0.0000000  1.6024720  3
   8142   8138   8137   8143     1  0.0000000  4.9162000  2
   8142   8138   8137   8143     1  0.0000000  0.6024960  3
   8143   8137   8136   8144     1  0.0000000  4.9162000  2
   8143   8137   8136   8144     1  0.0000000  0.6024960  3
   8143   8137   8138   8154     1  0.0000000  4.9162000  2
   8143   8137   8138   8154     1  0.0000000  0.6024960  3
   8144   8136   8133   8145     1  0.0000000  4.9162000  2
   8144   8136   8133   8145     1  0.0000000  0.6024960  3
   8145   8133   8132   8146     1  0.0000000  0.6508444  3
   8145   8133   8132   8154     1  0.0000000  4.9162000  2
   8145   8133   8132   8154     1  0.0000000  0.6024960  3
   8152   8146   8132   8154     1  0.0000000  4.9162000  2
   8152   8146   8132   8154     1  0.0000000  0.6024960  3
   8155   8156   8159   8160     1  180.0000771  0.8368000  1
   8155   8156   8159   8160     1  180.0000771  1.0460000  2
   8155   8156   8159   8160     1  0.0000000  0.7531200  3
   8155   8156   8159   8167     1  0.0000000  0.6508444  3
   8155   8177   8161   8165     1  180.0000771  5.6484000  1
   8155   8177   8161   8165     1  180.0000771  3.5564000  2
   8155   8177   8161   8165     1  0.0000000  0.4184000  3
   8155   8177   8161   8160     1  180.0000771  0.4184000  2
   8155   8177   8161   8160     1  0.0000000  1.6024720  3
   8156   8159   8160   8161     1  180.0000771  0.8368000  1
   8156   8159   8160   8161     1  180.0000771  1.0460000  2
   8156   8159   8160   8161     1  0.0000000  0.7531200  3
   8156   8159   8160   8166     1  0.0000000  0.6508444  3
   8156   8155   8169   8175     1  0.0000000  0.6508444  3
   8156   8155   8177   8161     1  180.0000771  0.4184000  2
   8156   8155   8177   8161     1  0.0000000  1.6024720  3
   8159   8160   8161   8165     1  0.0000000  0.6508444  3
   8159   8160   8161   8177     1  0.0000000  0.6508444  3
   8159   8156   8155   8169     1  180.0000771  0.8368000  1
   8159   8156   8155   8169     1  180.0000771  1.0460000  2
   8159   8156   8155   8169     1  0.0000000  0.7531200  3
   8159   8156   8155   8177     1  0.0000000  0.6508444  3
   8160   8159   8156   8168     1  0.0000000  0.6508444  3
   8161   8177   8155   8169     1  180.0000771  0.4184000  2
   8161   8177   8155   8169     1  0.0000000  1.6024720  3
   8161   8160   8159   8167     1  0.0000000  0.6508444  3
   8165   8161   8160   8166     1  0.0000000  4.9162000  2
   8165   8161   8160   8166     1  0.0000000  0.6024960  3
   8166   8160   8161   8177     1  0.0000000  4.9162000  2
   8166   8160   8161   8177     1  0.0000000  0.6024960  3
   8166   8160   8159   8167     1  0.0000000  4.9162000  2
   8166   8160   8159   8167     1  0.0000000  0.6024960  3
   8167   8159   8156   8168     1  0.0000000  4.9162000  2
   8167   8159   8156   8168     1  0.0000000  0.6024960  3
   8168   8156   8155   8169     1  0.0000000  0.6508444  3
   8168   8156   8155   8177     1  0.0000000  4.9162000  2
   8168   8156   8155   8177     1  0.0000000  0.6024960  3
   8175   8169   8155   8177     1  0.0000000  4.9162000  2
   8175   8169   8155   8177     1  0.0000000  0.6024960  3
   8178   8179   8182   8183     1  180.0000771  0.8368000  1
   8178   8179   8182   8183     1  180.0000771  1.0460000  2
   8178   8179   8182   8183     1  0.0000000  0.7531200  3
   8178   8179   8182   8190     1  0.0000000  0.6508444  3
   8178   8200   8184   8183     1  180.0000771  0.4184000  2
   8178   8200   8184   8183     1  0.0000000  1.6024720  3
   8178   8200   8184   8188     1  180.0000771  5.6484000  1
   8178   8200   8184   8188     1  180.0000771  3.5564000  2
   8178   8200   8184   8188     1  0.0000000  0.4184000  3
   8179   8178   8192   8198     1  0.0000000  0.6508444  3
   8179   8178   8200   8184     1  180.0000771  0.4184000  2
   8179   8178   8200   8184     1  0.0000000  1.6024720  3
   8179   8182   8183   8184     1  180.0000771  0.8368000  1
   8179   8182   8183   8184     1  180.0000771  1.0460000  2
   8179   8182   8183   8184     1  0.0000000  0.7531200  3
   8179   8182   8183   8189     1  0.0000000  0.6508444  3
   8182   8179   8178   8192     1  180.0000771  0.8368000  1
   8182   8179   8178   8192     1  180.0000771  1.0460000  2
   8182   8179   8178   8192     1  0.0000000  0.7531200  3
   8182   8179   8178   8200     1  0.0000000  0.6508444  3
   8182   8183   8184   8188     1  0.0000000  0.6508444  3
   8182   8183   8184   8200     1  0.0000000  0.6508444  3
   8183   8182   8179   8191     1  0.0000000  0.6508444  3
   8184   8183   8182   8190     1  0.0000000  0.6508444  3
   8184   8200   8178   8192     1  180.0000771  0.4184000  2
   8184   8200   8178   8192     1  0.0000000  1.6024720  3
   8188   8184   8183   8189     1  0.0000000  4.9162000  2
   8188   8184   8183   8189     1  0.0000000  0.6024960  3
   8189   8183   8182   8190     1  0.0000000  4.9162000  2
   8189   8183   8182   8190     1  0.0000000  0.6024960  3
   8189   8183   8184   8200     1  0.0000000  4.9162000  2
   8189   8183   8184   8200     1  0.0000000  0.6024960  3
   8190   8182   8179   8191     1  0.0000000  4.9162000  2
   8190   8182   8179   8191     1  0.0000000  0.6024960  3
   8191   8179   8178   8192     1  0.0000000  0.6508444  3
   8191   8179   8178   8200     1  0.0000000  4.9162000  2
   8191   8179   8178   8200     1  0.0000000  0.6024960  3
   8198   8192   8178   8200     1  0.0000000  4.9162000  2
   8198   8192   8178   8200     1  0.0000000  0.6024960  3
   8201   8202   8205   8206     1  180.0000771  0.8368000  1
   8201   8202   8205   8206     1  180.0000771  1.0460000  2
   8201   8202   8205   8206     1  0.0000000  0.7531200  3
   8201   8202   8205   8213     1  0.0000000  0.6508444  3
   8201   8223   8207   8211     1  180.0000771  5.6484000  1
   8201   8223   8207   8211     1  180.0000771  3.5564000  2
   8201   8223   8207   8211     1  0.0000000  0.4184000  3
   8201   8223   8207   8206     1  180.0000771  0.4184000  2
   8201   8223   8207   8206     1  0.0000000  1.6024720  3
   8202   8205   8206   8207     1  180.0000771  0.8368000  1
   8202   8205   8206   8207     1  180.0000771  1.0460000  2
   8202   8205   8206   8207     1  0.0000000  0.7531200  3
   8202   8205   8206   8212     1  0.0000000  0.6508444  3
   8202   8201   8215   8221     1  0.0000000  0.6508444  3
   8202   8201   8223   8207     1  180.0000771  0.4184000  2
   8202   8201   8223   8207     1  0.0000000  1.6024720  3
   8205   8206   8207   8211     1  0.0000000  0.6508444  3
   8205   8206   8207   8223     1  0.0000000  0.6508444  3
   8205   8202   8201   8215     1  180.0000771  0.8368000  1
   8205   8202   8201   8215     1  180.0000771  1.0460000  2
   8205   8202   8201   8215     1  0.0000000  0.7531200  3
   8205   8202   8201   8223     1  0.0000000  0.6508444  3
   8206   8205   8202   8214     1  0.0000000  0.6508444  3
   8207   8223   8201   8215     1  180.0000771  0.4184000  2
   8207   8223   8201   8215     1  0.0000000  1.6024720  3
   8207   8206   8205   8213     1  0.0000000  0.6508444  3
   8211   8207   8206   8212     1  0.0000000  4.9162000  2
   8211   8207   8206   8212     1  0.0000000  0.6024960  3
   8212   8206   8207   8223     1  0.0000000  4.9162000  2
   8212   8206   8207   8223     1  0.0000000  0.6024960  3
   8212   8206   8205   8213     1  0.0000000  4.9162000  2
   8212   8206   8205   8213     1  0.0000000  0.6024960  3
   8213   8205   8202   8214     1  0.0000000  4.9162000  2
   8213   8205   8202   8214     1  0.0000000  0.6024960  3
   8214   8202   8201   8215     1  0.0000000  0.6508444  3
   8214   8202   8201   8223     1  0.0000000  4.9162000  2
   8214   8202   8201   8223     1  0.0000000  0.6024960  3
   8221   8215   8201   8223     1  0.0000000  4.9162000  2
   8221   8215   8201   8223     1  0.0000000  0.6024960  3
   8224   8225   8228   8229     1  180.0000771  0.8368000  1
   8224   8225   8228   8229     1  180.0000771  1.0460000  2
   8224   8225   8228   8229     1  0.0000000  0.7531200  3
   8224   8225   8228   8236     1  0.0000000  0.6508444  3
   8224   8246   8230   8229     1  180.0000771  0.4184000  2
   8224   8246   8230   8229     1  0.0000000  1.6024720  3
   8224   8246   8230   8234     1  180.0000771  5.6484000  1
   8224   8246   8230   8234     1  180.0000771  3.5564000  2
   8224   8246   8230   8234     1  0.0000000  0.4184000  3
   8225   8224   8238   8244     1  0.0000000  0.6508444  3
   8225   8224   8246   8230     1  180.0000771  0.4184000  2
   8225   8224   8246   8230     1  0.0000000  1.6024720  3
   8225   8228   8229   8230     1  180.0000771  0.8368000  1
   8225   8228   8229   8230     1  180.0000771  1.0460000  2
   8225   8228   8229   8230     1  0.0000000  0.7531200  3
   8225   8228   8229   8235     1  0.0000000  0.6508444  3
   8228   8225   8224   8238     1  180.0000771  0.8368000  1
   8228   8225   8224   8238     1  180.0000771  1.0460000  2
   8228   8225   8224   8238     1  0.0000000  0.7531200  3
   8228   8225   8224   8246     1  0.0000000  0.6508444  3
   8228   8229   8230   8234     1  0.0000000  0.6508444  3
   8228   8229   8230   8246     1  0.0000000  0.6508444  3
   8229   8228   8225   8237     1  0.0000000  0.6508444  3
   8230   8229   8228   8236     1  0.0000000  0.6508444  3
   8230   8246   8224   8238     1  180.0000771  0.4184000  2
   8230   8246   8224   8238     1  0.0000000  1.6024720  3
   8234   8230   8229   8235     1  0.0000000  4.9162000  2
   8234   8230   8229   8235     1  0.0000000  0.6024960  3
   8235   8229   8228   8236     1  0.0000000  4.9162000  2
   8235   8229   8228   8236     1  0.0000000  0.6024960  3
   8235   8229   8230   8246     1  0.0000000  4.9162000  2
   8235   8229   8230   8246     1  0.0000000  0.6024960  3
   8236   8228   8225   8237     1  0.0000000  4.9162000  2
   8236   8228   8225   8237     1  0.0000000  0.6024960  3
   8237   8225   8224   8238     1  0.0000000  0.6508444  3
   8237   8225   8224   8246     1  0.0000000  4.9162000  2
   8237   8225   8224   8246     1  0.0000000  0.6024960  3
   8244   8238   8224   8246     1  0.0000000  4.9162000  2
   8244   8238   8224   8246     1  0.0000000  0.6024960  3
   8247   8248   8251   8252     1  180.0000771  0.8368000  1
   8247   8248   8251   8252     1  180.0000771  1.0460000  2
   8247   8248   8251   8252     1  0.0000000  0.7531200  3
   8247   8248   8251   8259     1  0.0000000  0.6508444  3
   8247   8269   8253   8257     1  180.0000771  5.6484000  1
   8247   8269   8253   8257     1  180.0000771  3.5564000  2
   8247   8269   8253   8257     1  0.0000000  0.4184000  3
   8247   8269   8253   8252     1  180.0000771  0.4184000  2
   8247   8269   8253   8252     1  0.0000000  1.6024720  3
   8248   8251   8252   8253     1  180.0000771  0.8368000  1
   8248   8251   8252   8253     1  180.0000771  1.0460000  2
   8248   8251   8252   8253     1  0.0000000  0.7531200  3
   8248   8251   8252   8258     1  0.0000000  0.6508444  3
   8248   8247   8261   8267     1  0.0000000  0.6508444  3
   8248   8247   8269   8253     1  180.0000771  0.4184000  2
   8248   8247   8269   8253     1  0.0000000  1.6024720  3
   8251   8252   8253   8257     1  0.0000000  0.6508444  3
   8251   8252   8253   8269     1  0.0000000  0.6508444  3
   8251   8248   8247   8261     1  180.0000771  0.8368000  1
   8251   8248   8247   8261     1  180.0000771  1.0460000  2
   8251   8248   8247   8261     1  0.0000000  0.7531200  3
   8251   8248   8247   8269     1  0.0000000  0.6508444  3
   8252   8251   8248   8260     1  0.0000000  0.6508444  3
   8253   8269   8247   8261     1  180.0000771  0.4184000  2
   8253   8269   8247   8261     1  0.0000000  1.6024720  3
   8253   8252   8251   8259     1  0.0000000  0.6508444  3
   8257   8253   8252   8258     1  0.0000000  4.9162000  2
   8257   8253   8252   8258     1  0.0000000  0.6024960  3
   8258   8252   8253   8269     1  0.0000000  4.9162000  2
   8258   8252   8253   8269     1  0.0000000  0.6024960  3
   8258   8252   8251   8259     1  0.0000000  4.9162000  2
   8258   8252   8251   8259     1  0.0000000  0.6024960  3
   8259   8251   8248   8260     1  0.0000000  4.9162000  2
   8259   8251   8248   8260     1  0.0000000  0.6024960  3
   8260   8248   8247   8261     1  0.0000000  0.6508444  3
   8260   8248   8247   8269     1  0.0000000  4.9162000  2
   8260   8248   8247   8269     1  0.0000000  0.6024960  3
   8267   8261   8247   8269     1  0.0000000  4.9162000  2
   8267   8261   8247   8269     1  0.0000000  0.6024960  3
   8270   8271   8274   8275     1  180.0000771  0.8368000  1
   8270   8271   8274   8275     1  180.0000771  1.0460000  2
   8270   8271   8274   8275     1  0.0000000  0.7531200  3
   8270   8271   8274   8282     1  0.0000000  0.6508444  3
   8270   8292   8276   8275     1  180.0000771  0.4184000  2
   8270   8292   8276   8275     1  0.0000000  1.6024720  3
   8270   8292   8276   8280     1  180.0000771  5.6484000  1
   8270   8292   8276   8280     1  180.0000771  3.5564000  2
   8270   8292   8276   8280     1  0.0000000  0.4184000  3
   8271   8270   8284   8290     1  0.0000000  0.6508444  3
   8271   8270   8292   8276     1  180.0000771  0.4184000  2
   8271   8270   8292   8276     1  0.0000000  1.6024720  3
   8271   8274   8275   8276     1  180.0000771  0.8368000  1
   8271   8274   8275   8276     1  180.0000771  1.0460000  2
   8271   8274   8275   8276     1  0.0000000  0.7531200  3
   8271   8274   8275   8281     1  0.0000000  0.6508444  3
   8274   8271   8270   8284     1  180.0000771  0.8368000  1
   8274   8271   8270   8284     1  180.0000771  1.0460000  2
   8274   8271   8270   8284     1  0.0000000  0.7531200  3
   8274   8271   8270   8292     1  0.0000000  0.6508444  3
   8274   8275   8276   8280     1  0.0000000  0.6508444  3
   8274   8275   8276   8292     1  0.0000000  0.6508444  3
   8275   8274   8271   8283     1  0.0000000  0.6508444  3
   8276   8275   8274   8282     1  0.0000000  0.6508444  3
   8276   8292   8270   8284     1  180.0000771  0.4184000  2
   8276   8292   8270   8284     1  0.0000000  1.6024720  3
   8280   8276   8275   8281     1  0.0000000  4.9162000  2
   8280   8276   8275   8281     1  0.0000000  0.6024960  3
   8281   8275   8274   8282     1  0.0000000  4.9162000  2
   8281   8275   8274   8282     1  0.0000000  0.6024960  3
   8281   8275   8276   8292     1  0.0000000  4.9162000  2
   8281   8275   8276   8292     1  0.0000000  0.6024960  3
   8282   8274   8271   8283     1  0.0000000  4.9162000  2
   8282   8274   8271   8283     1  0.0000000  0.6024960  3
   8283   8271   8270   8284     1  0.0000000  0.6508444  3
   8283   8271   8270   8292     1  0.0000000  4.9162000  2
   8283   8271   8270   8292     1  0.0000000  0.6024960  3
   8290   8284   8270   8292     1  0.0000000  4.9162000  2
   8290   8284   8270   8292     1  0.0000000  0.6024960  3
   8293   8294   8297   8298     1  180.0000771  0.8368000  1
   8293   8294   8297   8298     1  180.0000771  1.0460000  2
   8293   8294   8297   8298     1  0.0000000  0.7531200  3
   8293   8294   8297   8305     1  0.0000000  0.6508444  3
   8293   8315   8299   8303     1  180.0000771  5.6484000  1
   8293   8315   8299   8303     1  180.0000771  3.5564000  2
   8293   8315   8299   8303     1  0.0000000  0.4184000  3
   8293   8315   8299   8298     1  180.0000771  0.4184000  2
   8293   8315   8299   8298     1  0.0000000  1.6024720  3
   8294   8297   8298   8299     1  180.0000771  0.8368000  1
   8294   8297   8298   8299     1  180.0000771  1.0460000  2
   8294   8297   8298   8299     1  0.0000000  0.7531200  3
   8294   8297   8298   8304     1  0.0000000  0.6508444  3
   8294   8293   8307   8313     1  0.0000000  0.6508444  3
   8294   8293   8315   8299     1  180.0000771  0.4184000  2
   8294   8293   8315   8299     1  0.0000000  1.6024720  3
   8297   8298   8299   8303     1  0.0000000  0.6508444  3
   8297   8298   8299   8315     1  0.0000000  0.6508444  3
   8297   8294   8293   8307     1  180.0000771  0.8368000  1
   8297   8294   8293   8307     1  180.0000771  1.0460000  2
   8297   8294   8293   8307     1  0.0000000  0.7531200  3
   8297   8294   8293   8315     1  0.0000000  0.6508444  3
   8298   8297   8294   8306     1  0.0000000  0.6508444  3
   8299   8315   8293   8307     1  180.0000771  0.4184000  2
   8299   8315   8293   8307     1  0.0000000  1.6024720  3
   8299   8298   8297   8305     1  0.0000000  0.6508444  3
   8303   8299   8298   8304     1  0.0000000  4.9162000  2
   8303   8299   8298   8304     1  0.0000000  0.6024960  3
   8304   8298   8299   8315     1  0.0000000  4.9162000  2
   8304   8298   8299   8315     1  0.0000000  0.6024960  3
   8304   8298   8297   8305     1  0.0000000  4.9162000  2
   8304   8298   8297   8305     1  0.0000000  0.6024960  3
   8305   8297   8294   8306     1  0.0000000  4.9162000  2
   8305   8297   8294   8306     1  0.0000000  0.6024960  3
   8306   8294   8293   8307     1  0.0000000  0.6508444  3
   8306   8294   8293   8315     1  0.0000000  4.9162000  2
   8306   8294   8293   8315     1  0.0000000  0.6024960  3
   8313   8307   8293   8315     1  0.0000000  4.9162000  2
   8313   8307   8293   8315     1  0.0000000  0.6024960  3
   8316   8317   8320   8321     1  180.0000771  0.8368000  1
   8316   8317   8320   8321     1  180.0000771  1.0460000  2
   8316   8317   8320   8321     1  0.0000000  0.7531200  3
   8316   8317   8320   8328     1  0.0000000  0.6508444  3
   8316   8338   8322   8321     1  180.0000771  0.4184000  2
   8316   8338   8322   8321     1  0.0000000  1.6024720  3
   8316   8338   8322   8326     1  180.0000771  5.6484000  1
   8316   8338   8322   8326     1  180.0000771  3.5564000  2
   8316   8338   8322   8326     1  0.0000000  0.4184000  3
   8317   8316   8330   8336     1  0.0000000  0.6508444  3
   8317   8316   8338   8322     1  180.0000771  0.4184000  2
   8317   8316   8338   8322     1  0.0000000  1.6024720  3
   8317   8320   8321   8322     1  180.0000771  0.8368000  1
   8317   8320   8321   8322     1  180.0000771  1.0460000  2
   8317   8320   8321   8322     1  0.0000000  0.7531200  3
   8317   8320   8321   8327     1  0.0000000  0.6508444  3
   8320   8317   8316   8330     1  180.0000771  0.8368000  1
   8320   8317   8316   8330     1  180.0000771  1.0460000  2
   8320   8317   8316   8330     1  0.0000000  0.7531200  3
   8320   8317   8316   8338     1  0.0000000  0.6508444  3
   8320   8321   8322   8326     1  0.0000000  0.6508444  3
   8320   8321   8322   8338     1  0.0000000  0.6508444  3
   8321   8320   8317   8329     1  0.0000000  0.6508444  3
   8322   8321   8320   8328     1  0.0000000  0.6508444  3
   8322   8338   8316   8330     1  180.0000771  0.4184000  2
   8322   8338   8316   8330     1  0.0000000  1.6024720  3
   8326   8322   8321   8327     1  0.0000000  4.9162000  2
   8326   8322   8321   8327     1  0.0000000  0.6024960  3
   8327   8321   8320   8328     1  0.0000000  4.9162000  2
   8327   8321   8320   8328     1  0.0000000  0.6024960  3
   8327   8321   8322   8338     1  0.0000000  4.9162000  2
   8327   8321   8322   8338     1  0.0000000  0.6024960  3
   8328   8320   8317   8329     1  0.0000000  4.9162000  2
   8328   8320   8317   8329     1  0.0000000  0.6024960  3
   8329   8317   8316   8330     1  0.0000000  0.6508444  3
   8329   8317   8316   8338     1  0.0000000  4.9162000  2
   8329   8317   8316   8338     1  0.0000000  0.6024960  3
   8336   8330   8316   8338     1  0.0000000  4.9162000  2
   8336   8330   8316   8338     1  0.0000000  0.6024960  3
   8339   8340   8343   8344     1  180.0000771  0.8368000  1
   8339   8340   8343   8344     1  180.0000771  1.0460000  2
   8339   8340   8343   8344     1  0.0000000  0.7531200  3
   8339   8340   8343   8351     1  0.0000000  0.6508444  3
   8339   8361   8345   8349     1  180.0000771  5.6484000  1
   8339   8361   8345   8349     1  180.0000771  3.5564000  2
   8339   8361   8345   8349     1  0.0000000  0.4184000  3
   8339   8361   8345   8344     1  180.0000771  0.4184000  2
   8339   8361   8345   8344     1  0.0000000  1.6024720  3
   8340   8343   8344   8345     1  180.0000771  0.8368000  1
   8340   8343   8344   8345     1  180.0000771  1.0460000  2
   8340   8343   8344   8345     1  0.0000000  0.7531200  3
   8340   8343   8344   8350     1  0.0000000  0.6508444  3
   8340   8339   8353   8359     1  0.0000000  0.6508444  3
   8340   8339   8361   8345     1  180.0000771  0.4184000  2
   8340   8339   8361   8345     1  0.0000000  1.6024720  3
   8343   8344   8345   8349     1  0.0000000  0.6508444  3
   8343   8344   8345   8361     1  0.0000000  0.6508444  3
   8343   8340   8339   8353     1  180.0000771  0.8368000  1
   8343   8340   8339   8353     1  180.0000771  1.0460000  2
   8343   8340   8339   8353     1  0.0000000  0.7531200  3
   8343   8340   8339   8361     1  0.0000000  0.6508444  3
   8344   8343   8340   8352     1  0.0000000  0.6508444  3
   8345   8361   8339   8353     1  180.0000771  0.4184000  2
   8345   8361   8339   8353     1  0.0000000  1.6024720  3
   8345   8344   8343   8351     1  0.0000000  0.6508444  3
   8349   8345   8344   8350     1  0.0000000  4.9162000  2
   8349   8345   8344   8350     1  0.0000000  0.6024960  3
   8350   8344   8345   8361     1  0.0000000  4.9162000  2
   8350   8344   8345   8361     1  0.0000000  0.6024960  3
   8350   8344   8343   8351     1  0.0000000  4.9162000  2
   8350   8344   8343   8351     1  0.0000000  0.6024960  3
   8351   8343   8340   8352     1  0.0000000  4.9162000  2
   8351   8343   8340   8352     1  0.0000000  0.6024960  3
   8352   8340   8339   8353     1  0.0000000  0.6508444  3
   8352   8340   8339   8361     1  0.0000000  4.9162000  2
   8352   8340   8339   8361     1  0.0000000  0.6024960  3
   8359   8353   8339   8361     1  0.0000000  4.9162000  2
   8359   8353   8339   8361     1  0.0000000  0.6024960  3
   8362   8363   8366   8367     1  180.0000771  0.8368000  1
   8362   8363   8366   8367     1  180.0000771  1.0460000  2
   8362   8363   8366   8367     1  0.0000000  0.7531200  3
   8362   8363   8366   8374     1  0.0000000  0.6508444  3
   8362   8384   8368   8367     1  180.0000771  0.4184000  2
   8362   8384   8368   8367     1  0.0000000  1.6024720  3
   8362   8384   8368   8372     1  180.0000771  5.6484000  1
   8362   8384   8368   8372     1  180.0000771  3.5564000  2
   8362   8384   8368   8372     1  0.0000000  0.4184000  3
   8363   8362   8376   8382     1  0.0000000  0.6508444  3
   8363   8362   8384   8368     1  180.0000771  0.4184000  2
   8363   8362   8384   8368     1  0.0000000  1.6024720  3
   8363   8366   8367   8368     1  180.0000771  0.8368000  1
   8363   8366   8367   8368     1  180.0000771  1.0460000  2
   8363   8366   8367   8368     1  0.0000000  0.7531200  3
   8363   8366   8367   8373     1  0.0000000  0.6508444  3
   8366   8363   8362   8376     1  180.0000771  0.8368000  1
   8366   8363   8362   8376     1  180.0000771  1.0460000  2
   8366   8363   8362   8376     1  0.0000000  0.7531200  3
   8366   8363   8362   8384     1  0.0000000  0.6508444  3
   8366   8367   8368   8372     1  0.0000000  0.6508444  3
   8366   8367   8368   8384     1  0.0000000  0.6508444  3
   8367   8366   8363   8375     1  0.0000000  0.6508444  3
   8368   8367   8366   8374     1  0.0000000  0.6508444  3
   8368   8384   8362   8376     1  180.0000771  0.4184000  2
   8368   8384   8362   8376     1  0.0000000  1.6024720  3
   8372   8368   8367   8373     1  0.0000000  4.9162000  2
   8372   8368   8367   8373     1  0.0000000  0.6024960  3
   8373   8367   8366   8374     1  0.0000000  4.9162000  2
   8373   8367   8366   8374     1  0.0000000  0.6024960  3
   8373   8367   8368   8384     1  0.0000000  4.9162000  2
   8373   8367   8368   8384     1  0.0000000  0.6024960  3
   8374   8366   8363   8375     1  0.0000000  4.9162000  2
   8374   8366   8363   8375     1  0.0000000  0.6024960  3
   8375   8363   8362   8376     1  0.0000000  0.6508444  3
   8375   8363   8362   8384     1  0.0000000  4.9162000  2
   8375   8363   8362   8384     1  0.0000000  0.6024960  3
   8382   8376   8362   8384     1  0.0000000  4.9162000  2
   8382   8376   8362   8384     1  0.0000000  0.6024960  3
   8385   8386   8389   8390     1  180.0000771  0.8368000  1
   8385   8386   8389   8390     1  180.0000771  1.0460000  2
   8385   8386   8389   8390     1  0.0000000  0.7531200  3
   8385   8386   8389   8397     1  0.0000000  0.6508444  3
   8385   8407   8391   8395     1  180.0000771  5.6484000  1
   8385   8407   8391   8395     1  180.0000771  3.5564000  2
   8385   8407   8391   8395     1  0.0000000  0.4184000  3
   8385   8407   8391   8390     1  180.0000771  0.4184000  2
   8385   8407   8391   8390     1  0.0000000  1.6024720  3
   8386   8389   8390   8391     1  180.0000771  0.8368000  1
   8386   8389   8390   8391     1  180.0000771  1.0460000  2
   8386   8389   8390   8391     1  0.0000000  0.7531200  3
   8386   8389   8390   8396     1  0.0000000  0.6508444  3
   8386   8385   8399   8405     1  0.0000000  0.6508444  3
   8386   8385   8407   8391     1  180.0000771  0.4184000  2
   8386   8385   8407   8391     1  0.0000000  1.6024720  3
   8389   8390   8391   8395     1  0.0000000  0.6508444  3
   8389   8390   8391   8407     1  0.0000000  0.6508444  3
   8389   8386   8385   8399     1  180.0000771  0.8368000  1
   8389   8386   8385   8399     1  180.0000771  1.0460000  2
   8389   8386   8385   8399     1  0.0000000  0.7531200  3
   8389   8386   8385   8407     1  0.0000000  0.6508444  3
   8390   8389   8386   8398     1  0.0000000  0.6508444  3
   8391   8407   8385   8399     1  180.0000771  0.4184000  2
   8391   8407   8385   8399     1  0.0000000  1.6024720  3
   8391   8390   8389   8397     1  0.0000000  0.6508444  3
   8395   8391   8390   8396     1  0.0000000  4.9162000  2
   8395   8391   8390   8396     1  0.0000000  0.6024960  3
   8396   8390   8391   8407     1  0.0000000  4.9162000  2
   8396   8390   8391   8407     1  0.0000000  0.6024960  3
   8396   8390   8389   8397     1  0.0000000  4.9162000  2
   8396   8390   8389   8397     1  0.0000000  0.6024960  3
   8397   8389   8386   8398     1  0.0000000  4.9162000  2
   8397   8389   8386   8398     1  0.0000000  0.6024960  3
   8398   8386   8385   8399     1  0.0000000  0.6508444  3
   8398   8386   8385   8407     1  0.0000000  4.9162000  2
   8398   8386   8385   8407     1  0.0000000  0.6024960  3
   8405   8399   8385   8407     1  0.0000000  4.9162000  2
   8405   8399   8385   8407     1  0.0000000  0.6024960  3
   8408   8409   8412   8413     1  180.0000771  0.8368000  1
   8408   8409   8412   8413     1  180.0000771  1.0460000  2
   8408   8409   8412   8413     1  0.0000000  0.7531200  3
   8408   8409   8412   8420     1  0.0000000  0.6508444  3
   8408   8430   8414   8413     1  180.0000771  0.4184000  2
   8408   8430   8414   8413     1  0.0000000  1.6024720  3
   8408   8430   8414   8418     1  180.0000771  5.6484000  1
   8408   8430   8414   8418     1  180.0000771  3.5564000  2
   8408   8430   8414   8418     1  0.0000000  0.4184000  3
   8409   8408   8422   8428     1  0.0000000  0.6508444  3
   8409   8408   8430   8414     1  180.0000771  0.4184000  2
   8409   8408   8430   8414     1  0.0000000  1.6024720  3
   8409   8412   8413   8414     1  180.0000771  0.8368000  1
   8409   8412   8413   8414     1  180.0000771  1.0460000  2
   8409   8412   8413   8414     1  0.0000000  0.7531200  3
   8409   8412   8413   8419     1  0.0000000  0.6508444  3
   8412   8409   8408   8422     1  180.0000771  0.8368000  1
   8412   8409   8408   8422     1  180.0000771  1.0460000  2
   8412   8409   8408   8422     1  0.0000000  0.7531200  3
   8412   8409   8408   8430     1  0.0000000  0.6508444  3
   8412   8413   8414   8418     1  0.0000000  0.6508444  3
   8412   8413   8414   8430     1  0.0000000  0.6508444  3
   8413   8412   8409   8421     1  0.0000000  0.6508444  3
   8414   8413   8412   8420     1  0.0000000  0.6508444  3
   8414   8430   8408   8422     1  180.0000771  0.4184000  2
   8414   8430   8408   8422     1  0.0000000  1.6024720  3
   8418   8414   8413   8419     1  0.0000000  4.9162000  2
   8418   8414   8413   8419     1  0.0000000  0.6024960  3
   8419   8413   8412   8420     1  0.0000000  4.9162000  2
   8419   8413   8412   8420     1  0.0000000  0.6024960  3
   8419   8413   8414   8430     1  0.0000000  4.9162000  2
   8419   8413   8414   8430     1  0.0000000  0.6024960  3
   8420   8412   8409   8421     1  0.0000000  4.9162000  2
   8420   8412   8409   8421     1  0.0000000  0.6024960  3
   8421   8409   8408   8422     1  0.0000000  0.6508444  3
   8421   8409   8408   8430     1  0.0000000  4.9162000  2
   8421   8409   8408   8430     1  0.0000000  0.6024960  3
   8428   8422   8408   8430     1  0.0000000  4.9162000  2
   8428   8422   8408   8430     1  0.0000000  0.6024960  3
   8431   8432   8435   8436     1  180.0000771  0.8368000  1
   8431   8432   8435   8436     1  180.0000771  1.0460000  2
   8431   8432   8435   8436     1  0.0000000  0.7531200  3
   8431   8432   8435   8443     1  0.0000000  0.6508444  3
   8431   8453   8437   8441     1  180.0000771  5.6484000  1
   8431   8453   8437   8441     1  180.0000771  3.5564000  2
   8431   8453   8437   8441     1  0.0000000  0.4184000  3
   8431   8453   8437   8436     1  180.0000771  0.4184000  2
   8431   8453   8437   8436     1  0.0000000  1.6024720  3
   8432   8435   8436   8437     1  180.0000771  0.8368000  1
   8432   8435   8436   8437     1  180.0000771  1.0460000  2
   8432   8435   8436   8437     1  0.0000000  0.7531200  3
   8432   8435   8436   8442     1  0.0000000  0.6508444  3
   8432   8431   8445   8451     1  0.0000000  0.6508444  3
   8432   8431   8453   8437     1  180.0000771  0.4184000  2
   8432   8431   8453   8437     1  0.0000000  1.6024720  3
   8435   8436   8437   8441     1  0.0000000  0.6508444  3
   8435   8436   8437   8453     1  0.0000000  0.6508444  3
   8435   8432   8431   8445     1  180.0000771  0.8368000  1
   8435   8432   8431   8445     1  180.0000771  1.0460000  2
   8435   8432   8431   8445     1  0.0000000  0.7531200  3
   8435   8432   8431   8453     1  0.0000000  0.6508444  3
   8436   8435   8432   8444     1  0.0000000  0.6508444  3
   8437   8453   8431   8445     1  180.0000771  0.4184000  2
   8437   8453   8431   8445     1  0.0000000  1.6024720  3
   8437   8436   8435   8443     1  0.0000000  0.6508444  3
   8441   8437   8436   8442     1  0.0000000  4.9162000  2
   8441   8437   8436   8442     1  0.0000000  0.6024960  3
   8442   8436   8437   8453     1  0.0000000  4.9162000  2
   8442   8436   8437   8453     1  0.0000000  0.6024960  3
   8442   8436   8435   8443     1  0.0000000  4.9162000  2
   8442   8436   8435   8443     1  0.0000000  0.6024960  3
   8443   8435   8432   8444     1  0.0000000  4.9162000  2
   8443   8435   8432   8444     1  0.0000000  0.6024960  3
   8444   8432   8431   8445     1  0.0000000  0.6508444  3
   8444   8432   8431   8453     1  0.0000000  4.9162000  2
   8444   8432   8431   8453     1  0.0000000  0.6024960  3
   8451   8445   8431   8453     1  0.0000000  4.9162000  2
   8451   8445   8431   8453     1  0.0000000  0.6024960  3
   8454   8455   8458   8459     1  180.0000771  0.8368000  1
   8454   8455   8458   8459     1  180.0000771  1.0460000  2
   8454   8455   8458   8459     1  0.0000000  0.7531200  3
   8454   8455   8458   8466     1  0.0000000  0.6508444  3
   8454   8476   8460   8459     1  180.0000771  0.4184000  2
   8454   8476   8460   8459     1  0.0000000  1.6024720  3
   8454   8476   8460   8464     1  180.0000771  5.6484000  1
   8454   8476   8460   8464     1  180.0000771  3.5564000  2
   8454   8476   8460   8464     1  0.0000000  0.4184000  3
   8455   8454   8468   8474     1  0.0000000  0.6508444  3
   8455   8454   8476   8460     1  180.0000771  0.4184000  2
   8455   8454   8476   8460     1  0.0000000  1.6024720  3
   8455   8458   8459   8460     1  180.0000771  0.8368000  1
   8455   8458   8459   8460     1  180.0000771  1.0460000  2
   8455   8458   8459   8460     1  0.0000000  0.7531200  3
   8455   8458   8459   8465     1  0.0000000  0.6508444  3
   8458   8455   8454   8468     1  180.0000771  0.8368000  1
   8458   8455   8454   8468     1  180.0000771  1.0460000  2
   8458   8455   8454   8468     1  0.0000000  0.7531200  3
   8458   8455   8454   8476     1  0.0000000  0.6508444  3
   8458   8459   8460   8464     1  0.0000000  0.6508444  3
   8458   8459   8460   8476     1  0.0000000  0.6508444  3
   8459   8458   8455   8467     1  0.0000000  0.6508444  3
   8460   8459   8458   8466     1  0.0000000  0.6508444  3
   8460   8476   8454   8468     1  180.0000771  0.4184000  2
   8460   8476   8454   8468     1  0.0000000  1.6024720  3
   8464   8460   8459   8465     1  0.0000000  4.9162000  2
   8464   8460   8459   8465     1  0.0000000  0.6024960  3
   8465   8459   8458   8466     1  0.0000000  4.9162000  2
   8465   8459   8458   8466     1  0.0000000  0.6024960  3
   8465   8459   8460   8476     1  0.0000000  4.9162000  2
   8465   8459   8460   8476     1  0.0000000  0.6024960  3
   8466   8458   8455   8467     1  0.0000000  4.9162000  2
   8466   8458   8455   8467     1  0.0000000  0.6024960  3
   8467   8455   8454   8468     1  0.0000000  0.6508444  3
   8467   8455   8454   8476     1  0.0000000  4.9162000  2
   8467   8455   8454   8476     1  0.0000000  0.6024960  3
   8474   8468   8454   8476     1  0.0000000  4.9162000  2
   8474   8468   8454   8476     1  0.0000000  0.6024960  3
   8477   8478   8481   8482     1  180.0000771  0.8368000  1
   8477   8478   8481   8482     1  180.0000771  1.0460000  2
   8477   8478   8481   8482     1  0.0000000  0.7531200  3
   8477   8478   8481   8489     1  0.0000000  0.6508444  3
   8477   8499   8483   8487     1  180.0000771  5.6484000  1
   8477   8499   8483   8487     1  180.0000771  3.5564000  2
   8477   8499   8483   8487     1  0.0000000  0.4184000  3
   8477   8499   8483   8482     1  180.0000771  0.4184000  2
   8477   8499   8483   8482     1  0.0000000  1.6024720  3
   8478   8481   8482   8483     1  180.0000771  0.8368000  1
   8478   8481   8482   8483     1  180.0000771  1.0460000  2
   8478   8481   8482   8483     1  0.0000000  0.7531200  3
   8478   8481   8482   8488     1  0.0000000  0.6508444  3
   8478   8477   8491   8497     1  0.0000000  0.6508444  3
   8478   8477   8499   8483     1  180.0000771  0.4184000  2
   8478   8477   8499   8483     1  0.0000000  1.6024720  3
   8481   8482   8483   8487     1  0.0000000  0.6508444  3
   8481   8482   8483   8499     1  0.0000000  0.6508444  3
   8481   8478   8477   8491     1  180.0000771  0.8368000  1
   8481   8478   8477   8491     1  180.0000771  1.0460000  2
   8481   8478   8477   8491     1  0.0000000  0.7531200  3
   8481   8478   8477   8499     1  0.0000000  0.6508444  3
   8482   8481   8478   8490     1  0.0000000  0.6508444  3
   8483   8499   8477   8491     1  180.0000771  0.4184000  2
   8483   8499   8477   8491     1  0.0000000  1.6024720  3
   8483   8482   8481   8489     1  0.0000000  0.6508444  3
   8487   8483   8482   8488     1  0.0000000  4.9162000  2
   8487   8483   8482   8488     1  0.0000000  0.6024960  3
   8488   8482   8483   8499     1  0.0000000  4.9162000  2
   8488   8482   8483   8499     1  0.0000000  0.6024960  3
   8488   8482   8481   8489     1  0.0000000  4.9162000  2
   8488   8482   8481   8489     1  0.0000000  0.6024960  3
   8489   8481   8478   8490     1  0.0000000  4.9162000  2
   8489   8481   8478   8490     1  0.0000000  0.6024960  3
   8490   8478   8477   8491     1  0.0000000  0.6508444  3
   8490   8478   8477   8499     1  0.0000000  4.9162000  2
   8490   8478   8477   8499     1  0.0000000  0.6024960  3
   8497   8491   8477   8499     1  0.0000000  4.9162000  2
   8497   8491   8477   8499     1  0.0000000  0.6024960  3
   8500   8501   8504   8505     1  180.0000771  0.8368000  1
   8500   8501   8504   8505     1  180.0000771  1.0460000  2
   8500   8501   8504   8505     1  0.0000000  0.7531200  3
   8500   8501   8504   8512     1  0.0000000  0.6508444  3
   8500   8522   8506   8505     1  180.0000771  0.4184000  2
   8500   8522   8506   8505     1  0.0000000  1.6024720  3
   8500   8522   8506   8510     1  180.0000771  5.6484000  1
   8500   8522   8506   8510     1  180.0000771  3.5564000  2
   8500   8522   8506   8510     1  0.0000000  0.4184000  3
   8501   8500   8514   8520     1  0.0000000  0.6508444  3
   8501   8500   8522   8506     1  180.0000771  0.4184000  2
   8501   8500   8522   8506     1  0.0000000  1.6024720  3
   8501   8504   8505   8506     1  180.0000771  0.8368000  1
   8501   8504   8505   8506     1  180.0000771  1.0460000  2
   8501   8504   8505   8506     1  0.0000000  0.7531200  3
   8501   8504   8505   8511     1  0.0000000  0.6508444  3
   8504   8501   8500   8514     1  180.0000771  0.8368000  1
   8504   8501   8500   8514     1  180.0000771  1.0460000  2
   8504   8501   8500   8514     1  0.0000000  0.7531200  3
   8504   8501   8500   8522     1  0.0000000  0.6508444  3
   8504   8505   8506   8510     1  0.0000000  0.6508444  3
   8504   8505   8506   8522     1  0.0000000  0.6508444  3
   8505   8504   8501   8513     1  0.0000000  0.6508444  3
   8506   8505   8504   8512     1  0.0000000  0.6508444  3
   8506   8522   8500   8514     1  180.0000771  0.4184000  2
   8506   8522   8500   8514     1  0.0000000  1.6024720  3
   8510   8506   8505   8511     1  0.0000000  4.9162000  2
   8510   8506   8505   8511     1  0.0000000  0.6024960  3
   8511   8505   8504   8512     1  0.0000000  4.9162000  2
   8511   8505   8504   8512     1  0.0000000  0.6024960  3
   8511   8505   8506   8522     1  0.0000000  4.9162000  2
   8511   8505   8506   8522     1  0.0000000  0.6024960  3
   8512   8504   8501   8513     1  0.0000000  4.9162000  2
   8512   8504   8501   8513     1  0.0000000  0.6024960  3
   8513   8501   8500   8514     1  0.0000000  0.6508444  3
   8513   8501   8500   8522     1  0.0000000  4.9162000  2
   8513   8501   8500   8522     1  0.0000000  0.6024960  3
   8520   8514   8500   8522     1  0.0000000  4.9162000  2
   8520   8514   8500   8522     1  0.0000000  0.6024960  3
   8523   8524   8527   8528     1  180.0000771  0.8368000  1
   8523   8524   8527   8528     1  180.0000771  1.0460000  2
   8523   8524   8527   8528     1  0.0000000  0.7531200  3
   8523   8524   8527   8535     1  0.0000000  0.6508444  3
   8523   8545   8529   8533     1  180.0000771  5.6484000  1
   8523   8545   8529   8533     1  180.0000771  3.5564000  2
   8523   8545   8529   8533     1  0.0000000  0.4184000  3
   8523   8545   8529   8528     1  180.0000771  0.4184000  2
   8523   8545   8529   8528     1  0.0000000  1.6024720  3
   8524   8527   8528   8529     1  180.0000771  0.8368000  1
   8524   8527   8528   8529     1  180.0000771  1.0460000  2
   8524   8527   8528   8529     1  0.0000000  0.7531200  3
   8524   8527   8528   8534     1  0.0000000  0.6508444  3
   8524   8523   8537   8543     1  0.0000000  0.6508444  3
   8524   8523   8545   8529     1  180.0000771  0.4184000  2
   8524   8523   8545   8529     1  0.0000000  1.6024720  3
   8527   8528   8529   8533     1  0.0000000  0.6508444  3
   8527   8528   8529   8545     1  0.0000000  0.6508444  3
   8527   8524   8523   8537     1  180.0000771  0.8368000  1
   8527   8524   8523   8537     1  180.0000771  1.0460000  2
   8527   8524   8523   8537     1  0.0000000  0.7531200  3
   8527   8524   8523   8545     1  0.0000000  0.6508444  3
   8528   8527   8524   8536     1  0.0000000  0.6508444  3
   8529   8545   8523   8537     1  180.0000771  0.4184000  2
   8529   8545   8523   8537     1  0.0000000  1.6024720  3
   8529   8528   8527   8535     1  0.0000000  0.6508444  3
   8533   8529   8528   8534     1  0.0000000  4.9162000  2
   8533   8529   8528   8534     1  0.0000000  0.6024960  3
   8534   8528   8529   8545     1  0.0000000  4.9162000  2
   8534   8528   8529   8545     1  0.0000000  0.6024960  3
   8534   8528   8527   8535     1  0.0000000  4.9162000  2
   8534   8528   8527   8535     1  0.0000000  0.6024960  3
   8535   8527   8524   8536     1  0.0000000  4.9162000  2
   8535   8527   8524   8536     1  0.0000000  0.6024960  3
   8536   8524   8523   8537     1  0.0000000  0.6508444  3
   8536   8524   8523   8545     1  0.0000000  4.9162000  2
   8536   8524   8523   8545     1  0.0000000  0.6024960  3
   8543   8537   8523   8545     1  0.0000000  4.9162000  2
   8543   8537   8523   8545     1  0.0000000  0.6024960  3
   8546   8547   8550   8551     1  180.0000771  0.8368000  1
   8546   8547   8550   8551     1  180.0000771  1.0460000  2
   8546   8547   8550   8551     1  0.0000000  0.7531200  3
   8546   8547   8550   8558     1  0.0000000  0.6508444  3
   8546   8568   8552   8551     1  180.0000771  0.4184000  2
   8546   8568   8552   8551     1  0.0000000  1.6024720  3
   8546   8568   8552   8556     1  180.0000771  5.6484000  1
   8546   8568   8552   8556     1  180.0000771  3.5564000  2
   8546   8568   8552   8556     1  0.0000000  0.4184000  3
   8547   8546   8560   8566     1  0.0000000  0.6508444  3
   8547   8546   8568   8552     1  180.0000771  0.4184000  2
   8547   8546   8568   8552     1  0.0000000  1.6024720  3
   8547   8550   8551   8552     1  180.0000771  0.8368000  1
   8547   8550   8551   8552     1  180.0000771  1.0460000  2
   8547   8550   8551   8552     1  0.0000000  0.7531200  3
   8547   8550   8551   8557     1  0.0000000  0.6508444  3
   8550   8547   8546   8560     1  180.0000771  0.8368000  1
   8550   8547   8546   8560     1  180.0000771  1.0460000  2
   8550   8547   8546   8560     1  0.0000000  0.7531200  3
   8550   8547   8546   8568     1  0.0000000  0.6508444  3
   8550   8551   8552   8556     1  0.0000000  0.6508444  3
   8550   8551   8552   8568     1  0.0000000  0.6508444  3
   8551   8550   8547   8559     1  0.0000000  0.6508444  3
   8552   8551   8550   8558     1  0.0000000  0.6508444  3
   8552   8568   8546   8560     1  180.0000771  0.4184000  2
   8552   8568   8546   8560     1  0.0000000  1.6024720  3
   8556   8552   8551   8557     1  0.0000000  4.9162000  2
   8556   8552   8551   8557     1  0.0000000  0.6024960  3
   8557   8551   8550   8558     1  0.0000000  4.9162000  2
   8557   8551   8550   8558     1  0.0000000  0.6024960  3
   8557   8551   8552   8568     1  0.0000000  4.9162000  2
   8557   8551   8552   8568     1  0.0000000  0.6024960  3
   8558   8550   8547   8559     1  0.0000000  4.9162000  2
   8558   8550   8547   8559     1  0.0000000  0.6024960  3
   8559   8547   8546   8560     1  0.0000000  0.6508444  3
   8559   8547   8546   8568     1  0.0000000  4.9162000  2
   8559   8547   8546   8568     1  0.0000000  0.6024960  3
   8566   8560   8546   8568     1  0.0000000  4.9162000  2
   8566   8560   8546   8568     1  0.0000000  0.6024960  3
   8569   8570   8573   8574     1  180.0000771  0.8368000  1
   8569   8570   8573   8574     1  180.0000771  1.0460000  2
   8569   8570   8573   8574     1  0.0000000  0.7531200  3
   8569   8570   8573   8581     1  0.0000000  0.6508444  3
   8569   8591   8575   8579     1  180.0000771  5.6484000  1
   8569   8591   8575   8579     1  180.0000771  3.5564000  2
   8569   8591   8575   8579     1  0.0000000  0.4184000  3
   8569   8591   8575   8574     1  180.0000771  0.4184000  2
   8569   8591   8575   8574     1  0.0000000  1.6024720  3
   8570   8573   8574   8575     1  180.0000771  0.8368000  1
   8570   8573   8574   8575     1  180.0000771  1.0460000  2
   8570   8573   8574   8575     1  0.0000000  0.7531200  3
   8570   8573   8574   8580     1  0.0000000  0.6508444  3
   8570   8569   8583   8589     1  0.0000000  0.6508444  3
   8570   8569   8591   8575     1  180.0000771  0.4184000  2
   8570   8569   8591   8575     1  0.0000000  1.6024720  3
   8573   8574   8575   8579     1  0.0000000  0.6508444  3
   8573   8574   8575   8591     1  0.0000000  0.6508444  3
   8573   8570   8569   8583     1  180.0000771  0.8368000  1
   8573   8570   8569   8583     1  180.0000771  1.0460000  2
   8573   8570   8569   8583     1  0.0000000  0.7531200  3
   8573   8570   8569   8591     1  0.0000000  0.6508444  3
   8574   8573   8570   8582     1  0.0000000  0.6508444  3
   8575   8591   8569   8583     1  180.0000771  0.4184000  2
   8575   8591   8569   8583     1  0.0000000  1.6024720  3
   8575   8574   8573   8581     1  0.0000000  0.6508444  3
   8579   8575   8574   8580     1  0.0000000  4.9162000  2
   8579   8575   8574   8580     1  0.0000000  0.6024960  3
   8580   8574   8575   8591     1  0.0000000  4.9162000  2
   8580   8574   8575   8591     1  0.0000000  0.6024960  3
   8580   8574   8573   8581     1  0.0000000  4.9162000  2
   8580   8574   8573   8581     1  0.0000000  0.6024960  3
   8581   8573   8570   8582     1  0.0000000  4.9162000  2
   8581   8573   8570   8582     1  0.0000000  0.6024960  3
   8582   8570   8569   8583     1  0.0000000  0.6508444  3
   8582   8570   8569   8591     1  0.0000000  4.9162000  2
   8582   8570   8569   8591     1  0.0000000  0.6024960  3
   8589   8583   8569   8591     1  0.0000000  4.9162000  2
   8589   8583   8569   8591     1  0.0000000  0.6024960  3
   8592   8593   8596   8597     1  180.0000771  0.8368000  1
   8592   8593   8596   8597     1  180.0000771  1.0460000  2
   8592   8593   8596   8597     1  0.0000000  0.7531200  3
   8592   8593   8596   8604     1  0.0000000  0.6508444  3
   8592   8614   8598   8597     1  180.0000771  0.4184000  2
   8592   8614   8598   8597     1  0.0000000  1.6024720  3
   8592   8614   8598   8602     1  180.0000771  5.6484000  1
   8592   8614   8598   8602     1  180.0000771  3.5564000  2
   8592   8614   8598   8602     1  0.0000000  0.4184000  3
   8593   8592   8606   8612     1  0.0000000  0.6508444  3
   8593   8592   8614   8598     1  180.0000771  0.4184000  2
   8593   8592   8614   8598     1  0.0000000  1.6024720  3
   8593   8596   8597   8598     1  180.0000771  0.8368000  1
   8593   8596   8597   8598     1  180.0000771  1.0460000  2
   8593   8596   8597   8598     1  0.0000000  0.7531200  3
   8593   8596   8597   8603     1  0.0000000  0.6508444  3
   8596   8593   8592   8606     1  180.0000771  0.8368000  1
   8596   8593   8592   8606     1  180.0000771  1.0460000  2
   8596   8593   8592   8606     1  0.0000000  0.7531200  3
   8596   8593   8592   8614     1  0.0000000  0.6508444  3
   8596   8597   8598   8602     1  0.0000000  0.6508444  3
   8596   8597   8598   8614     1  0.0000000  0.6508444  3
   8597   8596   8593   8605     1  0.0000000  0.6508444  3
   8598   8597   8596   8604     1  0.0000000  0.6508444  3
   8598   8614   8592   8606     1  180.0000771  0.4184000  2
   8598   8614   8592   8606     1  0.0000000  1.6024720  3
   8602   8598   8597   8603     1  0.0000000  4.9162000  2
   8602   8598   8597   8603     1  0.0000000  0.6024960  3
   8603   8597   8596   8604     1  0.0000000  4.9162000  2
   8603   8597   8596   8604     1  0.0000000  0.6024960  3
   8603   8597   8598   8614     1  0.0000000  4.9162000  2
   8603   8597   8598   8614     1  0.0000000  0.6024960  3
   8604   8596   8593   8605     1  0.0000000  4.9162000  2
   8604   8596   8593   8605     1  0.0000000  0.6024960  3
   8605   8593   8592   8606     1  0.0000000  0.6508444  3
   8605   8593   8592   8614     1  0.0000000  4.9162000  2
   8605   8593   8592   8614     1  0.0000000  0.6024960  3
   8612   8606   8592   8614     1  0.0000000  4.9162000  2
   8612   8606   8592   8614     1  0.0000000  0.6024960  3
   8615   8616   8619   8620     1  180.0000771  0.8368000  1
   8615   8616   8619   8620     1  180.0000771  1.0460000  2
   8615   8616   8619   8620     1  0.0000000  0.7531200  3
   8615   8616   8619   8627     1  0.0000000  0.6508444  3
   8615   8637   8621   8625     1  180.0000771  5.6484000  1
   8615   8637   8621   8625     1  180.0000771  3.5564000  2
   8615   8637   8621   8625     1  0.0000000  0.4184000  3
   8615   8637   8621   8620     1  180.0000771  0.4184000  2
   8615   8637   8621   8620     1  0.0000000  1.6024720  3
   8616   8619   8620   8621     1  180.0000771  0.8368000  1
   8616   8619   8620   8621     1  180.0000771  1.0460000  2
   8616   8619   8620   8621     1  0.0000000  0.7531200  3
   8616   8619   8620   8626     1  0.0000000  0.6508444  3
   8616   8615   8629   8635     1  0.0000000  0.6508444  3
   8616   8615   8637   8621     1  180.0000771  0.4184000  2
   8616   8615   8637   8621     1  0.0000000  1.6024720  3
   8619   8620   8621   8625     1  0.0000000  0.6508444  3
   8619   8620   8621   8637     1  0.0000000  0.6508444  3
   8619   8616   8615   8629     1  180.0000771  0.8368000  1
   8619   8616   8615   8629     1  180.0000771  1.0460000  2
   8619   8616   8615   8629     1  0.0000000  0.7531200  3
   8619   8616   8615   8637     1  0.0000000  0.6508444  3
   8620   8619   8616   8628     1  0.0000000  0.6508444  3
   8621   8637   8615   8629     1  180.0000771  0.4184000  2
   8621   8637   8615   8629     1  0.0000000  1.6024720  3
   8621   8620   8619   8627     1  0.0000000  0.6508444  3
   8625   8621   8620   8626     1  0.0000000  4.9162000  2
   8625   8621   8620   8626     1  0.0000000  0.6024960  3
   8626   8620   8621   8637     1  0.0000000  4.9162000  2
   8626   8620   8621   8637     1  0.0000000  0.6024960  3
   8626   8620   8619   8627     1  0.0000000  4.9162000  2
   8626   8620   8619   8627     1  0.0000000  0.6024960  3
   8627   8619   8616   8628     1  0.0000000  4.9162000  2
   8627   8619   8616   8628     1  0.0000000  0.6024960  3
   8628   8616   8615   8629     1  0.0000000  0.6508444  3
   8628   8616   8615   8637     1  0.0000000  4.9162000  2
   8628   8616   8615   8637     1  0.0000000  0.6024960  3
   8635   8629   8615   8637     1  0.0000000  4.9162000  2
   8635   8629   8615   8637     1  0.0000000  0.6024960  3
   8638   8639   8642   8643     1  180.0000771  0.8368000  1
   8638   8639   8642   8643     1  180.0000771  1.0460000  2
   8638   8639   8642   8643     1  0.0000000  0.7531200  3
   8638   8639   8642   8650     1  0.0000000  0.6508444  3
   8638   8660   8644   8643     1  180.0000771  0.4184000  2
   8638   8660   8644   8643     1  0.0000000  1.6024720  3
   8638   8660   8644   8648     1  180.0000771  5.6484000  1
   8638   8660   8644   8648     1  180.0000771  3.5564000  2
   8638   8660   8644   8648     1  0.0000000  0.4184000  3
   8639   8638   8652   8658     1  0.0000000  0.6508444  3
   8639   8638   8660   8644     1  180.0000771  0.4184000  2
   8639   8638   8660   8644     1  0.0000000  1.6024720  3
   8639   8642   8643   8644     1  180.0000771  0.8368000  1
   8639   8642   8643   8644     1  180.0000771  1.0460000  2
   8639   8642   8643   8644     1  0.0000000  0.7531200  3
   8639   8642   8643   8649     1  0.0000000  0.6508444  3
   8642   8639   8638   8652     1  180.0000771  0.8368000  1
   8642   8639   8638   8652     1  180.0000771  1.0460000  2
   8642   8639   8638   8652     1  0.0000000  0.7531200  3
   8642   8639   8638   8660     1  0.0000000  0.6508444  3
   8642   8643   8644   8648     1  0.0000000  0.6508444  3
   8642   8643   8644   8660     1  0.0000000  0.6508444  3
   8643   8642   8639   8651     1  0.0000000  0.6508444  3
   8644   8643   8642   8650     1  0.0000000  0.6508444  3
   8644   8660   8638   8652     1  180.0000771  0.4184000  2
   8644   8660   8638   8652     1  0.0000000  1.6024720  3
   8648   8644   8643   8649     1  0.0000000  4.9162000  2
   8648   8644   8643   8649     1  0.0000000  0.6024960  3
   8649   8643   8642   8650     1  0.0000000  4.9162000  2
   8649   8643   8642   8650     1  0.0000000  0.6024960  3
   8649   8643   8644   8660     1  0.0000000  4.9162000  2
   8649   8643   8644   8660     1  0.0000000  0.6024960  3
   8650   8642   8639   8651     1  0.0000000  4.9162000  2
   8650   8642   8639   8651     1  0.0000000  0.6024960  3
   8651   8639   8638   8652     1  0.0000000  0.6508444  3
   8651   8639   8638   8660     1  0.0000000  4.9162000  2
   8651   8639   8638   8660     1  0.0000000  0.6024960  3
   8658   8652   8638   8660     1  0.0000000  4.9162000  2
   8658   8652   8638   8660     1  0.0000000  0.6024960  3
   8661   8662   8665   8666     1  180.0000771  0.8368000  1
   8661   8662   8665   8666     1  180.0000771  1.0460000  2
   8661   8662   8665   8666     1  0.0000000  0.7531200  3
   8661   8662   8665   8673     1  0.0000000  0.6508444  3
   8661   8683   8667   8671     1  180.0000771  5.6484000  1
   8661   8683   8667   8671     1  180.0000771  3.5564000  2
   8661   8683   8667   8671     1  0.0000000  0.4184000  3
   8661   8683   8667   8666     1  180.0000771  0.4184000  2
   8661   8683   8667   8666     1  0.0000000  1.6024720  3
   8662   8665   8666   8667     1  180.0000771  0.8368000  1
   8662   8665   8666   8667     1  180.0000771  1.0460000  2
   8662   8665   8666   8667     1  0.0000000  0.7531200  3
   8662   8665   8666   8672     1  0.0000000  0.6508444  3
   8662   8661   8675   8681     1  0.0000000  0.6508444  3
   8662   8661   8683   8667     1  180.0000771  0.4184000  2
   8662   8661   8683   8667     1  0.0000000  1.6024720  3
   8665   8666   8667   8671     1  0.0000000  0.6508444  3
   8665   8666   8667   8683     1  0.0000000  0.6508444  3
   8665   8662   8661   8675     1  180.0000771  0.8368000  1
   8665   8662   8661   8675     1  180.0000771  1.0460000  2
   8665   8662   8661   8675     1  0.0000000  0.7531200  3
   8665   8662   8661   8683     1  0.0000000  0.6508444  3
   8666   8665   8662   8674     1  0.0000000  0.6508444  3
   8667   8683   8661   8675     1  180.0000771  0.4184000  2
   8667   8683   8661   8675     1  0.0000000  1.6024720  3
   8667   8666   8665   8673     1  0.0000000  0.6508444  3
   8671   8667   8666   8672     1  0.0000000  4.9162000  2
   8671   8667   8666   8672     1  0.0000000  0.6024960  3
   8672   8666   8667   8683     1  0.0000000  4.9162000  2
   8672   8666   8667   8683     1  0.0000000  0.6024960  3
   8672   8666   8665   8673     1  0.0000000  4.9162000  2
   8672   8666   8665   8673     1  0.0000000  0.6024960  3
   8673   8665   8662   8674     1  0.0000000  4.9162000  2
   8673   8665   8662   8674     1  0.0000000  0.6024960  3
   8674   8662   8661   8675     1  0.0000000  0.6508444  3
   8674   8662   8661   8683     1  0.0000000  4.9162000  2
   8674   8662   8661   8683     1  0.0000000  0.6024960  3
   8681   8675   8661   8683     1  0.0000000  4.9162000  2
   8681   8675   8661   8683     1  0.0000000  0.6024960  3
   8684   8685   8688   8689     1  180.0000771  0.8368000  1
   8684   8685   8688   8689     1  180.0000771  1.0460000  2
   8684   8685   8688   8689     1  0.0000000  0.7531200  3
   8684   8685   8688   8696     1  0.0000000  0.6508444  3
   8684   8706   8690   8689     1  180.0000771  0.4184000  2
   8684   8706   8690   8689     1  0.0000000  1.6024720  3
   8684   8706   8690   8694     1  180.0000771  5.6484000  1
   8684   8706   8690   8694     1  180.0000771  3.5564000  2
   8684   8706   8690   8694     1  0.0000000  0.4184000  3
   8685   8684   8698   8704     1  0.0000000  0.6508444  3
   8685   8684   8706   8690     1  180.0000771  0.4184000  2
   8685   8684   8706   8690     1  0.0000000  1.6024720  3
   8685   8688   8689   8690     1  180.0000771  0.8368000  1
   8685   8688   8689   8690     1  180.0000771  1.0460000  2
   8685   8688   8689   8690     1  0.0000000  0.7531200  3
   8685   8688   8689   8695     1  0.0000000  0.6508444  3
   8688   8685   8684   8698     1  180.0000771  0.8368000  1
   8688   8685   8684   8698     1  180.0000771  1.0460000  2
   8688   8685   8684   8698     1  0.0000000  0.7531200  3
   8688   8685   8684   8706     1  0.0000000  0.6508444  3
   8688   8689   8690   8694     1  0.0000000  0.6508444  3
   8688   8689   8690   8706     1  0.0000000  0.6508444  3
   8689   8688   8685   8697     1  0.0000000  0.6508444  3
   8690   8689   8688   8696     1  0.0000000  0.6508444  3
   8690   8706   8684   8698     1  180.0000771  0.4184000  2
   8690   8706   8684   8698     1  0.0000000  1.6024720  3
   8694   8690   8689   8695     1  0.0000000  4.9162000  2
   8694   8690   8689   8695     1  0.0000000  0.6024960  3
   8695   8689   8688   8696     1  0.0000000  4.9162000  2
   8695   8689   8688   8696     1  0.0000000  0.6024960  3
   8695   8689   8690   8706     1  0.0000000  4.9162000  2
   8695   8689   8690   8706     1  0.0000000  0.6024960  3
   8696   8688   8685   8697     1  0.0000000  4.9162000  2
   8696   8688   8685   8697     1  0.0000000  0.6024960  3
   8697   8685   8684   8698     1  0.0000000  0.6508444  3
   8697   8685   8684   8706     1  0.0000000  4.9162000  2
   8697   8685   8684   8706     1  0.0000000  0.6024960  3
   8704   8698   8684   8706     1  0.0000000  4.9162000  2
   8704   8698   8684   8706     1  0.0000000  0.6024960  3
   8707   8708   8711   8712     1  180.0000771  0.8368000  1
   8707   8708   8711   8712     1  180.0000771  1.0460000  2
   8707   8708   8711   8712     1  0.0000000  0.7531200  3
   8707   8708   8711   8719     1  0.0000000  0.6508444  3
   8707   8729   8713   8717     1  180.0000771  5.6484000  1
   8707   8729   8713   8717     1  180.0000771  3.5564000  2
   8707   8729   8713   8717     1  0.0000000  0.4184000  3
   8707   8729   8713   8712     1  180.0000771  0.4184000  2
   8707   8729   8713   8712     1  0.0000000  1.6024720  3
   8708   8711   8712   8713     1  180.0000771  0.8368000  1
   8708   8711   8712   8713     1  180.0000771  1.0460000  2
   8708   8711   8712   8713     1  0.0000000  0.7531200  3
   8708   8711   8712   8718     1  0.0000000  0.6508444  3
   8708   8707   8721   8727     1  0.0000000  0.6508444  3
   8708   8707   8729   8713     1  180.0000771  0.4184000  2
   8708   8707   8729   8713     1  0.0000000  1.6024720  3
   8711   8712   8713   8717     1  0.0000000  0.6508444  3
   8711   8712   8713   8729     1  0.0000000  0.6508444  3
   8711   8708   8707   8721     1  180.0000771  0.8368000  1
   8711   8708   8707   8721     1  180.0000771  1.0460000  2
   8711   8708   8707   8721     1  0.0000000  0.7531200  3
   8711   8708   8707   8729     1  0.0000000  0.6508444  3
   8712   8711   8708   8720     1  0.0000000  0.6508444  3
   8713   8729   8707   8721     1  180.0000771  0.4184000  2
   8713   8729   8707   8721     1  0.0000000  1.6024720  3
   8713   8712   8711   8719     1  0.0000000  0.6508444  3
   8717   8713   8712   8718     1  0.0000000  4.9162000  2
   8717   8713   8712   8718     1  0.0000000  0.6024960  3
   8718   8712   8713   8729     1  0.0000000  4.9162000  2
   8718   8712   8713   8729     1  0.0000000  0.6024960  3
   8718   8712   8711   8719     1  0.0000000  4.9162000  2
   8718   8712   8711   8719     1  0.0000000  0.6024960  3
   8719   8711   8708   8720     1  0.0000000  4.9162000  2
   8719   8711   8708   8720     1  0.0000000  0.6024960  3
   8720   8708   8707   8721     1  0.0000000  0.6508444  3
   8720   8708   8707   8729     1  0.0000000  4.9162000  2
   8720   8708   8707   8729     1  0.0000000  0.6024960  3
   8727   8721   8707   8729     1  0.0000000  4.9162000  2
   8727   8721   8707   8729     1  0.0000000  0.6024960  3
   8730   8731   8734   8735     1  180.0000771  0.8368000  1
   8730   8731   8734   8735     1  180.0000771  1.0460000  2
   8730   8731   8734   8735     1  0.0000000  0.7531200  3
   8730   8731   8734   8742     1  0.0000000  0.6508444  3
   8730   8752   8736   8735     1  180.0000771  0.4184000  2
   8730   8752   8736   8735     1  0.0000000  1.6024720  3
   8730   8752   8736   8740     1  180.0000771  5.6484000  1
   8730   8752   8736   8740     1  180.0000771  3.5564000  2
   8730   8752   8736   8740     1  0.0000000  0.4184000  3
   8731   8730   8744   8750     1  0.0000000  0.6508444  3
   8731   8730   8752   8736     1  180.0000771  0.4184000  2
   8731   8730   8752   8736     1  0.0000000  1.6024720  3
   8731   8734   8735   8736     1  180.0000771  0.8368000  1
   8731   8734   8735   8736     1  180.0000771  1.0460000  2
   8731   8734   8735   8736     1  0.0000000  0.7531200  3
   8731   8734   8735   8741     1  0.0000000  0.6508444  3
   8734   8731   8730   8744     1  180.0000771  0.8368000  1
   8734   8731   8730   8744     1  180.0000771  1.0460000  2
   8734   8731   8730   8744     1  0.0000000  0.7531200  3
   8734   8731   8730   8752     1  0.0000000  0.6508444  3
   8734   8735   8736   8740     1  0.0000000  0.6508444  3
   8734   8735   8736   8752     1  0.0000000  0.6508444  3
   8735   8734   8731   8743     1  0.0000000  0.6508444  3
   8736   8735   8734   8742     1  0.0000000  0.6508444  3
   8736   8752   8730   8744     1  180.0000771  0.4184000  2
   8736   8752   8730   8744     1  0.0000000  1.6024720  3
   8740   8736   8735   8741     1  0.0000000  4.9162000  2
   8740   8736   8735   8741     1  0.0000000  0.6024960  3
   8741   8735   8734   8742     1  0.0000000  4.9162000  2
   8741   8735   8734   8742     1  0.0000000  0.6024960  3
   8741   8735   8736   8752     1  0.0000000  4.9162000  2
   8741   8735   8736   8752     1  0.0000000  0.6024960  3
   8742   8734   8731   8743     1  0.0000000  4.9162000  2
   8742   8734   8731   8743     1  0.0000000  0.6024960  3
   8743   8731   8730   8744     1  0.0000000  0.6508444  3
   8743   8731   8730   8752     1  0.0000000  4.9162000  2
   8743   8731   8730   8752     1  0.0000000  0.6024960  3
   8750   8744   8730   8752     1  0.0000000  4.9162000  2
   8750   8744   8730   8752     1  0.0000000  0.6024960  3
   8753   8754   8757   8758     1  180.0000771  0.8368000  1
   8753   8754   8757   8758     1  180.0000771  1.0460000  2
   8753   8754   8757   8758     1  0.0000000  0.7531200  3
   8753   8754   8757   8765     1  0.0000000  0.6508444  3
   8753   8775   8759   8763     1  180.0000771  5.6484000  1
   8753   8775   8759   8763     1  180.0000771  3.5564000  2
   8753   8775   8759   8763     1  0.0000000  0.4184000  3
   8753   8775   8759   8758     1  180.0000771  0.4184000  2
   8753   8775   8759   8758     1  0.0000000  1.6024720  3
   8754   8757   8758   8759     1  180.0000771  0.8368000  1
   8754   8757   8758   8759     1  180.0000771  1.0460000  2
   8754   8757   8758   8759     1  0.0000000  0.7531200  3
   8754   8757   8758   8764     1  0.0000000  0.6508444  3
   8754   8753   8767   8773     1  0.0000000  0.6508444  3
   8754   8753   8775   8759     1  180.0000771  0.4184000  2
   8754   8753   8775   8759     1  0.0000000  1.6024720  3
   8757   8758   8759   8763     1  0.0000000  0.6508444  3
   8757   8758   8759   8775     1  0.0000000  0.6508444  3
   8757   8754   8753   8767     1  180.0000771  0.8368000  1
   8757   8754   8753   8767     1  180.0000771  1.0460000  2
   8757   8754   8753   8767     1  0.0000000  0.7531200  3
   8757   8754   8753   8775     1  0.0000000  0.6508444  3
   8758   8757   8754   8766     1  0.0000000  0.6508444  3
   8759   8775   8753   8767     1  180.0000771  0.4184000  2
   8759   8775   8753   8767     1  0.0000000  1.6024720  3
   8759   8758   8757   8765     1  0.0000000  0.6508444  3
   8763   8759   8758   8764     1  0.0000000  4.9162000  2
   8763   8759   8758   8764     1  0.0000000  0.6024960  3
   8764   8758   8759   8775     1  0.0000000  4.9162000  2
   8764   8758   8759   8775     1  0.0000000  0.6024960  3
   8764   8758   8757   8765     1  0.0000000  4.9162000  2
   8764   8758   8757   8765     1  0.0000000  0.6024960  3
   8765   8757   8754   8766     1  0.0000000  4.9162000  2
   8765   8757   8754   8766     1  0.0000000  0.6024960  3
   8766   8754   8753   8767     1  0.0000000  0.6508444  3
   8766   8754   8753   8775     1  0.0000000  4.9162000  2
   8766   8754   8753   8775     1  0.0000000  0.6024960  3
   8773   8767   8753   8775     1  0.0000000  4.9162000  2
   8773   8767   8753   8775     1  0.0000000  0.6024960  3
   8776   8777   8780   8781     1  180.0000771  0.8368000  1
   8776   8777   8780   8781     1  180.0000771  1.0460000  2
   8776   8777   8780   8781     1  0.0000000  0.7531200  3
   8776   8777   8780   8788     1  0.0000000  0.6508444  3
   8776   8798   8782   8781     1  180.0000771  0.4184000  2
   8776   8798   8782   8781     1  0.0000000  1.6024720  3
   8776   8798   8782   8786     1  180.0000771  5.6484000  1
   8776   8798   8782   8786     1  180.0000771  3.5564000  2
   8776   8798   8782   8786     1  0.0000000  0.4184000  3
   8777   8776   8790   8796     1  0.0000000  0.6508444  3
   8777   8776   8798   8782     1  180.0000771  0.4184000  2
   8777   8776   8798   8782     1  0.0000000  1.6024720  3
   8777   8780   8781   8782     1  180.0000771  0.8368000  1
   8777   8780   8781   8782     1  180.0000771  1.0460000  2
   8777   8780   8781   8782     1  0.0000000  0.7531200  3
   8777   8780   8781   8787     1  0.0000000  0.6508444  3
   8780   8777   8776   8790     1  180.0000771  0.8368000  1
   8780   8777   8776   8790     1  180.0000771  1.0460000  2
   8780   8777   8776   8790     1  0.0000000  0.7531200  3
   8780   8777   8776   8798     1  0.0000000  0.6508444  3
   8780   8781   8782   8786     1  0.0000000  0.6508444  3
   8780   8781   8782   8798     1  0.0000000  0.6508444  3
   8781   8780   8777   8789     1  0.0000000  0.6508444  3
   8782   8781   8780   8788     1  0.0000000  0.6508444  3
   8782   8798   8776   8790     1  180.0000771  0.4184000  2
   8782   8798   8776   8790     1  0.0000000  1.6024720  3
   8786   8782   8781   8787     1  0.0000000  4.9162000  2
   8786   8782   8781   8787     1  0.0000000  0.6024960  3
   8787   8781   8780   8788     1  0.0000000  4.9162000  2
   8787   8781   8780   8788     1  0.0000000  0.6024960  3
   8787   8781   8782   8798     1  0.0000000  4.9162000  2
   8787   8781   8782   8798     1  0.0000000  0.6024960  3
   8788   8780   8777   8789     1  0.0000000  4.9162000  2
   8788   8780   8777   8789     1  0.0000000  0.6024960  3
   8789   8777   8776   8790     1  0.0000000  0.6508444  3
   8789   8777   8776   8798     1  0.0000000  4.9162000  2
   8789   8777   8776   8798     1  0.0000000  0.6024960  3
   8796   8790   8776   8798     1  0.0000000  4.9162000  2
   8796   8790   8776   8798     1  0.0000000  0.6024960  3
   8799   8800   8803   8804     1  180.0000771  0.8368000  1
   8799   8800   8803   8804     1  180.0000771  1.0460000  2
   8799   8800   8803   8804     1  0.0000000  0.7531200  3
   8799   8800   8803   8811     1  0.0000000  0.6508444  3
   8799   8821   8805   8809     1  180.0000771  5.6484000  1
   8799   8821   8805   8809     1  180.0000771  3.5564000  2
   8799   8821   8805   8809     1  0.0000000  0.4184000  3
   8799   8821   8805   8804     1  180.0000771  0.4184000  2
   8799   8821   8805   8804     1  0.0000000  1.6024720  3
   8800   8803   8804   8805     1  180.0000771  0.8368000  1
   8800   8803   8804   8805     1  180.0000771  1.0460000  2
   8800   8803   8804   8805     1  0.0000000  0.7531200  3
   8800   8803   8804   8810     1  0.0000000  0.6508444  3
   8800   8799   8813   8819     1  0.0000000  0.6508444  3
   8800   8799   8821   8805     1  180.0000771  0.4184000  2
   8800   8799   8821   8805     1  0.0000000  1.6024720  3
   8803   8804   8805   8809     1  0.0000000  0.6508444  3
   8803   8804   8805   8821     1  0.0000000  0.6508444  3
   8803   8800   8799   8813     1  180.0000771  0.8368000  1
   8803   8800   8799   8813     1  180.0000771  1.0460000  2
   8803   8800   8799   8813     1  0.0000000  0.7531200  3
   8803   8800   8799   8821     1  0.0000000  0.6508444  3
   8804   8803   8800   8812     1  0.0000000  0.6508444  3
   8805   8821   8799   8813     1  180.0000771  0.4184000  2
   8805   8821   8799   8813     1  0.0000000  1.6024720  3
   8805   8804   8803   8811     1  0.0000000  0.6508444  3
   8809   8805   8804   8810     1  0.0000000  4.9162000  2
   8809   8805   8804   8810     1  0.0000000  0.6024960  3
   8810   8804   8805   8821     1  0.0000000  4.9162000  2
   8810   8804   8805   8821     1  0.0000000  0.6024960  3
   8810   8804   8803   8811     1  0.0000000  4.9162000  2
   8810   8804   8803   8811     1  0.0000000  0.6024960  3
   8811   8803   8800   8812     1  0.0000000  4.9162000  2
   8811   8803   8800   8812     1  0.0000000  0.6024960  3
   8812   8800   8799   8813     1  0.0000000  0.6508444  3
   8812   8800   8799   8821     1  0.0000000  4.9162000  2
   8812   8800   8799   8821     1  0.0000000  0.6024960  3
   8819   8813   8799   8821     1  0.0000000  4.9162000  2
   8819   8813   8799   8821     1  0.0000000  0.6024960  3
   8822   8823   8826   8827     1  180.0000771  0.8368000  1
   8822   8823   8826   8827     1  180.0000771  1.0460000  2
   8822   8823   8826   8827     1  0.0000000  0.7531200  3
   8822   8823   8826   8834     1  0.0000000  0.6508444  3
   8822   8844   8828   8827     1  180.0000771  0.4184000  2
   8822   8844   8828   8827     1  0.0000000  1.6024720  3
   8822   8844   8828   8832     1  180.0000771  5.6484000  1
   8822   8844   8828   8832     1  180.0000771  3.5564000  2
   8822   8844   8828   8832     1  0.0000000  0.4184000  3
   8823   8822   8836   8842     1  0.0000000  0.6508444  3
   8823   8822   8844   8828     1  180.0000771  0.4184000  2
   8823   8822   8844   8828     1  0.0000000  1.6024720  3
   8823   8826   8827   8828     1  180.0000771  0.8368000  1
   8823   8826   8827   8828     1  180.0000771  1.0460000  2
   8823   8826   8827   8828     1  0.0000000  0.7531200  3
   8823   8826   8827   8833     1  0.0000000  0.6508444  3
   8826   8823   8822   8836     1  180.0000771  0.8368000  1
   8826   8823   8822   8836     1  180.0000771  1.0460000  2
   8826   8823   8822   8836     1  0.0000000  0.7531200  3
   8826   8823   8822   8844     1  0.0000000  0.6508444  3
   8826   8827   8828   8832     1  0.0000000  0.6508444  3
   8826   8827   8828   8844     1  0.0000000  0.6508444  3
   8827   8826   8823   8835     1  0.0000000  0.6508444  3
   8828   8827   8826   8834     1  0.0000000  0.6508444  3
   8828   8844   8822   8836     1  180.0000771  0.4184000  2
   8828   8844   8822   8836     1  0.0000000  1.6024720  3
   8832   8828   8827   8833     1  0.0000000  4.9162000  2
   8832   8828   8827   8833     1  0.0000000  0.6024960  3
   8833   8827   8826   8834     1  0.0000000  4.9162000  2
   8833   8827   8826   8834     1  0.0000000  0.6024960  3
   8833   8827   8828   8844     1  0.0000000  4.9162000  2
   8833   8827   8828   8844     1  0.0000000  0.6024960  3
   8834   8826   8823   8835     1  0.0000000  4.9162000  2
   8834   8826   8823   8835     1  0.0000000  0.6024960  3
   8835   8823   8822   8836     1  0.0000000  0.6508444  3
   8835   8823   8822   8844     1  0.0000000  4.9162000  2
   8835   8823   8822   8844     1  0.0000000  0.6024960  3
   8842   8836   8822   8844     1  0.0000000  4.9162000  2
   8842   8836   8822   8844     1  0.0000000  0.6024960  3
   8845   8846   8849   8850     1  180.0000771  0.8368000  1
   8845   8846   8849   8850     1  180.0000771  1.0460000  2
   8845   8846   8849   8850     1  0.0000000  0.7531200  3
   8845   8846   8849   8857     1  0.0000000  0.6508444  3
   8845   8867   8851   8855     1  180.0000771  5.6484000  1
   8845   8867   8851   8855     1  180.0000771  3.5564000  2
   8845   8867   8851   8855     1  0.0000000  0.4184000  3
   8845   8867   8851   8850     1  180.0000771  0.4184000  2
   8845   8867   8851   8850     1  0.0000000  1.6024720  3
   8846   8849   8850   8851     1  180.0000771  0.8368000  1
   8846   8849   8850   8851     1  180.0000771  1.0460000  2
   8846   8849   8850   8851     1  0.0000000  0.7531200  3
   8846   8849   8850   8856     1  0.0000000  0.6508444  3
   8846   8845   8859   8865     1  0.0000000  0.6508444  3
   8846   8845   8867   8851     1  180.0000771  0.4184000  2
   8846   8845   8867   8851     1  0.0000000  1.6024720  3
   8849   8850   8851   8855     1  0.0000000  0.6508444  3
   8849   8850   8851   8867     1  0.0000000  0.6508444  3
   8849   8846   8845   8859     1  180.0000771  0.8368000  1
   8849   8846   8845   8859     1  180.0000771  1.0460000  2
   8849   8846   8845   8859     1  0.0000000  0.7531200  3
   8849   8846   8845   8867     1  0.0000000  0.6508444  3
   8850   8849   8846   8858     1  0.0000000  0.6508444  3
   8851   8867   8845   8859     1  180.0000771  0.4184000  2
   8851   8867   8845   8859     1  0.0000000  1.6024720  3
   8851   8850   8849   8857     1  0.0000000  0.6508444  3
   8855   8851   8850   8856     1  0.0000000  4.9162000  2
   8855   8851   8850   8856     1  0.0000000  0.6024960  3
   8856   8850   8851   8867     1  0.0000000  4.9162000  2
   8856   8850   8851   8867     1  0.0000000  0.6024960  3
   8856   8850   8849   8857     1  0.0000000  4.9162000  2
   8856   8850   8849   8857     1  0.0000000  0.6024960  3
   8857   8849   8846   8858     1  0.0000000  4.9162000  2
   8857   8849   8846   8858     1  0.0000000  0.6024960  3
   8858   8846   8845   8859     1  0.0000000  0.6508444  3
   8858   8846   8845   8867     1  0.0000000  4.9162000  2
   8858   8846   8845   8867     1  0.0000000  0.6024960  3
   8865   8859   8845   8867     1  0.0000000  4.9162000  2
   8865   8859   8845   8867     1  0.0000000  0.6024960  3
   8868   8869   8872   8873     1  180.0000771  0.8368000  1
   8868   8869   8872   8873     1  180.0000771  1.0460000  2
   8868   8869   8872   8873     1  0.0000000  0.7531200  3
   8868   8869   8872   8880     1  0.0000000  0.6508444  3
   8868   8890   8874   8873     1  180.0000771  0.4184000  2
   8868   8890   8874   8873     1  0.0000000  1.6024720  3
   8868   8890   8874   8878     1  180.0000771  5.6484000  1
   8868   8890   8874   8878     1  180.0000771  3.5564000  2
   8868   8890   8874   8878     1  0.0000000  0.4184000  3
   8869   8868   8882   8888     1  0.0000000  0.6508444  3
   8869   8868   8890   8874     1  180.0000771  0.4184000  2
   8869   8868   8890   8874     1  0.0000000  1.6024720  3
   8869   8872   8873   8874     1  180.0000771  0.8368000  1
   8869   8872   8873   8874     1  180.0000771  1.0460000  2
   8869   8872   8873   8874     1  0.0000000  0.7531200  3
   8869   8872   8873   8879     1  0.0000000  0.6508444  3
   8872   8869   8868   8882     1  180.0000771  0.8368000  1
   8872   8869   8868   8882     1  180.0000771  1.0460000  2
   8872   8869   8868   8882     1  0.0000000  0.7531200  3
   8872   8869   8868   8890     1  0.0000000  0.6508444  3
   8872   8873   8874   8878     1  0.0000000  0.6508444  3
   8872   8873   8874   8890     1  0.0000000  0.6508444  3
   8873   8872   8869   8881     1  0.0000000  0.6508444  3
   8874   8873   8872   8880     1  0.0000000  0.6508444  3
   8874   8890   8868   8882     1  180.0000771  0.4184000  2
   8874   8890   8868   8882     1  0.0000000  1.6024720  3
   8878   8874   8873   8879     1  0.0000000  4.9162000  2
   8878   8874   8873   8879     1  0.0000000  0.6024960  3
   8879   8873   8872   8880     1  0.0000000  4.9162000  2
   8879   8873   8872   8880     1  0.0000000  0.6024960  3
   8879   8873   8874   8890     1  0.0000000  4.9162000  2
   8879   8873   8874   8890     1  0.0000000  0.6024960  3
   8880   8872   8869   8881     1  0.0000000  4.9162000  2
   8880   8872   8869   8881     1  0.0000000  0.6024960  3
   8881   8869   8868   8882     1  0.0000000  0.6508444  3
   8881   8869   8868   8890     1  0.0000000  4.9162000  2
   8881   8869   8868   8890     1  0.0000000  0.6024960  3
   8888   8882   8868   8890     1  0.0000000  4.9162000  2
   8888   8882   8868   8890     1  0.0000000  0.6024960  3
   8891   8892   8895   8896     1  180.0000771  0.8368000  1
   8891   8892   8895   8896     1  180.0000771  1.0460000  2
   8891   8892   8895   8896     1  0.0000000  0.7531200  3
   8891   8892   8895   8903     1  0.0000000  0.6508444  3
   8891   8913   8897   8901     1  180.0000771  5.6484000  1
   8891   8913   8897   8901     1  180.0000771  3.5564000  2
   8891   8913   8897   8901     1  0.0000000  0.4184000  3
   8891   8913   8897   8896     1  180.0000771  0.4184000  2
   8891   8913   8897   8896     1  0.0000000  1.6024720  3
   8892   8895   8896   8897     1  180.0000771  0.8368000  1
   8892   8895   8896   8897     1  180.0000771  1.0460000  2
   8892   8895   8896   8897     1  0.0000000  0.7531200  3
   8892   8895   8896   8902     1  0.0000000  0.6508444  3
   8892   8891   8905   8911     1  0.0000000  0.6508444  3
   8892   8891   8913   8897     1  180.0000771  0.4184000  2
   8892   8891   8913   8897     1  0.0000000  1.6024720  3
   8895   8896   8897   8901     1  0.0000000  0.6508444  3
   8895   8896   8897   8913     1  0.0000000  0.6508444  3
   8895   8892   8891   8905     1  180.0000771  0.8368000  1
   8895   8892   8891   8905     1  180.0000771  1.0460000  2
   8895   8892   8891   8905     1  0.0000000  0.7531200  3
   8895   8892   8891   8913     1  0.0000000  0.6508444  3
   8896   8895   8892   8904     1  0.0000000  0.6508444  3
   8897   8913   8891   8905     1  180.0000771  0.4184000  2
   8897   8913   8891   8905     1  0.0000000  1.6024720  3
   8897   8896   8895   8903     1  0.0000000  0.6508444  3
   8901   8897   8896   8902     1  0.0000000  4.9162000  2
   8901   8897   8896   8902     1  0.0000000  0.6024960  3
   8902   8896   8897   8913     1  0.0000000  4.9162000  2
   8902   8896   8897   8913     1  0.0000000  0.6024960  3
   8902   8896   8895   8903     1  0.0000000  4.9162000  2
   8902   8896   8895   8903     1  0.0000000  0.6024960  3
   8903   8895   8892   8904     1  0.0000000  4.9162000  2
   8903   8895   8892   8904     1  0.0000000  0.6024960  3
   8904   8892   8891   8905     1  0.0000000  0.6508444  3
   8904   8892   8891   8913     1  0.0000000  4.9162000  2
   8904   8892   8891   8913     1  0.0000000  0.6024960  3
   8911   8905   8891   8913     1  0.0000000  4.9162000  2
   8911   8905   8891   8913     1  0.0000000  0.6024960  3
   8914   8915   8918   8919     1  180.0000771  0.8368000  1
   8914   8915   8918   8919     1  180.0000771  1.0460000  2
   8914   8915   8918   8919     1  0.0000000  0.7531200  3
   8914   8915   8918   8926     1  0.0000000  0.6508444  3
   8914   8936   8920   8919     1  180.0000771  0.4184000  2
   8914   8936   8920   8919     1  0.0000000  1.6024720  3
   8914   8936   8920   8924     1  180.0000771  5.6484000  1
   8914   8936   8920   8924     1  180.0000771  3.5564000  2
   8914   8936   8920   8924     1  0.0000000  0.4184000  3
   8915   8914   8928   8934     1  0.0000000  0.6508444  3
   8915   8914   8936   8920     1  180.0000771  0.4184000  2
   8915   8914   8936   8920     1  0.0000000  1.6024720  3
   8915   8918   8919   8920     1  180.0000771  0.8368000  1
   8915   8918   8919   8920     1  180.0000771  1.0460000  2
   8915   8918   8919   8920     1  0.0000000  0.7531200  3
   8915   8918   8919   8925     1  0.0000000  0.6508444  3
   8918   8915   8914   8928     1  180.0000771  0.8368000  1
   8918   8915   8914   8928     1  180.0000771  1.0460000  2
   8918   8915   8914   8928     1  0.0000000  0.7531200  3
   8918   8915   8914   8936     1  0.0000000  0.6508444  3
   8918   8919   8920   8924     1  0.0000000  0.6508444  3
   8918   8919   8920   8936     1  0.0000000  0.6508444  3
   8919   8918   8915   8927     1  0.0000000  0.6508444  3
   8920   8919   8918   8926     1  0.0000000  0.6508444  3
   8920   8936   8914   8928     1  180.0000771  0.4184000  2
   8920   8936   8914   8928     1  0.0000000  1.6024720  3
   8924   8920   8919   8925     1  0.0000000  4.9162000  2
   8924   8920   8919   8925     1  0.0000000  0.6024960  3
   8925   8919   8918   8926     1  0.0000000  4.9162000  2
   8925   8919   8918   8926     1  0.0000000  0.6024960  3
   8925   8919   8920   8936     1  0.0000000  4.9162000  2
   8925   8919   8920   8936     1  0.0000000  0.6024960  3
   8926   8918   8915   8927     1  0.0000000  4.9162000  2
   8926   8918   8915   8927     1  0.0000000  0.6024960  3
   8927   8915   8914   8928     1  0.0000000  0.6508444  3
   8927   8915   8914   8936     1  0.0000000  4.9162000  2
   8927   8915   8914   8936     1  0.0000000  0.6024960  3
   8934   8928   8914   8936     1  0.0000000  4.9162000  2
   8934   8928   8914   8936     1  0.0000000  0.6024960  3
   8937   8938   8941   8942     1  180.0000771  0.8368000  1
   8937   8938   8941   8942     1  180.0000771  1.0460000  2
   8937   8938   8941   8942     1  0.0000000  0.7531200  3
   8937   8938   8941   8949     1  0.0000000  0.6508444  3
   8937   8959   8943   8947     1  180.0000771  5.6484000  1
   8937   8959   8943   8947     1  180.0000771  3.5564000  2
   8937   8959   8943   8947     1  0.0000000  0.4184000  3
   8937   8959   8943   8942     1  180.0000771  0.4184000  2
   8937   8959   8943   8942     1  0.0000000  1.6024720  3
   8938   8941   8942   8943     1  180.0000771  0.8368000  1
   8938   8941   8942   8943     1  180.0000771  1.0460000  2
   8938   8941   8942   8943     1  0.0000000  0.7531200  3
   8938   8941   8942   8948     1  0.0000000  0.6508444  3
   8938   8937   8951   8957     1  0.0000000  0.6508444  3
   8938   8937   8959   8943     1  180.0000771  0.4184000  2
   8938   8937   8959   8943     1  0.0000000  1.6024720  3
   8941   8942   8943   8947     1  0.0000000  0.6508444  3
   8941   8942   8943   8959     1  0.0000000  0.6508444  3
   8941   8938   8937   8951     1  180.0000771  0.8368000  1
   8941   8938   8937   8951     1  180.0000771  1.0460000  2
   8941   8938   8937   8951     1  0.0000000  0.7531200  3
   8941   8938   8937   8959     1  0.0000000  0.6508444  3
   8942   8941   8938   8950     1  0.0000000  0.6508444  3
   8943   8959   8937   8951     1  180.0000771  0.4184000  2
   8943   8959   8937   8951     1  0.0000000  1.6024720  3
   8943   8942   8941   8949     1  0.0000000  0.6508444  3
   8947   8943   8942   8948     1  0.0000000  4.9162000  2
   8947   8943   8942   8948     1  0.0000000  0.6024960  3
   8948   8942   8943   8959     1  0.0000000  4.9162000  2
   8948   8942   8943   8959     1  0.0000000  0.6024960  3
   8948   8942   8941   8949     1  0.0000000  4.9162000  2
   8948   8942   8941   8949     1  0.0000000  0.6024960  3
   8949   8941   8938   8950     1  0.0000000  4.9162000  2
   8949   8941   8938   8950     1  0.0000000  0.6024960  3
   8950   8938   8937   8951     1  0.0000000  0.6508444  3
   8950   8938   8937   8959     1  0.0000000  4.9162000  2
   8950   8938   8937   8959     1  0.0000000  0.6024960  3
   8957   8951   8937   8959     1  0.0000000  4.9162000  2
   8957   8951   8937   8959     1  0.0000000  0.6024960  3
   8960   8961   8964   8965     1  180.0000771  0.8368000  1
   8960   8961   8964   8965     1  180.0000771  1.0460000  2
   8960   8961   8964   8965     1  0.0000000  0.7531200  3
   8960   8961   8964   8972     1  0.0000000  0.6508444  3
   8960   8982   8966   8965     1  180.0000771  0.4184000  2
   8960   8982   8966   8965     1  0.0000000  1.6024720  3
   8960   8982   8966   8970     1  180.0000771  5.6484000  1
   8960   8982   8966   8970     1  180.0000771  3.5564000  2
   8960   8982   8966   8970     1  0.0000000  0.4184000  3
   8961   8960   8974   8980     1  0.0000000  0.6508444  3
   8961   8960   8982   8966     1  180.0000771  0.4184000  2
   8961   8960   8982   8966     1  0.0000000  1.6024720  3
   8961   8964   8965   8966     1  180.0000771  0.8368000  1
   8961   8964   8965   8966     1  180.0000771  1.0460000  2
   8961   8964   8965   8966     1  0.0000000  0.7531200  3
   8961   8964   8965   8971     1  0.0000000  0.6508444  3
   8964   8961   8960   8974     1  180.0000771  0.8368000  1
   8964   8961   8960   8974     1  180.0000771  1.0460000  2
   8964   8961   8960   8974     1  0.0000000  0.7531200  3
   8964   8961   8960   8982     1  0.0000000  0.6508444  3
   8964   8965   8966   8970     1  0.0000000  0.6508444  3
   8964   8965   8966   8982     1  0.0000000  0.6508444  3
   8965   8964   8961   8973     1  0.0000000  0.6508444  3
   8966   8965   8964   8972     1  0.0000000  0.6508444  3
   8966   8982   8960   8974     1  180.0000771  0.4184000  2
   8966   8982   8960   8974     1  0.0000000  1.6024720  3
   8970   8966   8965   8971     1  0.0000000  4.9162000  2
   8970   8966   8965   8971     1  0.0000000  0.6024960  3
   8971   8965   8964   8972     1  0.0000000  4.9162000  2
   8971   8965   8964   8972     1  0.0000000  0.6024960  3
   8971   8965   8966   8982     1  0.0000000  4.9162000  2
   8971   8965   8966   8982     1  0.0000000  0.6024960  3
   8972   8964   8961   8973     1  0.0000000  4.9162000  2
   8972   8964   8961   8973     1  0.0000000  0.6024960  3
   8973   8961   8960   8974     1  0.0000000  0.6508444  3
   8973   8961   8960   8982     1  0.0000000  4.9162000  2
   8973   8961   8960   8982     1  0.0000000  0.6024960  3
   8980   8974   8960   8982     1  0.0000000  4.9162000  2
   8980   8974   8960   8982     1  0.0000000  0.6024960  3
   8983   8984   8987   8988     1  180.0000771  0.8368000  1
   8983   8984   8987   8988     1  180.0000771  1.0460000  2
   8983   8984   8987   8988     1  0.0000000  0.7531200  3
   8983   8984   8987   8995     1  0.0000000  0.6508444  3
   8983   9005   8989   8993     1  180.0000771  5.6484000  1
   8983   9005   8989   8993     1  180.0000771  3.5564000  2
   8983   9005   8989   8993     1  0.0000000  0.4184000  3
   8983   9005   8989   8988     1  180.0000771  0.4184000  2
   8983   9005   8989   8988     1  0.0000000  1.6024720  3
   8984   8987   8988   8989     1  180.0000771  0.8368000  1
   8984   8987   8988   8989     1  180.0000771  1.0460000  2
   8984   8987   8988   8989     1  0.0000000  0.7531200  3
   8984   8987   8988   8994     1  0.0000000  0.6508444  3
   8984   8983   8997   9003     1  0.0000000  0.6508444  3
   8984   8983   9005   8989     1  180.0000771  0.4184000  2
   8984   8983   9005   8989     1  0.0000000  1.6024720  3
   8987   8988   8989   8993     1  0.0000000  0.6508444  3
   8987   8988   8989   9005     1  0.0000000  0.6508444  3
   8987   8984   8983   8997     1  180.0000771  0.8368000  1
   8987   8984   8983   8997     1  180.0000771  1.0460000  2
   8987   8984   8983   8997     1  0.0000000  0.7531200  3
   8987   8984   8983   9005     1  0.0000000  0.6508444  3
   8988   8987   8984   8996     1  0.0000000  0.6508444  3
   8989   9005   8983   8997     1  180.0000771  0.4184000  2
   8989   9005   8983   8997     1  0.0000000  1.6024720  3
   8989   8988   8987   8995     1  0.0000000  0.6508444  3
   8993   8989   8988   8994     1  0.0000000  4.9162000  2
   8993   8989   8988   8994     1  0.0000000  0.6024960  3
   8994   8988   8989   9005     1  0.0000000  4.9162000  2
   8994   8988   8989   9005     1  0.0000000  0.6024960  3
   8994   8988   8987   8995     1  0.0000000  4.9162000  2
   8994   8988   8987   8995     1  0.0000000  0.6024960  3
   8995   8987   8984   8996     1  0.0000000  4.9162000  2
   8995   8987   8984   8996     1  0.0000000  0.6024960  3
   8996   8984   8983   8997     1  0.0000000  0.6508444  3
   8996   8984   8983   9005     1  0.0000000  4.9162000  2
   8996   8984   8983   9005     1  0.0000000  0.6024960  3
   9003   8997   8983   9005     1  0.0000000  4.9162000  2
   9003   8997   8983   9005     1  0.0000000  0.6024960  3
   9006   9007   9010   9011     1  180.0000771  0.8368000  1
   9006   9007   9010   9011     1  180.0000771  1.0460000  2
   9006   9007   9010   9011     1  0.0000000  0.7531200  3
   9006   9007   9010   9018     1  0.0000000  0.6508444  3
   9006   9028   9012   9011     1  180.0000771  0.4184000  2
   9006   9028   9012   9011     1  0.0000000  1.6024720  3
   9006   9028   9012   9016     1  180.0000771  5.6484000  1
   9006   9028   9012   9016     1  180.0000771  3.5564000  2
   9006   9028   9012   9016     1  0.0000000  0.4184000  3
   9007   9006   9020   9026     1  0.0000000  0.6508444  3
   9007   9006   9028   9012     1  180.0000771  0.4184000  2
   9007   9006   9028   9012     1  0.0000000  1.6024720  3
   9007   9010   9011   9012     1  180.0000771  0.8368000  1
   9007   9010   9011   9012     1  180.0000771  1.0460000  2
   9007   9010   9011   9012     1  0.0000000  0.7531200  3
   9007   9010   9011   9017     1  0.0000000  0.6508444  3
   9010   9007   9006   9020     1  180.0000771  0.8368000  1
   9010   9007   9006   9020     1  180.0000771  1.0460000  2
   9010   9007   9006   9020     1  0.0000000  0.7531200  3
   9010   9007   9006   9028     1  0.0000000  0.6508444  3
   9010   9011   9012   9016     1  0.0000000  0.6508444  3
   9010   9011   9012   9028     1  0.0000000  0.6508444  3
   9011   9010   9007   9019     1  0.0000000  0.6508444  3
   9012   9011   9010   9018     1  0.0000000  0.6508444  3
   9012   9028   9006   9020     1  180.0000771  0.4184000  2
   9012   9028   9006   9020     1  0.0000000  1.6024720  3
   9016   9012   9011   9017     1  0.0000000  4.9162000  2
   9016   9012   9011   9017     1  0.0000000  0.6024960  3
   9017   9011   9010   9018     1  0.0000000  4.9162000  2
   9017   9011   9010   9018     1  0.0000000  0.6024960  3
   9017   9011   9012   9028     1  0.0000000  4.9162000  2
   9017   9011   9012   9028     1  0.0000000  0.6024960  3
   9018   9010   9007   9019     1  0.0000000  4.9162000  2
   9018   9010   9007   9019     1  0.0000000  0.6024960  3
   9019   9007   9006   9020     1  0.0000000  0.6508444  3
   9019   9007   9006   9028     1  0.0000000  4.9162000  2
   9019   9007   9006   9028     1  0.0000000  0.6024960  3
   9026   9020   9006   9028     1  0.0000000  4.9162000  2
   9026   9020   9006   9028     1  0.0000000  0.6024960  3
   9029   9030   9033   9034     1  180.0000771  0.8368000  1
   9029   9030   9033   9034     1  180.0000771  1.0460000  2
   9029   9030   9033   9034     1  0.0000000  0.7531200  3
   9029   9030   9033   9041     1  0.0000000  0.6508444  3
   9029   9051   9035   9039     1  180.0000771  5.6484000  1
   9029   9051   9035   9039     1  180.0000771  3.5564000  2
   9029   9051   9035   9039     1  0.0000000  0.4184000  3
   9029   9051   9035   9034     1  180.0000771  0.4184000  2
   9029   9051   9035   9034     1  0.0000000  1.6024720  3
   9030   9033   9034   9035     1  180.0000771  0.8368000  1
   9030   9033   9034   9035     1  180.0000771  1.0460000  2
   9030   9033   9034   9035     1  0.0000000  0.7531200  3
   9030   9033   9034   9040     1  0.0000000  0.6508444  3
   9030   9029   9043   9049     1  0.0000000  0.6508444  3
   9030   9029   9051   9035     1  180.0000771  0.4184000  2
   9030   9029   9051   9035     1  0.0000000  1.6024720  3
   9033   9034   9035   9039     1  0.0000000  0.6508444  3
   9033   9034   9035   9051     1  0.0000000  0.6508444  3
   9033   9030   9029   9043     1  180.0000771  0.8368000  1
   9033   9030   9029   9043     1  180.0000771  1.0460000  2
   9033   9030   9029   9043     1  0.0000000  0.7531200  3
   9033   9030   9029   9051     1  0.0000000  0.6508444  3
   9034   9033   9030   9042     1  0.0000000  0.6508444  3
   9035   9051   9029   9043     1  180.0000771  0.4184000  2
   9035   9051   9029   9043     1  0.0000000  1.6024720  3
   9035   9034   9033   9041     1  0.0000000  0.6508444  3
   9039   9035   9034   9040     1  0.0000000  4.9162000  2
   9039   9035   9034   9040     1  0.0000000  0.6024960  3
   9040   9034   9035   9051     1  0.0000000  4.9162000  2
   9040   9034   9035   9051     1  0.0000000  0.6024960  3
   9040   9034   9033   9041     1  0.0000000  4.9162000  2
   9040   9034   9033   9041     1  0.0000000  0.6024960  3
   9041   9033   9030   9042     1  0.0000000  4.9162000  2
   9041   9033   9030   9042     1  0.0000000  0.6024960  3
   9042   9030   9029   9043     1  0.0000000  0.6508444  3
   9042   9030   9029   9051     1  0.0000000  4.9162000  2
   9042   9030   9029   9051     1  0.0000000  0.6024960  3
   9049   9043   9029   9051     1  0.0000000  4.9162000  2
   9049   9043   9029   9051     1  0.0000000  0.6024960  3
   9052   9053   9056   9057     1  180.0000771  0.8368000  1
   9052   9053   9056   9057     1  180.0000771  1.0460000  2
   9052   9053   9056   9057     1  0.0000000  0.7531200  3
   9052   9053   9056   9064     1  0.0000000  0.6508444  3
   9052   9074   9058   9057     1  180.0000771  0.4184000  2
   9052   9074   9058   9057     1  0.0000000  1.6024720  3
   9052   9074   9058   9062     1  180.0000771  5.6484000  1
   9052   9074   9058   9062     1  180.0000771  3.5564000  2
   9052   9074   9058   9062     1  0.0000000  0.4184000  3
   9053   9052   9066   9072     1  0.0000000  0.6508444  3
   9053   9052   9074   9058     1  180.0000771  0.4184000  2
   9053   9052   9074   9058     1  0.0000000  1.6024720  3
   9053   9056   9057   9058     1  180.0000771  0.8368000  1
   9053   9056   9057   9058     1  180.0000771  1.0460000  2
   9053   9056   9057   9058     1  0.0000000  0.7531200  3
   9053   9056   9057   9063     1  0.0000000  0.6508444  3
   9056   9053   9052   9066     1  180.0000771  0.8368000  1
   9056   9053   9052   9066     1  180.0000771  1.0460000  2
   9056   9053   9052   9066     1  0.0000000  0.7531200  3
   9056   9053   9052   9074     1  0.0000000  0.6508444  3
   9056   9057   9058   9062     1  0.0000000  0.6508444  3
   9056   9057   9058   9074     1  0.0000000  0.6508444  3
   9057   9056   9053   9065     1  0.0000000  0.6508444  3
   9058   9057   9056   9064     1  0.0000000  0.6508444  3
   9058   9074   9052   9066     1  180.0000771  0.4184000  2
   9058   9074   9052   9066     1  0.0000000  1.6024720  3
   9062   9058   9057   9063     1  0.0000000  4.9162000  2
   9062   9058   9057   9063     1  0.0000000  0.6024960  3
   9063   9057   9056   9064     1  0.0000000  4.9162000  2
   9063   9057   9056   9064     1  0.0000000  0.6024960  3
   9063   9057   9058   9074     1  0.0000000  4.9162000  2
   9063   9057   9058   9074     1  0.0000000  0.6024960  3
   9064   9056   9053   9065     1  0.0000000  4.9162000  2
   9064   9056   9053   9065     1  0.0000000  0.6024960  3
   9065   9053   9052   9066     1  0.0000000  0.6508444  3
   9065   9053   9052   9074     1  0.0000000  4.9162000  2
   9065   9053   9052   9074     1  0.0000000  0.6024960  3
   9072   9066   9052   9074     1  0.0000000  4.9162000  2
   9072   9066   9052   9074     1  0.0000000  0.6024960  3
   9075   9076   9079   9080     1  180.0000771  0.8368000  1
   9075   9076   9079   9080     1  180.0000771  1.0460000  2
   9075   9076   9079   9080     1  0.0000000  0.7531200  3
   9075   9076   9079   9087     1  0.0000000  0.6508444  3
   9075   9097   9081   9085     1  180.0000771  5.6484000  1
   9075   9097   9081   9085     1  180.0000771  3.5564000  2
   9075   9097   9081   9085     1  0.0000000  0.4184000  3
   9075   9097   9081   9080     1  180.0000771  0.4184000  2
   9075   9097   9081   9080     1  0.0000000  1.6024720  3
   9076   9079   9080   9081     1  180.0000771  0.8368000  1
   9076   9079   9080   9081     1  180.0000771  1.0460000  2
   9076   9079   9080   9081     1  0.0000000  0.7531200  3
   9076   9079   9080   9086     1  0.0000000  0.6508444  3
   9076   9075   9089   9095     1  0.0000000  0.6508444  3
   9076   9075   9097   9081     1  180.0000771  0.4184000  2
   9076   9075   9097   9081     1  0.0000000  1.6024720  3
   9079   9080   9081   9085     1  0.0000000  0.6508444  3
   9079   9080   9081   9097     1  0.0000000  0.6508444  3
   9079   9076   9075   9089     1  180.0000771  0.8368000  1
   9079   9076   9075   9089     1  180.0000771  1.0460000  2
   9079   9076   9075   9089     1  0.0000000  0.7531200  3
   9079   9076   9075   9097     1  0.0000000  0.6508444  3
   9080   9079   9076   9088     1  0.0000000  0.6508444  3
   9081   9097   9075   9089     1  180.0000771  0.4184000  2
   9081   9097   9075   9089     1  0.0000000  1.6024720  3
   9081   9080   9079   9087     1  0.0000000  0.6508444  3
   9085   9081   9080   9086     1  0.0000000  4.9162000  2
   9085   9081   9080   9086     1  0.0000000  0.6024960  3
   9086   9080   9081   9097     1  0.0000000  4.9162000  2
   9086   9080   9081   9097     1  0.0000000  0.6024960  3
   9086   9080   9079   9087     1  0.0000000  4.9162000  2
   9086   9080   9079   9087     1  0.0000000  0.6024960  3
   9087   9079   9076   9088     1  0.0000000  4.9162000  2
   9087   9079   9076   9088     1  0.0000000  0.6024960  3
   9088   9076   9075   9089     1  0.0000000  0.6508444  3
   9088   9076   9075   9097     1  0.0000000  4.9162000  2
   9088   9076   9075   9097     1  0.0000000  0.6024960  3
   9095   9089   9075   9097     1  0.0000000  4.9162000  2
   9095   9089   9075   9097     1  0.0000000  0.6024960  3
   9098   9099   9102   9103     1  180.0000771  0.8368000  1
   9098   9099   9102   9103     1  180.0000771  1.0460000  2
   9098   9099   9102   9103     1  0.0000000  0.7531200  3
   9098   9099   9102   9110     1  0.0000000  0.6508444  3
   9098   9120   9104   9103     1  180.0000771  0.4184000  2
   9098   9120   9104   9103     1  0.0000000  1.6024720  3
   9098   9120   9104   9108     1  180.0000771  5.6484000  1
   9098   9120   9104   9108     1  180.0000771  3.5564000  2
   9098   9120   9104   9108     1  0.0000000  0.4184000  3
   9099   9098   9112   9118     1  0.0000000  0.6508444  3
   9099   9098   9120   9104     1  180.0000771  0.4184000  2
   9099   9098   9120   9104     1  0.0000000  1.6024720  3
   9099   9102   9103   9104     1  180.0000771  0.8368000  1
   9099   9102   9103   9104     1  180.0000771  1.0460000  2
   9099   9102   9103   9104     1  0.0000000  0.7531200  3
   9099   9102   9103   9109     1  0.0000000  0.6508444  3
   9102   9099   9098   9112     1  180.0000771  0.8368000  1
   9102   9099   9098   9112     1  180.0000771  1.0460000  2
   9102   9099   9098   9112     1  0.0000000  0.7531200  3
   9102   9099   9098   9120     1  0.0000000  0.6508444  3
   9102   9103   9104   9108     1  0.0000000  0.6508444  3
   9102   9103   9104   9120     1  0.0000000  0.6508444  3
   9103   9102   9099   9111     1  0.0000000  0.6508444  3
   9104   9103   9102   9110     1  0.0000000  0.6508444  3
   9104   9120   9098   9112     1  180.0000771  0.4184000  2
   9104   9120   9098   9112     1  0.0000000  1.6024720  3
   9108   9104   9103   9109     1  0.0000000  4.9162000  2
   9108   9104   9103   9109     1  0.0000000  0.6024960  3
   9109   9103   9102   9110     1  0.0000000  4.9162000  2
   9109   9103   9102   9110     1  0.0000000  0.6024960  3
   9109   9103   9104   9120     1  0.0000000  4.9162000  2
   9109   9103   9104   9120     1  0.0000000  0.6024960  3
   9110   9102   9099   9111     1  0.0000000  4.9162000  2
   9110   9102   9099   9111     1  0.0000000  0.6024960  3
   9111   9099   9098   9112     1  0.0000000  0.6508444  3
   9111   9099   9098   9120     1  0.0000000  4.9162000  2
   9111   9099   9098   9120     1  0.0000000  0.6024960  3
   9118   9112   9098   9120     1  0.0000000  4.9162000  2
   9118   9112   9098   9120     1  0.0000000  0.6024960  3
   9121   9122   9125   9126     1  180.0000771  0.8368000  1
   9121   9122   9125   9126     1  180.0000771  1.0460000  2
   9121   9122   9125   9126     1  0.0000000  0.7531200  3
   9121   9122   9125   9133     1  0.0000000  0.6508444  3
   9121   9143   9127   9131     1  180.0000771  5.6484000  1
   9121   9143   9127   9131     1  180.0000771  3.5564000  2
   9121   9143   9127   9131     1  0.0000000  0.4184000  3
   9121   9143   9127   9126     1  180.0000771  0.4184000  2
   9121   9143   9127   9126     1  0.0000000  1.6024720  3
   9122   9125   9126   9127     1  180.0000771  0.8368000  1
   9122   9125   9126   9127     1  180.0000771  1.0460000  2
   9122   9125   9126   9127     1  0.0000000  0.7531200  3
   9122   9125   9126   9132     1  0.0000000  0.6508444  3
   9122   9121   9135   9141     1  0.0000000  0.6508444  3
   9122   9121   9143   9127     1  180.0000771  0.4184000  2
   9122   9121   9143   9127     1  0.0000000  1.6024720  3
   9125   9126   9127   9131     1  0.0000000  0.6508444  3
   9125   9126   9127   9143     1  0.0000000  0.6508444  3
   9125   9122   9121   9135     1  180.0000771  0.8368000  1
   9125   9122   9121   9135     1  180.0000771  1.0460000  2
   9125   9122   9121   9135     1  0.0000000  0.7531200  3
   9125   9122   9121   9143     1  0.0000000  0.6508444  3
   9126   9125   9122   9134     1  0.0000000  0.6508444  3
   9127   9143   9121   9135     1  180.0000771  0.4184000  2
   9127   9143   9121   9135     1  0.0000000  1.6024720  3
   9127   9126   9125   9133     1  0.0000000  0.6508444  3
   9131   9127   9126   9132     1  0.0000000  4.9162000  2
   9131   9127   9126   9132     1  0.0000000  0.6024960  3
   9132   9126   9127   9143     1  0.0000000  4.9162000  2
   9132   9126   9127   9143     1  0.0000000  0.6024960  3
   9132   9126   9125   9133     1  0.0000000  4.9162000  2
   9132   9126   9125   9133     1  0.0000000  0.6024960  3
   9133   9125   9122   9134     1  0.0000000  4.9162000  2
   9133   9125   9122   9134     1  0.0000000  0.6024960  3
   9134   9122   9121   9135     1  0.0000000  0.6508444  3
   9134   9122   9121   9143     1  0.0000000  4.9162000  2
   9134   9122   9121   9143     1  0.0000000  0.6024960  3
   9141   9135   9121   9143     1  0.0000000  4.9162000  2
   9141   9135   9121   9143     1  0.0000000  0.6024960  3
   9144   9145   9148   9149     1  180.0000771  0.8368000  1
   9144   9145   9148   9149     1  180.0000771  1.0460000  2
   9144   9145   9148   9149     1  0.0000000  0.7531200  3
   9144   9145   9148   9156     1  0.0000000  0.6508444  3
   9144   9166   9150   9149     1  180.0000771  0.4184000  2
   9144   9166   9150   9149     1  0.0000000  1.6024720  3
   9144   9166   9150   9154     1  180.0000771  5.6484000  1
   9144   9166   9150   9154     1  180.0000771  3.5564000  2
   9144   9166   9150   9154     1  0.0000000  0.4184000  3
   9145   9144   9158   9164     1  0.0000000  0.6508444  3
   9145   9144   9166   9150     1  180.0000771  0.4184000  2
   9145   9144   9166   9150     1  0.0000000  1.6024720  3
   9145   9148   9149   9150     1  180.0000771  0.8368000  1
   9145   9148   9149   9150     1  180.0000771  1.0460000  2
   9145   9148   9149   9150     1  0.0000000  0.7531200  3
   9145   9148   9149   9155     1  0.0000000  0.6508444  3
   9148   9145   9144   9158     1  180.0000771  0.8368000  1
   9148   9145   9144   9158     1  180.0000771  1.0460000  2
   9148   9145   9144   9158     1  0.0000000  0.7531200  3
   9148   9145   9144   9166     1  0.0000000  0.6508444  3
   9148   9149   9150   9154     1  0.0000000  0.6508444  3
   9148   9149   9150   9166     1  0.0000000  0.6508444  3
   9149   9148   9145   9157     1  0.0000000  0.6508444  3
   9150   9149   9148   9156     1  0.0000000  0.6508444  3
   9150   9166   9144   9158     1  180.0000771  0.4184000  2
   9150   9166   9144   9158     1  0.0000000  1.6024720  3
   9154   9150   9149   9155     1  0.0000000  4.9162000  2
   9154   9150   9149   9155     1  0.0000000  0.6024960  3
   9155   9149   9148   9156     1  0.0000000  4.9162000  2
   9155   9149   9148   9156     1  0.0000000  0.6024960  3
   9155   9149   9150   9166     1  0.0000000  4.9162000  2
   9155   9149   9150   9166     1  0.0000000  0.6024960  3
   9156   9148   9145   9157     1  0.0000000  4.9162000  2
   9156   9148   9145   9157     1  0.0000000  0.6024960  3
   9157   9145   9144   9158     1  0.0000000  0.6508444  3
   9157   9145   9144   9166     1  0.0000000  4.9162000  2
   9157   9145   9144   9166     1  0.0000000  0.6024960  3
   9164   9158   9144   9166     1  0.0000000  4.9162000  2
   9164   9158   9144   9166     1  0.0000000  0.6024960  3
   9167   9168   9171   9172     1  180.0000771  0.8368000  1
   9167   9168   9171   9172     1  180.0000771  1.0460000  2
   9167   9168   9171   9172     1  0.0000000  0.7531200  3
   9167   9168   9171   9179     1  0.0000000  0.6508444  3
   9167   9189   9173   9177     1  180.0000771  5.6484000  1
   9167   9189   9173   9177     1  180.0000771  3.5564000  2
   9167   9189   9173   9177     1  0.0000000  0.4184000  3
   9167   9189   9173   9172     1  180.0000771  0.4184000  2
   9167   9189   9173   9172     1  0.0000000  1.6024720  3
   9168   9171   9172   9173     1  180.0000771  0.8368000  1
   9168   9171   9172   9173     1  180.0000771  1.0460000  2
   9168   9171   9172   9173     1  0.0000000  0.7531200  3
   9168   9171   9172   9178     1  0.0000000  0.6508444  3
   9168   9167   9181   9187     1  0.0000000  0.6508444  3
   9168   9167   9189   9173     1  180.0000771  0.4184000  2
   9168   9167   9189   9173     1  0.0000000  1.6024720  3
   9171   9172   9173   9177     1  0.0000000  0.6508444  3
   9171   9172   9173   9189     1  0.0000000  0.6508444  3
   9171   9168   9167   9181     1  180.0000771  0.8368000  1
   9171   9168   9167   9181     1  180.0000771  1.0460000  2
   9171   9168   9167   9181     1  0.0000000  0.7531200  3
   9171   9168   9167   9189     1  0.0000000  0.6508444  3
   9172   9171   9168   9180     1  0.0000000  0.6508444  3
   9173   9189   9167   9181     1  180.0000771  0.4184000  2
   9173   9189   9167   9181     1  0.0000000  1.6024720  3
   9173   9172   9171   9179     1  0.0000000  0.6508444  3
   9177   9173   9172   9178     1  0.0000000  4.9162000  2
   9177   9173   9172   9178     1  0.0000000  0.6024960  3
   9178   9172   9173   9189     1  0.0000000  4.9162000  2
   9178   9172   9173   9189     1  0.0000000  0.6024960  3
   9178   9172   9171   9179     1  0.0000000  4.9162000  2
   9178   9172   9171   9179     1  0.0000000  0.6024960  3
   9179   9171   9168   9180     1  0.0000000  4.9162000  2
   9179   9171   9168   9180     1  0.0000000  0.6024960  3
   9180   9168   9167   9181     1  0.0000000  0.6508444  3
   9180   9168   9167   9189     1  0.0000000  4.9162000  2
   9180   9168   9167   9189     1  0.0000000  0.6024960  3
   9187   9181   9167   9189     1  0.0000000  4.9162000  2
   9187   9181   9167   9189     1  0.0000000  0.6024960  3
   9190   9191   9194   9195     1  180.0000771  0.8368000  1
   9190   9191   9194   9195     1  180.0000771  1.0460000  2
   9190   9191   9194   9195     1  0.0000000  0.7531200  3
   9190   9191   9194   9202     1  0.0000000  0.6508444  3
   9190   9212   9196   9195     1  180.0000771  0.4184000  2
   9190   9212   9196   9195     1  0.0000000  1.6024720  3
   9190   9212   9196   9200     1  180.0000771  5.6484000  1
   9190   9212   9196   9200     1  180.0000771  3.5564000  2
   9190   9212   9196   9200     1  0.0000000  0.4184000  3
   9191   9190   9204   9210     1  0.0000000  0.6508444  3
   9191   9190   9212   9196     1  180.0000771  0.4184000  2
   9191   9190   9212   9196     1  0.0000000  1.6024720  3
   9191   9194   9195   9196     1  180.0000771  0.8368000  1
   9191   9194   9195   9196     1  180.0000771  1.0460000  2
   9191   9194   9195   9196     1  0.0000000  0.7531200  3
   9191   9194   9195   9201     1  0.0000000  0.6508444  3
   9194   9191   9190   9204     1  180.0000771  0.8368000  1
   9194   9191   9190   9204     1  180.0000771  1.0460000  2
   9194   9191   9190   9204     1  0.0000000  0.7531200  3
   9194   9191   9190   9212     1  0.0000000  0.6508444  3
   9194   9195   9196   9200     1  0.0000000  0.6508444  3
   9194   9195   9196   9212     1  0.0000000  0.6508444  3
   9195   9194   9191   9203     1  0.0000000  0.6508444  3
   9196   9195   9194   9202     1  0.0000000  0.6508444  3
   9196   9212   9190   9204     1  180.0000771  0.4184000  2
   9196   9212   9190   9204     1  0.0000000  1.6024720  3
   9200   9196   9195   9201     1  0.0000000  4.9162000  2
   9200   9196   9195   9201     1  0.0000000  0.6024960  3
   9201   9195   9194   9202     1  0.0000000  4.9162000  2
   9201   9195   9194   9202     1  0.0000000  0.6024960  3
   9201   9195   9196   9212     1  0.0000000  4.9162000  2
   9201   9195   9196   9212     1  0.0000000  0.6024960  3
   9202   9194   9191   9203     1  0.0000000  4.9162000  2
   9202   9194   9191   9203     1  0.0000000  0.6024960  3
   9203   9191   9190   9204     1  0.0000000  0.6508444  3
   9203   9191   9190   9212     1  0.0000000  4.9162000  2
   9203   9191   9190   9212     1  0.0000000  0.6024960  3
   9210   9204   9190   9212     1  0.0000000  4.9162000  2
   9210   9204   9190   9212     1  0.0000000  0.6024960  3
   9213   9214   9217   9218     1  180.0000771  0.8368000  1
   9213   9214   9217   9218     1  180.0000771  1.0460000  2
   9213   9214   9217   9218     1  0.0000000  0.7531200  3
   9213   9214   9217   9225     1  0.0000000  0.6508444  3
   9213   9235   9219   9223     1  180.0000771  5.6484000  1
   9213   9235   9219   9223     1  180.0000771  3.5564000  2
   9213   9235   9219   9223     1  0.0000000  0.4184000  3
   9213   9235   9219   9218     1  180.0000771  0.4184000  2
   9213   9235   9219   9218     1  0.0000000  1.6024720  3
   9214   9217   9218   9219     1  180.0000771  0.8368000  1
   9214   9217   9218   9219     1  180.0000771  1.0460000  2
   9214   9217   9218   9219     1  0.0000000  0.7531200  3
   9214   9217   9218   9224     1  0.0000000  0.6508444  3
   9214   9213   9227   9233     1  0.0000000  0.6508444  3
   9214   9213   9235   9219     1  180.0000771  0.4184000  2
   9214   9213   9235   9219     1  0.0000000  1.6024720  3
   9217   9218   9219   9223     1  0.0000000  0.6508444  3
   9217   9218   9219   9235     1  0.0000000  0.6508444  3
   9217   9214   9213   9227     1  180.0000771  0.8368000  1
   9217   9214   9213   9227     1  180.0000771  1.0460000  2
   9217   9214   9213   9227     1  0.0000000  0.7531200  3
   9217   9214   9213   9235     1  0.0000000  0.6508444  3
   9218   9217   9214   9226     1  0.0000000  0.6508444  3
   9219   9235   9213   9227     1  180.0000771  0.4184000  2
   9219   9235   9213   9227     1  0.0000000  1.6024720  3
   9219   9218   9217   9225     1  0.0000000  0.6508444  3
   9223   9219   9218   9224     1  0.0000000  4.9162000  2
   9223   9219   9218   9224     1  0.0000000  0.6024960  3
   9224   9218   9219   9235     1  0.0000000  4.9162000  2
   9224   9218   9219   9235     1  0.0000000  0.6024960  3
   9224   9218   9217   9225     1  0.0000000  4.9162000  2
   9224   9218   9217   9225     1  0.0000000  0.6024960  3
   9225   9217   9214   9226     1  0.0000000  4.9162000  2
   9225   9217   9214   9226     1  0.0000000  0.6024960  3
   9226   9214   9213   9227     1  0.0000000  0.6508444  3
   9226   9214   9213   9235     1  0.0000000  4.9162000  2
   9226   9214   9213   9235     1  0.0000000  0.6024960  3
   9233   9227   9213   9235     1  0.0000000  4.9162000  2
   9233   9227   9213   9235     1  0.0000000  0.6024960  3
   9236   9237   9240   9241     1  180.0000771  0.8368000  1
   9236   9237   9240   9241     1  180.0000771  1.0460000  2
   9236   9237   9240   9241     1  0.0000000  0.7531200  3
   9236   9237   9240   9248     1  0.0000000  0.6508444  3
   9236   9258   9242   9241     1  180.0000771  0.4184000  2
   9236   9258   9242   9241     1  0.0000000  1.6024720  3
   9236   9258   9242   9246     1  180.0000771  5.6484000  1
   9236   9258   9242   9246     1  180.0000771  3.5564000  2
   9236   9258   9242   9246     1  0.0000000  0.4184000  3
   9237   9236   9250   9256     1  0.0000000  0.6508444  3
   9237   9236   9258   9242     1  180.0000771  0.4184000  2
   9237   9236   9258   9242     1  0.0000000  1.6024720  3
   9237   9240   9241   9242     1  180.0000771  0.8368000  1
   9237   9240   9241   9242     1  180.0000771  1.0460000  2
   9237   9240   9241   9242     1  0.0000000  0.7531200  3
   9237   9240   9241   9247     1  0.0000000  0.6508444  3
   9240   9237   9236   9250     1  180.0000771  0.8368000  1
   9240   9237   9236   9250     1  180.0000771  1.0460000  2
   9240   9237   9236   9250     1  0.0000000  0.7531200  3
   9240   9237   9236   9258     1  0.0000000  0.6508444  3
   9240   9241   9242   9246     1  0.0000000  0.6508444  3
   9240   9241   9242   9258     1  0.0000000  0.6508444  3
   9241   9240   9237   9249     1  0.0000000  0.6508444  3
   9242   9241   9240   9248     1  0.0000000  0.6508444  3
   9242   9258   9236   9250     1  180.0000771  0.4184000  2
   9242   9258   9236   9250     1  0.0000000  1.6024720  3
   9246   9242   9241   9247     1  0.0000000  4.9162000  2
   9246   9242   9241   9247     1  0.0000000  0.6024960  3
   9247   9241   9240   9248     1  0.0000000  4.9162000  2
   9247   9241   9240   9248     1  0.0000000  0.6024960  3
   9247   9241   9242   9258     1  0.0000000  4.9162000  2
   9247   9241   9242   9258     1  0.0000000  0.6024960  3
   9248   9240   9237   9249     1  0.0000000  4.9162000  2
   9248   9240   9237   9249     1  0.0000000  0.6024960  3
   9249   9237   9236   9250     1  0.0000000  0.6508444  3
   9249   9237   9236   9258     1  0.0000000  4.9162000  2
   9249   9237   9236   9258     1  0.0000000  0.6024960  3
   9256   9250   9236   9258     1  0.0000000  4.9162000  2
   9256   9250   9236   9258     1  0.0000000  0.6024960  3
   9259   9260   9263   9264     1  180.0000771  0.8368000  1
   9259   9260   9263   9264     1  180.0000771  1.0460000  2
   9259   9260   9263   9264     1  0.0000000  0.7531200  3
   9259   9260   9263   9271     1  0.0000000  0.6508444  3
   9259   9281   9265   9269     1  180.0000771  5.6484000  1
   9259   9281   9265   9269     1  180.0000771  3.5564000  2
   9259   9281   9265   9269     1  0.0000000  0.4184000  3
   9259   9281   9265   9264     1  180.0000771  0.4184000  2
   9259   9281   9265   9264     1  0.0000000  1.6024720  3
   9260   9263   9264   9265     1  180.0000771  0.8368000  1
   9260   9263   9264   9265     1  180.0000771  1.0460000  2
   9260   9263   9264   9265     1  0.0000000  0.7531200  3
   9260   9263   9264   9270     1  0.0000000  0.6508444  3
   9260   9259   9273   9279     1  0.0000000  0.6508444  3
   9260   9259   9281   9265     1  180.0000771  0.4184000  2
   9260   9259   9281   9265     1  0.0000000  1.6024720  3
   9263   9264   9265   9269     1  0.0000000  0.6508444  3
   9263   9264   9265   9281     1  0.0000000  0.6508444  3
   9263   9260   9259   9273     1  180.0000771  0.8368000  1
   9263   9260   9259   9273     1  180.0000771  1.0460000  2
   9263   9260   9259   9273     1  0.0000000  0.7531200  3
   9263   9260   9259   9281     1  0.0000000  0.6508444  3
   9264   9263   9260   9272     1  0.0000000  0.6508444  3
   9265   9281   9259   9273     1  180.0000771  0.4184000  2
   9265   9281   9259   9273     1  0.0000000  1.6024720  3
   9265   9264   9263   9271     1  0.0000000  0.6508444  3
   9269   9265   9264   9270     1  0.0000000  4.9162000  2
   9269   9265   9264   9270     1  0.0000000  0.6024960  3
   9270   9264   9265   9281     1  0.0000000  4.9162000  2
   9270   9264   9265   9281     1  0.0000000  0.6024960  3
   9270   9264   9263   9271     1  0.0000000  4.9162000  2
   9270   9264   9263   9271     1  0.0000000  0.6024960  3
   9271   9263   9260   9272     1  0.0000000  4.9162000  2
   9271   9263   9260   9272     1  0.0000000  0.6024960  3
   9272   9260   9259   9273     1  0.0000000  0.6508444  3
   9272   9260   9259   9281     1  0.0000000  4.9162000  2
   9272   9260   9259   9281     1  0.0000000  0.6024960  3
   9279   9273   9259   9281     1  0.0000000  4.9162000  2
   9279   9273   9259   9281     1  0.0000000  0.6024960  3
   9282   9283   9286   9287     1  180.0000771  0.8368000  1
   9282   9283   9286   9287     1  180.0000771  1.0460000  2
   9282   9283   9286   9287     1  0.0000000  0.7531200  3
   9282   9283   9286   9294     1  0.0000000  0.6508444  3
   9282   9304   9288   9287     1  180.0000771  0.4184000  2
   9282   9304   9288   9287     1  0.0000000  1.6024720  3
   9282   9304   9288   9292     1  180.0000771  5.6484000  1
   9282   9304   9288   9292     1  180.0000771  3.5564000  2
   9282   9304   9288   9292     1  0.0000000  0.4184000  3
   9283   9282   9296   9302     1  0.0000000  0.6508444  3
   9283   9282   9304   9288     1  180.0000771  0.4184000  2
   9283   9282   9304   9288     1  0.0000000  1.6024720  3
   9283   9286   9287   9288     1  180.0000771  0.8368000  1
   9283   9286   9287   9288     1  180.0000771  1.0460000  2
   9283   9286   9287   9288     1  0.0000000  0.7531200  3
   9283   9286   9287   9293     1  0.0000000  0.6508444  3
   9286   9283   9282   9296     1  180.0000771  0.8368000  1
   9286   9283   9282   9296     1  180.0000771  1.0460000  2
   9286   9283   9282   9296     1  0.0000000  0.7531200  3
   9286   9283   9282   9304     1  0.0000000  0.6508444  3
   9286   9287   9288   9292     1  0.0000000  0.6508444  3
   9286   9287   9288   9304     1  0.0000000  0.6508444  3
   9287   9286   9283   9295     1  0.0000000  0.6508444  3
   9288   9287   9286   9294     1  0.0000000  0.6508444  3
   9288   9304   9282   9296     1  180.0000771  0.4184000  2
   9288   9304   9282   9296     1  0.0000000  1.6024720  3
   9292   9288   9287   9293     1  0.0000000  4.9162000  2
   9292   9288   9287   9293     1  0.0000000  0.6024960  3
   9293   9287   9286   9294     1  0.0000000  4.9162000  2
   9293   9287   9286   9294     1  0.0000000  0.6024960  3
   9293   9287   9288   9304     1  0.0000000  4.9162000  2
   9293   9287   9288   9304     1  0.0000000  0.6024960  3
   9294   9286   9283   9295     1  0.0000000  4.9162000  2
   9294   9286   9283   9295     1  0.0000000  0.6024960  3
   9295   9283   9282   9296     1  0.0000000  0.6508444  3
   9295   9283   9282   9304     1  0.0000000  4.9162000  2
   9295   9283   9282   9304     1  0.0000000  0.6024960  3
   9302   9296   9282   9304     1  0.0000000  4.9162000  2
   9302   9296   9282   9304     1  0.0000000  0.6024960  3
   9305   9306   9309   9310     1  180.0000771  0.8368000  1
   9305   9306   9309   9310     1  180.0000771  1.0460000  2
   9305   9306   9309   9310     1  0.0000000  0.7531200  3
   9305   9306   9309   9317     1  0.0000000  0.6508444  3
   9305   9327   9311   9315     1  180.0000771  5.6484000  1
   9305   9327   9311   9315     1  180.0000771  3.5564000  2
   9305   9327   9311   9315     1  0.0000000  0.4184000  3
   9305   9327   9311   9310     1  180.0000771  0.4184000  2
   9305   9327   9311   9310     1  0.0000000  1.6024720  3
   9306   9309   9310   9311     1  180.0000771  0.8368000  1
   9306   9309   9310   9311     1  180.0000771  1.0460000  2
   9306   9309   9310   9311     1  0.0000000  0.7531200  3
   9306   9309   9310   9316     1  0.0000000  0.6508444  3
   9306   9305   9319   9325     1  0.0000000  0.6508444  3
   9306   9305   9327   9311     1  180.0000771  0.4184000  2
   9306   9305   9327   9311     1  0.0000000  1.6024720  3
   9309   9310   9311   9315     1  0.0000000  0.6508444  3
   9309   9310   9311   9327     1  0.0000000  0.6508444  3
   9309   9306   9305   9319     1  180.0000771  0.8368000  1
   9309   9306   9305   9319     1  180.0000771  1.0460000  2
   9309   9306   9305   9319     1  0.0000000  0.7531200  3
   9309   9306   9305   9327     1  0.0000000  0.6508444  3
   9310   9309   9306   9318     1  0.0000000  0.6508444  3
   9311   9327   9305   9319     1  180.0000771  0.4184000  2
   9311   9327   9305   9319     1  0.0000000  1.6024720  3
   9311   9310   9309   9317     1  0.0000000  0.6508444  3
   9315   9311   9310   9316     1  0.0000000  4.9162000  2
   9315   9311   9310   9316     1  0.0000000  0.6024960  3
   9316   9310   9311   9327     1  0.0000000  4.9162000  2
   9316   9310   9311   9327     1  0.0000000  0.6024960  3
   9316   9310   9309   9317     1  0.0000000  4.9162000  2
   9316   9310   9309   9317     1  0.0000000  0.6024960  3
   9317   9309   9306   9318     1  0.0000000  4.9162000  2
   9317   9309   9306   9318     1  0.0000000  0.6024960  3
   9318   9306   9305   9319     1  0.0000000  0.6508444  3
   9318   9306   9305   9327     1  0.0000000  4.9162000  2
   9318   9306   9305   9327     1  0.0000000  0.6024960  3
   9325   9319   9305   9327     1  0.0000000  4.9162000  2
   9325   9319   9305   9327     1  0.0000000  0.6024960  3
   9328   9329   9332   9333     1  180.0000771  0.8368000  1
   9328   9329   9332   9333     1  180.0000771  1.0460000  2
   9328   9329   9332   9333     1  0.0000000  0.7531200  3
   9328   9329   9332   9340     1  0.0000000  0.6508444  3
   9328   9350   9334   9333     1  180.0000771  0.4184000  2
   9328   9350   9334   9333     1  0.0000000  1.6024720  3
   9328   9350   9334   9338     1  180.0000771  5.6484000  1
   9328   9350   9334   9338     1  180.0000771  3.5564000  2
   9328   9350   9334   9338     1  0.0000000  0.4184000  3
   9329   9328   9342   9348     1  0.0000000  0.6508444  3
   9329   9328   9350   9334     1  180.0000771  0.4184000  2
   9329   9328   9350   9334     1  0.0000000  1.6024720  3
   9329   9332   9333   9334     1  180.0000771  0.8368000  1
   9329   9332   9333   9334     1  180.0000771  1.0460000  2
   9329   9332   9333   9334     1  0.0000000  0.7531200  3
   9329   9332   9333   9339     1  0.0000000  0.6508444  3
   9332   9329   9328   9342     1  180.0000771  0.8368000  1
   9332   9329   9328   9342     1  180.0000771  1.0460000  2
   9332   9329   9328   9342     1  0.0000000  0.7531200  3
   9332   9329   9328   9350     1  0.0000000  0.6508444  3
   9332   9333   9334   9338     1  0.0000000  0.6508444  3
   9332   9333   9334   9350     1  0.0000000  0.6508444  3
   9333   9332   9329   9341     1  0.0000000  0.6508444  3
   9334   9333   9332   9340     1  0.0000000  0.6508444  3
   9334   9350   9328   9342     1  180.0000771  0.4184000  2
   9334   9350   9328   9342     1  0.0000000  1.6024720  3
   9338   9334   9333   9339     1  0.0000000  4.9162000  2
   9338   9334   9333   9339     1  0.0000000  0.6024960  3
   9339   9333   9332   9340     1  0.0000000  4.9162000  2
   9339   9333   9332   9340     1  0.0000000  0.6024960  3
   9339   9333   9334   9350     1  0.0000000  4.9162000  2
   9339   9333   9334   9350     1  0.0000000  0.6024960  3
   9340   9332   9329   9341     1  0.0000000  4.9162000  2
   9340   9332   9329   9341     1  0.0000000  0.6024960  3
   9341   9329   9328   9342     1  0.0000000  0.6508444  3
   9341   9329   9328   9350     1  0.0000000  4.9162000  2
   9341   9329   9328   9350     1  0.0000000  0.6024960  3
   9348   9342   9328   9350     1  0.0000000  4.9162000  2
   9348   9342   9328   9350     1  0.0000000  0.6024960  3
   9351   9352   9355   9356     1  180.0000771  0.8368000  1
   9351   9352   9355   9356     1  180.0000771  1.0460000  2
   9351   9352   9355   9356     1  0.0000000  0.7531200  3
   9351   9352   9355   9363     1  0.0000000  0.6508444  3
   9351   9373   9357   9361     1  180.0000771  5.6484000  1
   9351   9373   9357   9361     1  180.0000771  3.5564000  2
   9351   9373   9357   9361     1  0.0000000  0.4184000  3
   9351   9373   9357   9356     1  180.0000771  0.4184000  2
   9351   9373   9357   9356     1  0.0000000  1.6024720  3
   9352   9355   9356   9357     1  180.0000771  0.8368000  1
   9352   9355   9356   9357     1  180.0000771  1.0460000  2
   9352   9355   9356   9357     1  0.0000000  0.7531200  3
   9352   9355   9356   9362     1  0.0000000  0.6508444  3
   9352   9351   9365   9371     1  0.0000000  0.6508444  3
   9352   9351   9373   9357     1  180.0000771  0.4184000  2
   9352   9351   9373   9357     1  0.0000000  1.6024720  3
   9355   9356   9357   9361     1  0.0000000  0.6508444  3
   9355   9356   9357   9373     1  0.0000000  0.6508444  3
   9355   9352   9351   9365     1  180.0000771  0.8368000  1
   9355   9352   9351   9365     1  180.0000771  1.0460000  2
   9355   9352   9351   9365     1  0.0000000  0.7531200  3
   9355   9352   9351   9373     1  0.0000000  0.6508444  3
   9356   9355   9352   9364     1  0.0000000  0.6508444  3
   9357   9373   9351   9365     1  180.0000771  0.4184000  2
   9357   9373   9351   9365     1  0.0000000  1.6024720  3
   9357   9356   9355   9363     1  0.0000000  0.6508444  3
   9361   9357   9356   9362     1  0.0000000  4.9162000  2
   9361   9357   9356   9362     1  0.0000000  0.6024960  3
   9362   9356   9357   9373     1  0.0000000  4.9162000  2
   9362   9356   9357   9373     1  0.0000000  0.6024960  3
   9362   9356   9355   9363     1  0.0000000  4.9162000  2
   9362   9356   9355   9363     1  0.0000000  0.6024960  3
   9363   9355   9352   9364     1  0.0000000  4.9162000  2
   9363   9355   9352   9364     1  0.0000000  0.6024960  3
   9364   9352   9351   9365     1  0.0000000  0.6508444  3
   9364   9352   9351   9373     1  0.0000000  4.9162000  2
   9364   9352   9351   9373     1  0.0000000  0.6024960  3
   9371   9365   9351   9373     1  0.0000000  4.9162000  2
   9371   9365   9351   9373     1  0.0000000  0.6024960  3
   9374   9375   9378   9379     1  180.0000771  0.8368000  1
   9374   9375   9378   9379     1  180.0000771  1.0460000  2
   9374   9375   9378   9379     1  0.0000000  0.7531200  3
   9374   9375   9378   9386     1  0.0000000  0.6508444  3
   9374   9396   9380   9379     1  180.0000771  0.4184000  2
   9374   9396   9380   9379     1  0.0000000  1.6024720  3
   9374   9396   9380   9384     1  180.0000771  5.6484000  1
   9374   9396   9380   9384     1  180.0000771  3.5564000  2
   9374   9396   9380   9384     1  0.0000000  0.4184000  3
   9375   9374   9388   9394     1  0.0000000  0.6508444  3
   9375   9374   9396   9380     1  180.0000771  0.4184000  2
   9375   9374   9396   9380     1  0.0000000  1.6024720  3
   9375   9378   9379   9380     1  180.0000771  0.8368000  1
   9375   9378   9379   9380     1  180.0000771  1.0460000  2
   9375   9378   9379   9380     1  0.0000000  0.7531200  3
   9375   9378   9379   9385     1  0.0000000  0.6508444  3
   9378   9375   9374   9388     1  180.0000771  0.8368000  1
   9378   9375   9374   9388     1  180.0000771  1.0460000  2
   9378   9375   9374   9388     1  0.0000000  0.7531200  3
   9378   9375   9374   9396     1  0.0000000  0.6508444  3
   9378   9379   9380   9384     1  0.0000000  0.6508444  3
   9378   9379   9380   9396     1  0.0000000  0.6508444  3
   9379   9378   9375   9387     1  0.0000000  0.6508444  3
   9380   9379   9378   9386     1  0.0000000  0.6508444  3
   9380   9396   9374   9388     1  180.0000771  0.4184000  2
   9380   9396   9374   9388     1  0.0000000  1.6024720  3
   9384   9380   9379   9385     1  0.0000000  4.9162000  2
   9384   9380   9379   9385     1  0.0000000  0.6024960  3
   9385   9379   9378   9386     1  0.0000000  4.9162000  2
   9385   9379   9378   9386     1  0.0000000  0.6024960  3
   9385   9379   9380   9396     1  0.0000000  4.9162000  2
   9385   9379   9380   9396     1  0.0000000  0.6024960  3
   9386   9378   9375   9387     1  0.0000000  4.9162000  2
   9386   9378   9375   9387     1  0.0000000  0.6024960  3
   9387   9375   9374   9388     1  0.0000000  0.6508444  3
   9387   9375   9374   9396     1  0.0000000  4.9162000  2
   9387   9375   9374   9396     1  0.0000000  0.6024960  3
   9394   9388   9374   9396     1  0.0000000  4.9162000  2
   9394   9388   9374   9396     1  0.0000000  0.6024960  3
   9397   9398   9401   9402     1  180.0000771  0.8368000  1
   9397   9398   9401   9402     1  180.0000771  1.0460000  2
   9397   9398   9401   9402     1  0.0000000  0.7531200  3
   9397   9398   9401   9409     1  0.0000000  0.6508444  3
   9397   9419   9403   9407     1  180.0000771  5.6484000  1
   9397   9419   9403   9407     1  180.0000771  3.5564000  2
   9397   9419   9403   9407     1  0.0000000  0.4184000  3
   9397   9419   9403   9402     1  180.0000771  0.4184000  2
   9397   9419   9403   9402     1  0.0000000  1.6024720  3
   9398   9401   9402   9403     1  180.0000771  0.8368000  1
   9398   9401   9402   9403     1  180.0000771  1.0460000  2
   9398   9401   9402   9403     1  0.0000000  0.7531200  3
   9398   9401   9402   9408     1  0.0000000  0.6508444  3
   9398   9397   9411   9417     1  0.0000000  0.6508444  3
   9398   9397   9419   9403     1  180.0000771  0.4184000  2
   9398   9397   9419   9403     1  0.0000000  1.6024720  3
   9401   9402   9403   9407     1  0.0000000  0.6508444  3
   9401   9402   9403   9419     1  0.0000000  0.6508444  3
   9401   9398   9397   9411     1  180.0000771  0.8368000  1
   9401   9398   9397   9411     1  180.0000771  1.0460000  2
   9401   9398   9397   9411     1  0.0000000  0.7531200  3
   9401   9398   9397   9419     1  0.0000000  0.6508444  3
   9402   9401   9398   9410     1  0.0000000  0.6508444  3
   9403   9419   9397   9411     1  180.0000771  0.4184000  2
   9403   9419   9397   9411     1  0.0000000  1.6024720  3
   9403   9402   9401   9409     1  0.0000000  0.6508444  3
   9407   9403   9402   9408     1  0.0000000  4.9162000  2
   9407   9403   9402   9408     1  0.0000000  0.6024960  3
   9408   9402   9403   9419     1  0.0000000  4.9162000  2
   9408   9402   9403   9419     1  0.0000000  0.6024960  3
   9408   9402   9401   9409     1  0.0000000  4.9162000  2
   9408   9402   9401   9409     1  0.0000000  0.6024960  3
   9409   9401   9398   9410     1  0.0000000  4.9162000  2
   9409   9401   9398   9410     1  0.0000000  0.6024960  3
   9410   9398   9397   9411     1  0.0000000  0.6508444  3
   9410   9398   9397   9419     1  0.0000000  4.9162000  2
   9410   9398   9397   9419     1  0.0000000  0.6024960  3
   9417   9411   9397   9419     1  0.0000000  4.9162000  2
   9417   9411   9397   9419     1  0.0000000  0.6024960  3
   9420   9421   9424   9425     1  180.0000771  0.8368000  1
   9420   9421   9424   9425     1  180.0000771  1.0460000  2
   9420   9421   9424   9425     1  0.0000000  0.7531200  3
   9420   9421   9424   9432     1  0.0000000  0.6508444  3
   9420   9442   9426   9425     1  180.0000771  0.4184000  2
   9420   9442   9426   9425     1  0.0000000  1.6024720  3
   9420   9442   9426   9430     1  180.0000771  5.6484000  1
   9420   9442   9426   9430     1  180.0000771  3.5564000  2
   9420   9442   9426   9430     1  0.0000000  0.4184000  3
   9421   9420   9434   9440     1  0.0000000  0.6508444  3
   9421   9420   9442   9426     1  180.0000771  0.4184000  2
   9421   9420   9442   9426     1  0.0000000  1.6024720  3
   9421   9424   9425   9426     1  180.0000771  0.8368000  1
   9421   9424   9425   9426     1  180.0000771  1.0460000  2
   9421   9424   9425   9426     1  0.0000000  0.7531200  3
   9421   9424   9425   9431     1  0.0000000  0.6508444  3
   9424   9421   9420   9434     1  180.0000771  0.8368000  1
   9424   9421   9420   9434     1  180.0000771  1.0460000  2
   9424   9421   9420   9434     1  0.0000000  0.7531200  3
   9424   9421   9420   9442     1  0.0000000  0.6508444  3
   9424   9425   9426   9430     1  0.0000000  0.6508444  3
   9424   9425   9426   9442     1  0.0000000  0.6508444  3
   9425   9424   9421   9433     1  0.0000000  0.6508444  3
   9426   9425   9424   9432     1  0.0000000  0.6508444  3
   9426   9442   9420   9434     1  180.0000771  0.4184000  2
   9426   9442   9420   9434     1  0.0000000  1.6024720  3
   9430   9426   9425   9431     1  0.0000000  4.9162000  2
   9430   9426   9425   9431     1  0.0000000  0.6024960  3
   9431   9425   9424   9432     1  0.0000000  4.9162000  2
   9431   9425   9424   9432     1  0.0000000  0.6024960  3
   9431   9425   9426   9442     1  0.0000000  4.9162000  2
   9431   9425   9426   9442     1  0.0000000  0.6024960  3
   9432   9424   9421   9433     1  0.0000000  4.9162000  2
   9432   9424   9421   9433     1  0.0000000  0.6024960  3
   9433   9421   9420   9434     1  0.0000000  0.6508444  3
   9433   9421   9420   9442     1  0.0000000  4.9162000  2
   9433   9421   9420   9442     1  0.0000000  0.6024960  3
   9440   9434   9420   9442     1  0.0000000  4.9162000  2
   9440   9434   9420   9442     1  0.0000000  0.6024960  3
   9443   9444   9447   9448     1  180.0000771  0.8368000  1
   9443   9444   9447   9448     1  180.0000771  1.0460000  2
   9443   9444   9447   9448     1  0.0000000  0.7531200  3
   9443   9444   9447   9455     1  0.0000000  0.6508444  3
   9443   9465   9449   9453     1  180.0000771  5.6484000  1
   9443   9465   9449   9453     1  180.0000771  3.5564000  2
   9443   9465   9449   9453     1  0.0000000  0.4184000  3
   9443   9465   9449   9448     1  180.0000771  0.4184000  2
   9443   9465   9449   9448     1  0.0000000  1.6024720  3
   9444   9447   9448   9449     1  180.0000771  0.8368000  1
   9444   9447   9448   9449     1  180.0000771  1.0460000  2
   9444   9447   9448   9449     1  0.0000000  0.7531200  3
   9444   9447   9448   9454     1  0.0000000  0.6508444  3
   9444   9443   9457   9463     1  0.0000000  0.6508444  3
   9444   9443   9465   9449     1  180.0000771  0.4184000  2
   9444   9443   9465   9449     1  0.0000000  1.6024720  3
   9447   9448   9449   9453     1  0.0000000  0.6508444  3
   9447   9448   9449   9465     1  0.0000000  0.6508444  3
   9447   9444   9443   9457     1  180.0000771  0.8368000  1
   9447   9444   9443   9457     1  180.0000771  1.0460000  2
   9447   9444   9443   9457     1  0.0000000  0.7531200  3
   9447   9444   9443   9465     1  0.0000000  0.6508444  3
   9448   9447   9444   9456     1  0.0000000  0.6508444  3
   9449   9465   9443   9457     1  180.0000771  0.4184000  2
   9449   9465   9443   9457     1  0.0000000  1.6024720  3
   9449   9448   9447   9455     1  0.0000000  0.6508444  3
   9453   9449   9448   9454     1  0.0000000  4.9162000  2
   9453   9449   9448   9454     1  0.0000000  0.6024960  3
   9454   9448   9449   9465     1  0.0000000  4.9162000  2
   9454   9448   9449   9465     1  0.0000000  0.6024960  3
   9454   9448   9447   9455     1  0.0000000  4.9162000  2
   9454   9448   9447   9455     1  0.0000000  0.6024960  3
   9455   9447   9444   9456     1  0.0000000  4.9162000  2
   9455   9447   9444   9456     1  0.0000000  0.6024960  3
   9456   9444   9443   9457     1  0.0000000  0.6508444  3
   9456   9444   9443   9465     1  0.0000000  4.9162000  2
   9456   9444   9443   9465     1  0.0000000  0.6024960  3
   9463   9457   9443   9465     1  0.0000000  4.9162000  2
   9463   9457   9443   9465     1  0.0000000  0.6024960  3
   9466   9467   9470   9471     1  180.0000771  0.8368000  1
   9466   9467   9470   9471     1  180.0000771  1.0460000  2
   9466   9467   9470   9471     1  0.0000000  0.7531200  3
   9466   9467   9470   9478     1  0.0000000  0.6508444  3
   9466   9488   9472   9471     1  180.0000771  0.4184000  2
   9466   9488   9472   9471     1  0.0000000  1.6024720  3
   9466   9488   9472   9476     1  180.0000771  5.6484000  1
   9466   9488   9472   9476     1  180.0000771  3.5564000  2
   9466   9488   9472   9476     1  0.0000000  0.4184000  3
   9467   9466   9480   9486     1  0.0000000  0.6508444  3
   9467   9466   9488   9472     1  180.0000771  0.4184000  2
   9467   9466   9488   9472     1  0.0000000  1.6024720  3
   9467   9470   9471   9472     1  180.0000771  0.8368000  1
   9467   9470   9471   9472     1  180.0000771  1.0460000  2
   9467   9470   9471   9472     1  0.0000000  0.7531200  3
   9467   9470   9471   9477     1  0.0000000  0.6508444  3
   9470   9467   9466   9480     1  180.0000771  0.8368000  1
   9470   9467   9466   9480     1  180.0000771  1.0460000  2
   9470   9467   9466   9480     1  0.0000000  0.7531200  3
   9470   9467   9466   9488     1  0.0000000  0.6508444  3
   9470   9471   9472   9476     1  0.0000000  0.6508444  3
   9470   9471   9472   9488     1  0.0000000  0.6508444  3
   9471   9470   9467   9479     1  0.0000000  0.6508444  3
   9472   9471   9470   9478     1  0.0000000  0.6508444  3
   9472   9488   9466   9480     1  180.0000771  0.4184000  2
   9472   9488   9466   9480     1  0.0000000  1.6024720  3
   9476   9472   9471   9477     1  0.0000000  4.9162000  2
   9476   9472   9471   9477     1  0.0000000  0.6024960  3
   9477   9471   9470   9478     1  0.0000000  4.9162000  2
   9477   9471   9470   9478     1  0.0000000  0.6024960  3
   9477   9471   9472   9488     1  0.0000000  4.9162000  2
   9477   9471   9472   9488     1  0.0000000  0.6024960  3
   9478   9470   9467   9479     1  0.0000000  4.9162000  2
   9478   9470   9467   9479     1  0.0000000  0.6024960  3
   9479   9467   9466   9480     1  0.0000000  0.6508444  3
   9479   9467   9466   9488     1  0.0000000  4.9162000  2
   9479   9467   9466   9488     1  0.0000000  0.6024960  3
   9486   9480   9466   9488     1  0.0000000  4.9162000  2
   9486   9480   9466   9488     1  0.0000000  0.6024960  3
   9489   9490   9493   9494     1  180.0000771  0.8368000  1
   9489   9490   9493   9494     1  180.0000771  1.0460000  2
   9489   9490   9493   9494     1  0.0000000  0.7531200  3
   9489   9490   9493   9501     1  0.0000000  0.6508444  3
   9489   9511   9495   9499     1  180.0000771  5.6484000  1
   9489   9511   9495   9499     1  180.0000771  3.5564000  2
   9489   9511   9495   9499     1  0.0000000  0.4184000  3
   9489   9511   9495   9494     1  180.0000771  0.4184000  2
   9489   9511   9495   9494     1  0.0000000  1.6024720  3
   9490   9493   9494   9495     1  180.0000771  0.8368000  1
   9490   9493   9494   9495     1  180.0000771  1.0460000  2
   9490   9493   9494   9495     1  0.0000000  0.7531200  3
   9490   9493   9494   9500     1  0.0000000  0.6508444  3
   9490   9489   9503   9509     1  0.0000000  0.6508444  3
   9490   9489   9511   9495     1  180.0000771  0.4184000  2
   9490   9489   9511   9495     1  0.0000000  1.6024720  3
   9493   9494   9495   9499     1  0.0000000  0.6508444  3
   9493   9494   9495   9511     1  0.0000000  0.6508444  3
   9493   9490   9489   9503     1  180.0000771  0.8368000  1
   9493   9490   9489   9503     1  180.0000771  1.0460000  2
   9493   9490   9489   9503     1  0.0000000  0.7531200  3
   9493   9490   9489   9511     1  0.0000000  0.6508444  3
   9494   9493   9490   9502     1  0.0000000  0.6508444  3
   9495   9511   9489   9503     1  180.0000771  0.4184000  2
   9495   9511   9489   9503     1  0.0000000  1.6024720  3
   9495   9494   9493   9501     1  0.0000000  0.6508444  3
   9499   9495   9494   9500     1  0.0000000  4.9162000  2
   9499   9495   9494   9500     1  0.0000000  0.6024960  3
   9500   9494   9495   9511     1  0.0000000  4.9162000  2
   9500   9494   9495   9511     1  0.0000000  0.6024960  3
   9500   9494   9493   9501     1  0.0000000  4.9162000  2
   9500   9494   9493   9501     1  0.0000000  0.6024960  3
   9501   9493   9490   9502     1  0.0000000  4.9162000  2
   9501   9493   9490   9502     1  0.0000000  0.6024960  3
   9502   9490   9489   9503     1  0.0000000  0.6508444  3
   9502   9490   9489   9511     1  0.0000000  4.9162000  2
   9502   9490   9489   9511     1  0.0000000  0.6024960  3
   9509   9503   9489   9511     1  0.0000000  4.9162000  2
   9509   9503   9489   9511     1  0.0000000  0.6024960  3
   9512   9513   9516   9517     1  180.0000771  0.8368000  1
   9512   9513   9516   9517     1  180.0000771  1.0460000  2
   9512   9513   9516   9517     1  0.0000000  0.7531200  3
   9512   9513   9516   9524     1  0.0000000  0.6508444  3
   9512   9534   9518   9517     1  180.0000771  0.4184000  2
   9512   9534   9518   9517     1  0.0000000  1.6024720  3
   9512   9534   9518   9522     1  180.0000771  5.6484000  1
   9512   9534   9518   9522     1  180.0000771  3.5564000  2
   9512   9534   9518   9522     1  0.0000000  0.4184000  3
   9513   9512   9526   9532     1  0.0000000  0.6508444  3
   9513   9512   9534   9518     1  180.0000771  0.4184000  2
   9513   9512   9534   9518     1  0.0000000  1.6024720  3
   9513   9516   9517   9518     1  180.0000771  0.8368000  1
   9513   9516   9517   9518     1  180.0000771  1.0460000  2
   9513   9516   9517   9518     1  0.0000000  0.7531200  3
   9513   9516   9517   9523     1  0.0000000  0.6508444  3
   9516   9513   9512   9526     1  180.0000771  0.8368000  1
   9516   9513   9512   9526     1  180.0000771  1.0460000  2
   9516   9513   9512   9526     1  0.0000000  0.7531200  3
   9516   9513   9512   9534     1  0.0000000  0.6508444  3
   9516   9517   9518   9522     1  0.0000000  0.6508444  3
   9516   9517   9518   9534     1  0.0000000  0.6508444  3
   9517   9516   9513   9525     1  0.0000000  0.6508444  3
   9518   9517   9516   9524     1  0.0000000  0.6508444  3
   9518   9534   9512   9526     1  180.0000771  0.4184000  2
   9518   9534   9512   9526     1  0.0000000  1.6024720  3
   9522   9518   9517   9523     1  0.0000000  4.9162000  2
   9522   9518   9517   9523     1  0.0000000  0.6024960  3
   9523   9517   9516   9524     1  0.0000000  4.9162000  2
   9523   9517   9516   9524     1  0.0000000  0.6024960  3
   9523   9517   9518   9534     1  0.0000000  4.9162000  2
   9523   9517   9518   9534     1  0.0000000  0.6024960  3
   9524   9516   9513   9525     1  0.0000000  4.9162000  2
   9524   9516   9513   9525     1  0.0000000  0.6024960  3
   9525   9513   9512   9526     1  0.0000000  0.6508444  3
   9525   9513   9512   9534     1  0.0000000  4.9162000  2
   9525   9513   9512   9534     1  0.0000000  0.6024960  3
   9532   9526   9512   9534     1  0.0000000  4.9162000  2
   9532   9526   9512   9534     1  0.0000000  0.6024960  3
   9535   9536   9539   9540     1  180.0000771  0.8368000  1
   9535   9536   9539   9540     1  180.0000771  1.0460000  2
   9535   9536   9539   9540     1  0.0000000  0.7531200  3
   9535   9536   9539   9547     1  0.0000000  0.6508444  3
   9535   9557   9541   9545     1  180.0000771  5.6484000  1
   9535   9557   9541   9545     1  180.0000771  3.5564000  2
   9535   9557   9541   9545     1  0.0000000  0.4184000  3
   9535   9557   9541   9540     1  180.0000771  0.4184000  2
   9535   9557   9541   9540     1  0.0000000  1.6024720  3
   9536   9539   9540   9541     1  180.0000771  0.8368000  1
   9536   9539   9540   9541     1  180.0000771  1.0460000  2
   9536   9539   9540   9541     1  0.0000000  0.7531200  3
   9536   9539   9540   9546     1  0.0000000  0.6508444  3
   9536   9535   9549   9555     1  0.0000000  0.6508444  3
   9536   9535   9557   9541     1  180.0000771  0.4184000  2
   9536   9535   9557   9541     1  0.0000000  1.6024720  3
   9539   9540   9541   9545     1  0.0000000  0.6508444  3
   9539   9540   9541   9557     1  0.0000000  0.6508444  3
   9539   9536   9535   9549     1  180.0000771  0.8368000  1
   9539   9536   9535   9549     1  180.0000771  1.0460000  2
   9539   9536   9535   9549     1  0.0000000  0.7531200  3
   9539   9536   9535   9557     1  0.0000000  0.6508444  3
   9540   9539   9536   9548     1  0.0000000  0.6508444  3
   9541   9557   9535   9549     1  180.0000771  0.4184000  2
   9541   9557   9535   9549     1  0.0000000  1.6024720  3
   9541   9540   9539   9547     1  0.0000000  0.6508444  3
   9545   9541   9540   9546     1  0.0000000  4.9162000  2
   9545   9541   9540   9546     1  0.0000000  0.6024960  3
   9546   9540   9541   9557     1  0.0000000  4.9162000  2
   9546   9540   9541   9557     1  0.0000000  0.6024960  3
   9546   9540   9539   9547     1  0.0000000  4.9162000  2
   9546   9540   9539   9547     1  0.0000000  0.6024960  3
   9547   9539   9536   9548     1  0.0000000  4.9162000  2
   9547   9539   9536   9548     1  0.0000000  0.6024960  3
   9548   9536   9535   9549     1  0.0000000  0.6508444  3
   9548   9536   9535   9557     1  0.0000000  4.9162000  2
   9548   9536   9535   9557     1  0.0000000  0.6024960  3
   9555   9549   9535   9557     1  0.0000000  4.9162000  2
   9555   9549   9535   9557     1  0.0000000  0.6024960  3
   9558   9559   9562   9563     1  180.0000771  0.8368000  1
   9558   9559   9562   9563     1  180.0000771  1.0460000  2
   9558   9559   9562   9563     1  0.0000000  0.7531200  3
   9558   9559   9562   9570     1  0.0000000  0.6508444  3
   9558   9580   9564   9563     1  180.0000771  0.4184000  2
   9558   9580   9564   9563     1  0.0000000  1.6024720  3
   9558   9580   9564   9568     1  180.0000771  5.6484000  1
   9558   9580   9564   9568     1  180.0000771  3.5564000  2
   9558   9580   9564   9568     1  0.0000000  0.4184000  3
   9559   9558   9572   9578     1  0.0000000  0.6508444  3
   9559   9558   9580   9564     1  180.0000771  0.4184000  2
   9559   9558   9580   9564     1  0.0000000  1.6024720  3
   9559   9562   9563   9564     1  180.0000771  0.8368000  1
   9559   9562   9563   9564     1  180.0000771  1.0460000  2
   9559   9562   9563   9564     1  0.0000000  0.7531200  3
   9559   9562   9563   9569     1  0.0000000  0.6508444  3
   9562   9559   9558   9572     1  180.0000771  0.8368000  1
   9562   9559   9558   9572     1  180.0000771  1.0460000  2
   9562   9559   9558   9572     1  0.0000000  0.7531200  3
   9562   9559   9558   9580     1  0.0000000  0.6508444  3
   9562   9563   9564   9568     1  0.0000000  0.6508444  3
   9562   9563   9564   9580     1  0.0000000  0.6508444  3
   9563   9562   9559   9571     1  0.0000000  0.6508444  3
   9564   9563   9562   9570     1  0.0000000  0.6508444  3
   9564   9580   9558   9572     1  180.0000771  0.4184000  2
   9564   9580   9558   9572     1  0.0000000  1.6024720  3
   9568   9564   9563   9569     1  0.0000000  4.9162000  2
   9568   9564   9563   9569     1  0.0000000  0.6024960  3
   9569   9563   9562   9570     1  0.0000000  4.9162000  2
   9569   9563   9562   9570     1  0.0000000  0.6024960  3
   9569   9563   9564   9580     1  0.0000000  4.9162000  2
   9569   9563   9564   9580     1  0.0000000  0.6024960  3
   9570   9562   9559   9571     1  0.0000000  4.9162000  2
   9570   9562   9559   9571     1  0.0000000  0.6024960  3
   9571   9559   9558   9572     1  0.0000000  0.6508444  3
   9571   9559   9558   9580     1  0.0000000  4.9162000  2
   9571   9559   9558   9580     1  0.0000000  0.6024960  3
   9578   9572   9558   9580     1  0.0000000  4.9162000  2
   9578   9572   9558   9580     1  0.0000000  0.6024960  3
   9581   9582   9585   9586     1  180.0000771  0.8368000  1
   9581   9582   9585   9586     1  180.0000771  1.0460000  2
   9581   9582   9585   9586     1  0.0000000  0.7531200  3
   9581   9582   9585   9593     1  0.0000000  0.6508444  3
   9581   9603   9587   9591     1  180.0000771  5.6484000  1
   9581   9603   9587   9591     1  180.0000771  3.5564000  2
   9581   9603   9587   9591     1  0.0000000  0.4184000  3
   9581   9603   9587   9586     1  180.0000771  0.4184000  2
   9581   9603   9587   9586     1  0.0000000  1.6024720  3
   9582   9585   9586   9587     1  180.0000771  0.8368000  1
   9582   9585   9586   9587     1  180.0000771  1.0460000  2
   9582   9585   9586   9587     1  0.0000000  0.7531200  3
   9582   9585   9586   9592     1  0.0000000  0.6508444  3
   9582   9581   9595   9601     1  0.0000000  0.6508444  3
   9582   9581   9603   9587     1  180.0000771  0.4184000  2
   9582   9581   9603   9587     1  0.0000000  1.6024720  3
   9585   9586   9587   9591     1  0.0000000  0.6508444  3
   9585   9586   9587   9603     1  0.0000000  0.6508444  3
   9585   9582   9581   9595     1  180.0000771  0.8368000  1
   9585   9582   9581   9595     1  180.0000771  1.0460000  2
   9585   9582   9581   9595     1  0.0000000  0.7531200  3
   9585   9582   9581   9603     1  0.0000000  0.6508444  3
   9586   9585   9582   9594     1  0.0000000  0.6508444  3
   9587   9603   9581   9595     1  180.0000771  0.4184000  2
   9587   9603   9581   9595     1  0.0000000  1.6024720  3
   9587   9586   9585   9593     1  0.0000000  0.6508444  3
   9591   9587   9586   9592     1  0.0000000  4.9162000  2
   9591   9587   9586   9592     1  0.0000000  0.6024960  3
   9592   9586   9587   9603     1  0.0000000  4.9162000  2
   9592   9586   9587   9603     1  0.0000000  0.6024960  3
   9592   9586   9585   9593     1  0.0000000  4.9162000  2
   9592   9586   9585   9593     1  0.0000000  0.6024960  3
   9593   9585   9582   9594     1  0.0000000  4.9162000  2
   9593   9585   9582   9594     1  0.0000000  0.6024960  3
   9594   9582   9581   9595     1  0.0000000  0.6508444  3
   9594   9582   9581   9603     1  0.0000000  4.9162000  2
   9594   9582   9581   9603     1  0.0000000  0.6024960  3
   9601   9595   9581   9603     1  0.0000000  4.9162000  2
   9601   9595   9581   9603     1  0.0000000  0.6024960  3
   9604   9605   9608   9609     1  180.0000771  0.8368000  1
   9604   9605   9608   9609     1  180.0000771  1.0460000  2
   9604   9605   9608   9609     1  0.0000000  0.7531200  3
   9604   9605   9608   9616     1  0.0000000  0.6508444  3
   9604   9626   9610   9609     1  180.0000771  0.4184000  2
   9604   9626   9610   9609     1  0.0000000  1.6024720  3
   9604   9626   9610   9614     1  180.0000771  5.6484000  1
   9604   9626   9610   9614     1  180.0000771  3.5564000  2
   9604   9626   9610   9614     1  0.0000000  0.4184000  3
   9605   9604   9618   9624     1  0.0000000  0.6508444  3
   9605   9604   9626   9610     1  180.0000771  0.4184000  2
   9605   9604   9626   9610     1  0.0000000  1.6024720  3
   9605   9608   9609   9610     1  180.0000771  0.8368000  1
   9605   9608   9609   9610     1  180.0000771  1.0460000  2
   9605   9608   9609   9610     1  0.0000000  0.7531200  3
   9605   9608   9609   9615     1  0.0000000  0.6508444  3
   9608   9605   9604   9618     1  180.0000771  0.8368000  1
   9608   9605   9604   9618     1  180.0000771  1.0460000  2
   9608   9605   9604   9618     1  0.0000000  0.7531200  3
   9608   9605   9604   9626     1  0.0000000  0.6508444  3
   9608   9609   9610   9614     1  0.0000000  0.6508444  3
   9608   9609   9610   9626     1  0.0000000  0.6508444  3
   9609   9608   9605   9617     1  0.0000000  0.6508444  3
   9610   9609   9608   9616     1  0.0000000  0.6508444  3
   9610   9626   9604   9618     1  180.0000771  0.4184000  2
   9610   9626   9604   9618     1  0.0000000  1.6024720  3
   9614   9610   9609   9615     1  0.0000000  4.9162000  2
   9614   9610   9609   9615     1  0.0000000  0.6024960  3
   9615   9609   9608   9616     1  0.0000000  4.9162000  2
   9615   9609   9608   9616     1  0.0000000  0.6024960  3
   9615   9609   9610   9626     1  0.0000000  4.9162000  2
   9615   9609   9610   9626     1  0.0000000  0.6024960  3
   9616   9608   9605   9617     1  0.0000000  4.9162000  2
   9616   9608   9605   9617     1  0.0000000  0.6024960  3
   9617   9605   9604   9618     1  0.0000000  0.6508444  3
   9617   9605   9604   9626     1  0.0000000  4.9162000  2
   9617   9605   9604   9626     1  0.0000000  0.6024960  3
   9624   9618   9604   9626     1  0.0000000  4.9162000  2
   9624   9618   9604   9626     1  0.0000000  0.6024960  3
   9627   9628   9631   9632     1  180.0000771  0.8368000  1
   9627   9628   9631   9632     1  180.0000771  1.0460000  2
   9627   9628   9631   9632     1  0.0000000  0.7531200  3
   9627   9628   9631   9639     1  0.0000000  0.6508444  3
   9627   9649   9633   9637     1  180.0000771  5.6484000  1
   9627   9649   9633   9637     1  180.0000771  3.5564000  2
   9627   9649   9633   9637     1  0.0000000  0.4184000  3
   9627   9649   9633   9632     1  180.0000771  0.4184000  2
   9627   9649   9633   9632     1  0.0000000  1.6024720  3
   9628   9631   9632   9633     1  180.0000771  0.8368000  1
   9628   9631   9632   9633     1  180.0000771  1.0460000  2
   9628   9631   9632   9633     1  0.0000000  0.7531200  3
   9628   9631   9632   9638     1  0.0000000  0.6508444  3
   9628   9627   9641   9647     1  0.0000000  0.6508444  3
   9628   9627   9649   9633     1  180.0000771  0.4184000  2
   9628   9627   9649   9633     1  0.0000000  1.6024720  3
   9631   9632   9633   9637     1  0.0000000  0.6508444  3
   9631   9632   9633   9649     1  0.0000000  0.6508444  3
   9631   9628   9627   9641     1  180.0000771  0.8368000  1
   9631   9628   9627   9641     1  180.0000771  1.0460000  2
   9631   9628   9627   9641     1  0.0000000  0.7531200  3
   9631   9628   9627   9649     1  0.0000000  0.6508444  3
   9632   9631   9628   9640     1  0.0000000  0.6508444  3
   9633   9649   9627   9641     1  180.0000771  0.4184000  2
   9633   9649   9627   9641     1  0.0000000  1.6024720  3
   9633   9632   9631   9639     1  0.0000000  0.6508444  3
   9637   9633   9632   9638     1  0.0000000  4.9162000  2
   9637   9633   9632   9638     1  0.0000000  0.6024960  3
   9638   9632   9633   9649     1  0.0000000  4.9162000  2
   9638   9632   9633   9649     1  0.0000000  0.6024960  3
   9638   9632   9631   9639     1  0.0000000  4.9162000  2
   9638   9632   9631   9639     1  0.0000000  0.6024960  3
   9639   9631   9628   9640     1  0.0000000  4.9162000  2
   9639   9631   9628   9640     1  0.0000000  0.6024960  3
   9640   9628   9627   9641     1  0.0000000  0.6508444  3
   9640   9628   9627   9649     1  0.0000000  4.9162000  2
   9640   9628   9627   9649     1  0.0000000  0.6024960  3
   9647   9641   9627   9649     1  0.0000000  4.9162000  2
   9647   9641   9627   9649     1  0.0000000  0.6024960  3
   9650   9651   9654   9655     1  180.0000771  0.8368000  1
   9650   9651   9654   9655     1  180.0000771  1.0460000  2
   9650   9651   9654   9655     1  0.0000000  0.7531200  3
   9650   9651   9654   9662     1  0.0000000  0.6508444  3
   9650   9672   9656   9655     1  180.0000771  0.4184000  2
   9650   9672   9656   9655     1  0.0000000  1.6024720  3
   9650   9672   9656   9660     1  180.0000771  5.6484000  1
   9650   9672   9656   9660     1  180.0000771  3.5564000  2
   9650   9672   9656   9660     1  0.0000000  0.4184000  3
   9651   9650   9664   9670     1  0.0000000  0.6508444  3
   9651   9650   9672   9656     1  180.0000771  0.4184000  2
   9651   9650   9672   9656     1  0.0000000  1.6024720  3
   9651   9654   9655   9656     1  180.0000771  0.8368000  1
   9651   9654   9655   9656     1  180.0000771  1.0460000  2
   9651   9654   9655   9656     1  0.0000000  0.7531200  3
   9651   9654   9655   9661     1  0.0000000  0.6508444  3
   9654   9651   9650   9664     1  180.0000771  0.8368000  1
   9654   9651   9650   9664     1  180.0000771  1.0460000  2
   9654   9651   9650   9664     1  0.0000000  0.7531200  3
   9654   9651   9650   9672     1  0.0000000  0.6508444  3
   9654   9655   9656   9660     1  0.0000000  0.6508444  3
   9654   9655   9656   9672     1  0.0000000  0.6508444  3
   9655   9654   9651   9663     1  0.0000000  0.6508444  3
   9656   9655   9654   9662     1  0.0000000  0.6508444  3
   9656   9672   9650   9664     1  180.0000771  0.4184000  2
   9656   9672   9650   9664     1  0.0000000  1.6024720  3
   9660   9656   9655   9661     1  0.0000000  4.9162000  2
   9660   9656   9655   9661     1  0.0000000  0.6024960  3
   9661   9655   9654   9662     1  0.0000000  4.9162000  2
   9661   9655   9654   9662     1  0.0000000  0.6024960  3
   9661   9655   9656   9672     1  0.0000000  4.9162000  2
   9661   9655   9656   9672     1  0.0000000  0.6024960  3
   9662   9654   9651   9663     1  0.0000000  4.9162000  2
   9662   9654   9651   9663     1  0.0000000  0.6024960  3
   9663   9651   9650   9664     1  0.0000000  0.6508444  3
   9663   9651   9650   9672     1  0.0000000  4.9162000  2
   9663   9651   9650   9672     1  0.0000000  0.6024960  3
   9670   9664   9650   9672     1  0.0000000  4.9162000  2
   9670   9664   9650   9672     1  0.0000000  0.6024960  3
   9673   9674   9677   9678     1  180.0000771  0.8368000  1
   9673   9674   9677   9678     1  180.0000771  1.0460000  2
   9673   9674   9677   9678     1  0.0000000  0.7531200  3
   9673   9674   9677   9685     1  0.0000000  0.6508444  3
   9673   9695   9679   9683     1  180.0000771  5.6484000  1
   9673   9695   9679   9683     1  180.0000771  3.5564000  2
   9673   9695   9679   9683     1  0.0000000  0.4184000  3
   9673   9695   9679   9678     1  180.0000771  0.4184000  2
   9673   9695   9679   9678     1  0.0000000  1.6024720  3
   9674   9677   9678   9679     1  180.0000771  0.8368000  1
   9674   9677   9678   9679     1  180.0000771  1.0460000  2
   9674   9677   9678   9679     1  0.0000000  0.7531200  3
   9674   9677   9678   9684     1  0.0000000  0.6508444  3
   9674   9673   9687   9693     1  0.0000000  0.6508444  3
   9674   9673   9695   9679     1  180.0000771  0.4184000  2
   9674   9673   9695   9679     1  0.0000000  1.6024720  3
   9677   9678   9679   9683     1  0.0000000  0.6508444  3
   9677   9678   9679   9695     1  0.0000000  0.6508444  3
   9677   9674   9673   9687     1  180.0000771  0.8368000  1
   9677   9674   9673   9687     1  180.0000771  1.0460000  2
   9677   9674   9673   9687     1  0.0000000  0.7531200  3
   9677   9674   9673   9695     1  0.0000000  0.6508444  3
   9678   9677   9674   9686     1  0.0000000  0.6508444  3
   9679   9695   9673   9687     1  180.0000771  0.4184000  2
   9679   9695   9673   9687     1  0.0000000  1.6024720  3
   9679   9678   9677   9685     1  0.0000000  0.6508444  3
   9683   9679   9678   9684     1  0.0000000  4.9162000  2
   9683   9679   9678   9684     1  0.0000000  0.6024960  3
   9684   9678   9679   9695     1  0.0000000  4.9162000  2
   9684   9678   9679   9695     1  0.0000000  0.6024960  3
   9684   9678   9677   9685     1  0.0000000  4.9162000  2
   9684   9678   9677   9685     1  0.0000000  0.6024960  3
   9685   9677   9674   9686     1  0.0000000  4.9162000  2
   9685   9677   9674   9686     1  0.0000000  0.6024960  3
   9686   9674   9673   9687     1  0.0000000  0.6508444  3
   9686   9674   9673   9695     1  0.0000000  4.9162000  2
   9686   9674   9673   9695     1  0.0000000  0.6024960  3
   9693   9687   9673   9695     1  0.0000000  4.9162000  2
   9693   9687   9673   9695     1  0.0000000  0.6024960  3
   9696   9697   9700   9701     1  180.0000771  0.8368000  1
   9696   9697   9700   9701     1  180.0000771  1.0460000  2
   9696   9697   9700   9701     1  0.0000000  0.7531200  3
   9696   9697   9700   9708     1  0.0000000  0.6508444  3
   9696   9718   9702   9701     1  180.0000771  0.4184000  2
   9696   9718   9702   9701     1  0.0000000  1.6024720  3
   9696   9718   9702   9706     1  180.0000771  5.6484000  1
   9696   9718   9702   9706     1  180.0000771  3.5564000  2
   9696   9718   9702   9706     1  0.0000000  0.4184000  3
   9697   9696   9710   9716     1  0.0000000  0.6508444  3
   9697   9696   9718   9702     1  180.0000771  0.4184000  2
   9697   9696   9718   9702     1  0.0000000  1.6024720  3
   9697   9700   9701   9702     1  180.0000771  0.8368000  1
   9697   9700   9701   9702     1  180.0000771  1.0460000  2
   9697   9700   9701   9702     1  0.0000000  0.7531200  3
   9697   9700   9701   9707     1  0.0000000  0.6508444  3
   9700   9697   9696   9710     1  180.0000771  0.8368000  1
   9700   9697   9696   9710     1  180.0000771  1.0460000  2
   9700   9697   9696   9710     1  0.0000000  0.7531200  3
   9700   9697   9696   9718     1  0.0000000  0.6508444  3
   9700   9701   9702   9706     1  0.0000000  0.6508444  3
   9700   9701   9702   9718     1  0.0000000  0.6508444  3
   9701   9700   9697   9709     1  0.0000000  0.6508444  3
   9702   9701   9700   9708     1  0.0000000  0.6508444  3
   9702   9718   9696   9710     1  180.0000771  0.4184000  2
   9702   9718   9696   9710     1  0.0000000  1.6024720  3
   9706   9702   9701   9707     1  0.0000000  4.9162000  2
   9706   9702   9701   9707     1  0.0000000  0.6024960  3
   9707   9701   9700   9708     1  0.0000000  4.9162000  2
   9707   9701   9700   9708     1  0.0000000  0.6024960  3
   9707   9701   9702   9718     1  0.0000000  4.9162000  2
   9707   9701   9702   9718     1  0.0000000  0.6024960  3
   9708   9700   9697   9709     1  0.0000000  4.9162000  2
   9708   9700   9697   9709     1  0.0000000  0.6024960  3
   9709   9697   9696   9710     1  0.0000000  0.6508444  3
   9709   9697   9696   9718     1  0.0000000  4.9162000  2
   9709   9697   9696   9718     1  0.0000000  0.6024960  3
   9716   9710   9696   9718     1  0.0000000  4.9162000  2
   9716   9710   9696   9718     1  0.0000000  0.6024960  3
   9719   9720   9723   9724     1  180.0000771  0.8368000  1
   9719   9720   9723   9724     1  180.0000771  1.0460000  2
   9719   9720   9723   9724     1  0.0000000  0.7531200  3
   9719   9720   9723   9731     1  0.0000000  0.6508444  3
   9719   9741   9725   9729     1  180.0000771  5.6484000  1
   9719   9741   9725   9729     1  180.0000771  3.5564000  2
   9719   9741   9725   9729     1  0.0000000  0.4184000  3
   9719   9741   9725   9724     1  180.0000771  0.4184000  2
   9719   9741   9725   9724     1  0.0000000  1.6024720  3
   9720   9723   9724   9725     1  180.0000771  0.8368000  1
   9720   9723   9724   9725     1  180.0000771  1.0460000  2
   9720   9723   9724   9725     1  0.0000000  0.7531200  3
   9720   9723   9724   9730     1  0.0000000  0.6508444  3
   9720   9719   9733   9739     1  0.0000000  0.6508444  3
   9720   9719   9741   9725     1  180.0000771  0.4184000  2
   9720   9719   9741   9725     1  0.0000000  1.6024720  3
   9723   9724   9725   9729     1  0.0000000  0.6508444  3
   9723   9724   9725   9741     1  0.0000000  0.6508444  3
   9723   9720   9719   9733     1  180.0000771  0.8368000  1
   9723   9720   9719   9733     1  180.0000771  1.0460000  2
   9723   9720   9719   9733     1  0.0000000  0.7531200  3
   9723   9720   9719   9741     1  0.0000000  0.6508444  3
   9724   9723   9720   9732     1  0.0000000  0.6508444  3
   9725   9741   9719   9733     1  180.0000771  0.4184000  2
   9725   9741   9719   9733     1  0.0000000  1.6024720  3
   9725   9724   9723   9731     1  0.0000000  0.6508444  3
   9729   9725   9724   9730     1  0.0000000  4.9162000  2
   9729   9725   9724   9730     1  0.0000000  0.6024960  3
   9730   9724   9725   9741     1  0.0000000  4.9162000  2
   9730   9724   9725   9741     1  0.0000000  0.6024960  3
   9730   9724   9723   9731     1  0.0000000  4.9162000  2
   9730   9724   9723   9731     1  0.0000000  0.6024960  3
   9731   9723   9720   9732     1  0.0000000  4.9162000  2
   9731   9723   9720   9732     1  0.0000000  0.6024960  3
   9732   9720   9719   9733     1  0.0000000  0.6508444  3
   9732   9720   9719   9741     1  0.0000000  4.9162000  2
   9732   9720   9719   9741     1  0.0000000  0.6024960  3
   9739   9733   9719   9741     1  0.0000000  4.9162000  2
   9739   9733   9719   9741     1  0.0000000  0.6024960  3
   9742   9743   9746   9747     1  180.0000771  0.8368000  1
   9742   9743   9746   9747     1  180.0000771  1.0460000  2
   9742   9743   9746   9747     1  0.0000000  0.7531200  3
   9742   9743   9746   9754     1  0.0000000  0.6508444  3
   9742   9764   9748   9747     1  180.0000771  0.4184000  2
   9742   9764   9748   9747     1  0.0000000  1.6024720  3
   9742   9764   9748   9752     1  180.0000771  5.6484000  1
   9742   9764   9748   9752     1  180.0000771  3.5564000  2
   9742   9764   9748   9752     1  0.0000000  0.4184000  3
   9743   9742   9756   9762     1  0.0000000  0.6508444  3
   9743   9742   9764   9748     1  180.0000771  0.4184000  2
   9743   9742   9764   9748     1  0.0000000  1.6024720  3
   9743   9746   9747   9748     1  180.0000771  0.8368000  1
   9743   9746   9747   9748     1  180.0000771  1.0460000  2
   9743   9746   9747   9748     1  0.0000000  0.7531200  3
   9743   9746   9747   9753     1  0.0000000  0.6508444  3
   9746   9743   9742   9756     1  180.0000771  0.8368000  1
   9746   9743   9742   9756     1  180.0000771  1.0460000  2
   9746   9743   9742   9756     1  0.0000000  0.7531200  3
   9746   9743   9742   9764     1  0.0000000  0.6508444  3
   9746   9747   9748   9752     1  0.0000000  0.6508444  3
   9746   9747   9748   9764     1  0.0000000  0.6508444  3
   9747   9746   9743   9755     1  0.0000000  0.6508444  3
   9748   9747   9746   9754     1  0.0000000  0.6508444  3
   9748   9764   9742   9756     1  180.0000771  0.4184000  2
   9748   9764   9742   9756     1  0.0000000  1.6024720  3
   9752   9748   9747   9753     1  0.0000000  4.9162000  2
   9752   9748   9747   9753     1  0.0000000  0.6024960  3
   9753   9747   9746   9754     1  0.0000000  4.9162000  2
   9753   9747   9746   9754     1  0.0000000  0.6024960  3
   9753   9747   9748   9764     1  0.0000000  4.9162000  2
   9753   9747   9748   9764     1  0.0000000  0.6024960  3
   9754   9746   9743   9755     1  0.0000000  4.9162000  2
   9754   9746   9743   9755     1  0.0000000  0.6024960  3
   9755   9743   9742   9756     1  0.0000000  0.6508444  3
   9755   9743   9742   9764     1  0.0000000  4.9162000  2
   9755   9743   9742   9764     1  0.0000000  0.6024960  3
   9762   9756   9742   9764     1  0.0000000  4.9162000  2
   9762   9756   9742   9764     1  0.0000000  0.6024960  3
   9765   9766   9769   9770     1  180.0000771  0.8368000  1
   9765   9766   9769   9770     1  180.0000771  1.0460000  2
   9765   9766   9769   9770     1  0.0000000  0.7531200  3
   9765   9766   9769   9777     1  0.0000000  0.6508444  3
   9765   9787   9771   9775     1  180.0000771  5.6484000  1
   9765   9787   9771   9775     1  180.0000771  3.5564000  2
   9765   9787   9771   9775     1  0.0000000  0.4184000  3
   9765   9787   9771   9770     1  180.0000771  0.4184000  2
   9765   9787   9771   9770     1  0.0000000  1.6024720  3
   9766   9769   9770   9771     1  180.0000771  0.8368000  1
   9766   9769   9770   9771     1  180.0000771  1.0460000  2
   9766   9769   9770   9771     1  0.0000000  0.7531200  3
   9766   9769   9770   9776     1  0.0000000  0.6508444  3
   9766   9765   9779   9785     1  0.0000000  0.6508444  3
   9766   9765   9787   9771     1  180.0000771  0.4184000  2
   9766   9765   9787   9771     1  0.0000000  1.6024720  3
   9769   9770   9771   9775     1  0.0000000  0.6508444  3
   9769   9770   9771   9787     1  0.0000000  0.6508444  3
   9769   9766   9765   9779     1  180.0000771  0.8368000  1
   9769   9766   9765   9779     1  180.0000771  1.0460000  2
   9769   9766   9765   9779     1  0.0000000  0.7531200  3
   9769   9766   9765   9787     1  0.0000000  0.6508444  3
   9770   9769   9766   9778     1  0.0000000  0.6508444  3
   9771   9787   9765   9779     1  180.0000771  0.4184000  2
   9771   9787   9765   9779     1  0.0000000  1.6024720  3
   9771   9770   9769   9777     1  0.0000000  0.6508444  3
   9775   9771   9770   9776     1  0.0000000  4.9162000  2
   9775   9771   9770   9776     1  0.0000000  0.6024960  3
   9776   9770   9771   9787     1  0.0000000  4.9162000  2
   9776   9770   9771   9787     1  0.0000000  0.6024960  3
   9776   9770   9769   9777     1  0.0000000  4.9162000  2
   9776   9770   9769   9777     1  0.0000000  0.6024960  3
   9777   9769   9766   9778     1  0.0000000  4.9162000  2
   9777   9769   9766   9778     1  0.0000000  0.6024960  3
   9778   9766   9765   9779     1  0.0000000  0.6508444  3
   9778   9766   9765   9787     1  0.0000000  4.9162000  2
   9778   9766   9765   9787     1  0.0000000  0.6024960  3
   9785   9779   9765   9787     1  0.0000000  4.9162000  2
   9785   9779   9765   9787     1  0.0000000  0.6024960  3
   9788   9789   9792   9793     1  180.0000771  0.8368000  1
   9788   9789   9792   9793     1  180.0000771  1.0460000  2
   9788   9789   9792   9793     1  0.0000000  0.7531200  3
   9788   9789   9792   9800     1  0.0000000  0.6508444  3
   9788   9810   9794   9793     1  180.0000771  0.4184000  2
   9788   9810   9794   9793     1  0.0000000  1.6024720  3
   9788   9810   9794   9798     1  180.0000771  5.6484000  1
   9788   9810   9794   9798     1  180.0000771  3.5564000  2
   9788   9810   9794   9798     1  0.0000000  0.4184000  3
   9789   9788   9802   9808     1  0.0000000  0.6508444  3
   9789   9788   9810   9794     1  180.0000771  0.4184000  2
   9789   9788   9810   9794     1  0.0000000  1.6024720  3
   9789   9792   9793   9794     1  180.0000771  0.8368000  1
   9789   9792   9793   9794     1  180.0000771  1.0460000  2
   9789   9792   9793   9794     1  0.0000000  0.7531200  3
   9789   9792   9793   9799     1  0.0000000  0.6508444  3
   9792   9789   9788   9802     1  180.0000771  0.8368000  1
   9792   9789   9788   9802     1  180.0000771  1.0460000  2
   9792   9789   9788   9802     1  0.0000000  0.7531200  3
   9792   9789   9788   9810     1  0.0000000  0.6508444  3
   9792   9793   9794   9798     1  0.0000000  0.6508444  3
   9792   9793   9794   9810     1  0.0000000  0.6508444  3
   9793   9792   9789   9801     1  0.0000000  0.6508444  3
   9794   9793   9792   9800     1  0.0000000  0.6508444  3
   9794   9810   9788   9802     1  180.0000771  0.4184000  2
   9794   9810   9788   9802     1  0.0000000  1.6024720  3
   9798   9794   9793   9799     1  0.0000000  4.9162000  2
   9798   9794   9793   9799     1  0.0000000  0.6024960  3
   9799   9793   9792   9800     1  0.0000000  4.9162000  2
   9799   9793   9792   9800     1  0.0000000  0.6024960  3
   9799   9793   9794   9810     1  0.0000000  4.9162000  2
   9799   9793   9794   9810     1  0.0000000  0.6024960  3
   9800   9792   9789   9801     1  0.0000000  4.9162000  2
   9800   9792   9789   9801     1  0.0000000  0.6024960  3
   9801   9789   9788   9802     1  0.0000000  0.6508444  3
   9801   9789   9788   9810     1  0.0000000  4.9162000  2
   9801   9789   9788   9810     1  0.0000000  0.6024960  3
   9808   9802   9788   9810     1  0.0000000  4.9162000  2
   9808   9802   9788   9810     1  0.0000000  0.6024960  3
   9811   9812   9815   9816     1  180.0000771  0.8368000  1
   9811   9812   9815   9816     1  180.0000771  1.0460000  2
   9811   9812   9815   9816     1  0.0000000  0.7531200  3
   9811   9812   9815   9823     1  0.0000000  0.6508444  3
   9811   9833   9817   9821     1  180.0000771  5.6484000  1
   9811   9833   9817   9821     1  180.0000771  3.5564000  2
   9811   9833   9817   9821     1  0.0000000  0.4184000  3
   9811   9833   9817   9816     1  180.0000771  0.4184000  2
   9811   9833   9817   9816     1  0.0000000  1.6024720  3
   9812   9815   9816   9817     1  180.0000771  0.8368000  1
   9812   9815   9816   9817     1  180.0000771  1.0460000  2
   9812   9815   9816   9817     1  0.0000000  0.7531200  3
   9812   9815   9816   9822     1  0.0000000  0.6508444  3
   9812   9811   9825   9831     1  0.0000000  0.6508444  3
   9812   9811   9833   9817     1  180.0000771  0.4184000  2
   9812   9811   9833   9817     1  0.0000000  1.6024720  3
   9815   9816   9817   9821     1  0.0000000  0.6508444  3
   9815   9816   9817   9833     1  0.0000000  0.6508444  3
   9815   9812   9811   9825     1  180.0000771  0.8368000  1
   9815   9812   9811   9825     1  180.0000771  1.0460000  2
   9815   9812   9811   9825     1  0.0000000  0.7531200  3
   9815   9812   9811   9833     1  0.0000000  0.6508444  3
   9816   9815   9812   9824     1  0.0000000  0.6508444  3
   9817   9833   9811   9825     1  180.0000771  0.4184000  2
   9817   9833   9811   9825     1  0.0000000  1.6024720  3
   9817   9816   9815   9823     1  0.0000000  0.6508444  3
   9821   9817   9816   9822     1  0.0000000  4.9162000  2
   9821   9817   9816   9822     1  0.0000000  0.6024960  3
   9822   9816   9817   9833     1  0.0000000  4.9162000  2
   9822   9816   9817   9833     1  0.0000000  0.6024960  3
   9822   9816   9815   9823     1  0.0000000  4.9162000  2
   9822   9816   9815   9823     1  0.0000000  0.6024960  3
   9823   9815   9812   9824     1  0.0000000  4.9162000  2
   9823   9815   9812   9824     1  0.0000000  0.6024960  3
   9824   9812   9811   9825     1  0.0000000  0.6508444  3
   9824   9812   9811   9833     1  0.0000000  4.9162000  2
   9824   9812   9811   9833     1  0.0000000  0.6024960  3
   9831   9825   9811   9833     1  0.0000000  4.9162000  2
   9831   9825   9811   9833     1  0.0000000  0.6024960  3
   9834   9835   9838   9839     1  180.0000771  0.8368000  1
   9834   9835   9838   9839     1  180.0000771  1.0460000  2
   9834   9835   9838   9839     1  0.0000000  0.7531200  3
   9834   9835   9838   9846     1  0.0000000  0.6508444  3
   9834   9856   9840   9839     1  180.0000771  0.4184000  2
   9834   9856   9840   9839     1  0.0000000  1.6024720  3
   9834   9856   9840   9844     1  180.0000771  5.6484000  1
   9834   9856   9840   9844     1  180.0000771  3.5564000  2
   9834   9856   9840   9844     1  0.0000000  0.4184000  3
   9835   9834   9848   9854     1  0.0000000  0.6508444  3
   9835   9834   9856   9840     1  180.0000771  0.4184000  2
   9835   9834   9856   9840     1  0.0000000  1.6024720  3
   9835   9838   9839   9840     1  180.0000771  0.8368000  1
   9835   9838   9839   9840     1  180.0000771  1.0460000  2
   9835   9838   9839   9840     1  0.0000000  0.7531200  3
   9835   9838   9839   9845     1  0.0000000  0.6508444  3
   9838   9835   9834   9848     1  180.0000771  0.8368000  1
   9838   9835   9834   9848     1  180.0000771  1.0460000  2
   9838   9835   9834   9848     1  0.0000000  0.7531200  3
   9838   9835   9834   9856     1  0.0000000  0.6508444  3
   9838   9839   9840   9844     1  0.0000000  0.6508444  3
   9838   9839   9840   9856     1  0.0000000  0.6508444  3
   9839   9838   9835   9847     1  0.0000000  0.6508444  3
   9840   9839   9838   9846     1  0.0000000  0.6508444  3
   9840   9856   9834   9848     1  180.0000771  0.4184000  2
   9840   9856   9834   9848     1  0.0000000  1.6024720  3
   9844   9840   9839   9845     1  0.0000000  4.9162000  2
   9844   9840   9839   9845     1  0.0000000  0.6024960  3
   9845   9839   9838   9846     1  0.0000000  4.9162000  2
   9845   9839   9838   9846     1  0.0000000  0.6024960  3
   9845   9839   9840   9856     1  0.0000000  4.9162000  2
   9845   9839   9840   9856     1  0.0000000  0.6024960  3
   9846   9838   9835   9847     1  0.0000000  4.9162000  2
   9846   9838   9835   9847     1  0.0000000  0.6024960  3
   9847   9835   9834   9848     1  0.0000000  0.6508444  3
   9847   9835   9834   9856     1  0.0000000  4.9162000  2
   9847   9835   9834   9856     1  0.0000000  0.6024960  3
   9854   9848   9834   9856     1  0.0000000  4.9162000  2
   9854   9848   9834   9856     1  0.0000000  0.6024960  3
   9857   9858   9861   9862     1  180.0000771  0.8368000  1
   9857   9858   9861   9862     1  180.0000771  1.0460000  2
   9857   9858   9861   9862     1  0.0000000  0.7531200  3
   9857   9858   9861   9869     1  0.0000000  0.6508444  3
   9857   9879   9863   9867     1  180.0000771  5.6484000  1
   9857   9879   9863   9867     1  180.0000771  3.5564000  2
   9857   9879   9863   9867     1  0.0000000  0.4184000  3
   9857   9879   9863   9862     1  180.0000771  0.4184000  2
   9857   9879   9863   9862     1  0.0000000  1.6024720  3
   9858   9861   9862   9863     1  180.0000771  0.8368000  1
   9858   9861   9862   9863     1  180.0000771  1.0460000  2
   9858   9861   9862   9863     1  0.0000000  0.7531200  3
   9858   9861   9862   9868     1  0.0000000  0.6508444  3
   9858   9857   9871   9877     1  0.0000000  0.6508444  3
   9858   9857   9879   9863     1  180.0000771  0.4184000  2
   9858   9857   9879   9863     1  0.0000000  1.6024720  3
   9861   9862   9863   9867     1  0.0000000  0.6508444  3
   9861   9862   9863   9879     1  0.0000000  0.6508444  3
   9861   9858   9857   9871     1  180.0000771  0.8368000  1
   9861   9858   9857   9871     1  180.0000771  1.0460000  2
   9861   9858   9857   9871     1  0.0000000  0.7531200  3
   9861   9858   9857   9879     1  0.0000000  0.6508444  3
   9862   9861   9858   9870     1  0.0000000  0.6508444  3
   9863   9879   9857   9871     1  180.0000771  0.4184000  2
   9863   9879   9857   9871     1  0.0000000  1.6024720  3
   9863   9862   9861   9869     1  0.0000000  0.6508444  3
   9867   9863   9862   9868     1  0.0000000  4.9162000  2
   9867   9863   9862   9868     1  0.0000000  0.6024960  3
   9868   9862   9863   9879     1  0.0000000  4.9162000  2
   9868   9862   9863   9879     1  0.0000000  0.6024960  3
   9868   9862   9861   9869     1  0.0000000  4.9162000  2
   9868   9862   9861   9869     1  0.0000000  0.6024960  3
   9869   9861   9858   9870     1  0.0000000  4.9162000  2
   9869   9861   9858   9870     1  0.0000000  0.6024960  3
   9870   9858   9857   9871     1  0.0000000  0.6508444  3
   9870   9858   9857   9879     1  0.0000000  4.9162000  2
   9870   9858   9857   9879     1  0.0000000  0.6024960  3
   9877   9871   9857   9879     1  0.0000000  4.9162000  2
   9877   9871   9857   9879     1  0.0000000  0.6024960  3
   9880   9881   9884   9885     1  180.0000771  0.8368000  1
   9880   9881   9884   9885     1  180.0000771  1.0460000  2
   9880   9881   9884   9885     1  0.0000000  0.7531200  3
   9880   9881   9884   9892     1  0.0000000  0.6508444  3
   9880   9902   9886   9885     1  180.0000771  0.4184000  2
   9880   9902   9886   9885     1  0.0000000  1.6024720  3
   9880   9902   9886   9890     1  180.0000771  5.6484000  1
   9880   9902   9886   9890     1  180.0000771  3.5564000  2
   9880   9902   9886   9890     1  0.0000000  0.4184000  3
   9881   9880   9894   9900     1  0.0000000  0.6508444  3
   9881   9880   9902   9886     1  180.0000771  0.4184000  2
   9881   9880   9902   9886     1  0.0000000  1.6024720  3
   9881   9884   9885   9886     1  180.0000771  0.8368000  1
   9881   9884   9885   9886     1  180.0000771  1.0460000  2
   9881   9884   9885   9886     1  0.0000000  0.7531200  3
   9881   9884   9885   9891     1  0.0000000  0.6508444  3
   9884   9881   9880   9894     1  180.0000771  0.8368000  1
   9884   9881   9880   9894     1  180.0000771  1.0460000  2
   9884   9881   9880   9894     1  0.0000000  0.7531200  3
   9884   9881   9880   9902     1  0.0000000  0.6508444  3
   9884   9885   9886   9890     1  0.0000000  0.6508444  3
   9884   9885   9886   9902     1  0.0000000  0.6508444  3
   9885   9884   9881   9893     1  0.0000000  0.6508444  3
   9886   9885   9884   9892     1  0.0000000  0.6508444  3
   9886   9902   9880   9894     1  180.0000771  0.4184000  2
   9886   9902   9880   9894     1  0.0000000  1.6024720  3
   9890   9886   9885   9891     1  0.0000000  4.9162000  2
   9890   9886   9885   9891     1  0.0000000  0.6024960  3
   9891   9885   9884   9892     1  0.0000000  4.9162000  2
   9891   9885   9884   9892     1  0.0000000  0.6024960  3
   9891   9885   9886   9902     1  0.0000000  4.9162000  2
   9891   9885   9886   9902     1  0.0000000  0.6024960  3
   9892   9884   9881   9893     1  0.0000000  4.9162000  2
   9892   9884   9881   9893     1  0.0000000  0.6024960  3
   9893   9881   9880   9894     1  0.0000000  0.6508444  3
   9893   9881   9880   9902     1  0.0000000  4.9162000  2
   9893   9881   9880   9902     1  0.0000000  0.6024960  3
   9900   9894   9880   9902     1  0.0000000  4.9162000  2
   9900   9894   9880   9902     1  0.0000000  0.6024960  3
   9903   9904   9907   9908     1  180.0000771  0.8368000  1
   9903   9904   9907   9908     1  180.0000771  1.0460000  2
   9903   9904   9907   9908     1  0.0000000  0.7531200  3
   9903   9904   9907   9915     1  0.0000000  0.6508444  3
   9903   9925   9909   9913     1  180.0000771  5.6484000  1
   9903   9925   9909   9913     1  180.0000771  3.5564000  2
   9903   9925   9909   9913     1  0.0000000  0.4184000  3
   9903   9925   9909   9908     1  180.0000771  0.4184000  2
   9903   9925   9909   9908     1  0.0000000  1.6024720  3
   9904   9907   9908   9909     1  180.0000771  0.8368000  1
   9904   9907   9908   9909     1  180.0000771  1.0460000  2
   9904   9907   9908   9909     1  0.0000000  0.7531200  3
   9904   9907   9908   9914     1  0.0000000  0.6508444  3
   9904   9903   9917   9923     1  0.0000000  0.6508444  3
   9904   9903   9925   9909     1  180.0000771  0.4184000  2
   9904   9903   9925   9909     1  0.0000000  1.6024720  3
   9907   9908   9909   9913     1  0.0000000  0.6508444  3
   9907   9908   9909   9925     1  0.0000000  0.6508444  3
   9907   9904   9903   9917     1  180.0000771  0.8368000  1
   9907   9904   9903   9917     1  180.0000771  1.0460000  2
   9907   9904   9903   9917     1  0.0000000  0.7531200  3
   9907   9904   9903   9925     1  0.0000000  0.6508444  3
   9908   9907   9904   9916     1  0.0000000  0.6508444  3
   9909   9925   9903   9917     1  180.0000771  0.4184000  2
   9909   9925   9903   9917     1  0.0000000  1.6024720  3
   9909   9908   9907   9915     1  0.0000000  0.6508444  3
   9913   9909   9908   9914     1  0.0000000  4.9162000  2
   9913   9909   9908   9914     1  0.0000000  0.6024960  3
   9914   9908   9909   9925     1  0.0000000  4.9162000  2
   9914   9908   9909   9925     1  0.0000000  0.6024960  3
   9914   9908   9907   9915     1  0.0000000  4.9162000  2
   9914   9908   9907   9915     1  0.0000000  0.6024960  3
   9915   9907   9904   9916     1  0.0000000  4.9162000  2
   9915   9907   9904   9916     1  0.0000000  0.6024960  3
   9916   9904   9903   9917     1  0.0000000  0.6508444  3
   9916   9904   9903   9925     1  0.0000000  4.9162000  2
   9916   9904   9903   9925     1  0.0000000  0.6024960  3
   9923   9917   9903   9925     1  0.0000000  4.9162000  2
   9923   9917   9903   9925     1  0.0000000  0.6024960  3
      1      2     14     15     1  0.0000000  0.6508444  3
      1      2     14     16     1  0.0000000  0.6508444  3
      1      5     17     18     1  0.0000000  0.6508444  3
      1      5     17     19     1  0.0000000  0.6508444  3
      1      8     11     12     1  0.0000000  0.6508444  3
      1      8     11     13     1  0.0000000  0.6508444  3
      2      1      5      6     1  0.0000000  1.2552000  3
      2      1      5      7     1  0.0000000  1.2552000  3
      2      1      8      9     1  0.0000000  1.2552000  3
      2      1      8     10     1  0.0000000  1.2552000  3
      2     14     26     27     1  0.0000000  0.6508444  3
      2     14     26     28     1  0.0000000  0.6508444  3
      5      1      2      3     1  0.0000000  1.2552000  3
      8      1      2      3     1  0.0000000  1.2552000  3
      3      2     14     26     1  0.0000000  0.6508444  3
      3      2     14     15     1  0.0000000  0.6508444  3
      3      2     14     16     1  0.0000000  0.6508444  3
      5      1      2      4     1  0.0000000  1.2552000  3
      8      1      2      4     1  0.0000000  1.2552000  3
      4      2     14     26     1  0.0000000  0.6508444  3
      4      2     14     15     1  0.0000000  0.6508444  3
      4      2     14     16     1  0.0000000  0.6508444  3
      5      1      8      9     1  0.0000000  1.2552000  3
      5      1      8     10     1  0.0000000  1.2552000  3
      5     17     20     21     1  0.0000000  0.6508444  3
      5     17     20     22     1  0.0000000  0.6508444  3
      8      1      5      6     1  0.0000000  1.2552000  3
      6      5     17     20     1  0.0000000  0.6508444  3
      6      5     17     18     1  0.0000000  0.6508444  3
      6      5     17     19     1  0.0000000  0.6508444  3
      8      1      5      7     1  0.0000000  1.2552000  3
      7      5     17     20     1  0.0000000  0.6508444  3
      7      5     17     18     1  0.0000000  0.6508444  3
      7      5     17     19     1  0.0000000  0.6508444  3
      8     11     23     24     1  0.0000000  0.6508444  3
      8     11     23     25     1  0.0000000  0.6508444  3
      9      8     11     23     1  0.0000000  0.6508444  3
      9      8     11     12     1  0.0000000  0.6508444  3
      9      8     11     13     1  0.0000000  0.6508444  3
     10      8     11     23     1  0.0000000  0.6508444  3
     10      8     11     12     1  0.0000000  0.6508444  3
     10      8     11     13     1  0.0000000  0.6508444  3
     12     11     23     86     1  0.0000000  1.0460000  1
     12     11     23     86     1  0.0000000  0.0000000  3
     12     11     23     24     1  0.0000000  0.6508444  3
     12     11     23     25     1  0.0000000  0.6508444  3
     13     11     23     86     1  0.0000000  1.0460000  1
     13     11     23     86     1  0.0000000  0.0000000  3
     13     11     23     24     1  0.0000000  0.6508444  3
     13     11     23     25     1  0.0000000  0.6508444  3
     15     14     26    115     1  0.0000000  1.0460000  1
     15     14     26    115     1  0.0000000  0.0000000  3
     15     14     26     27     1  0.0000000  0.6508444  3
     15     14     26     28     1  0.0000000  0.6508444  3
     16     14     26    115     1  0.0000000  1.0460000  1
     16     14     26    115     1  0.0000000  0.0000000  3
     16     14     26     27     1  0.0000000  0.6508444  3
     16     14     26     28     1  0.0000000  0.6508444  3
     18     17     20     57     1  0.0000000  1.0460000  1
     18     17     20     57     1  0.0000000  0.0000000  3
     18     17     20     21     1  0.0000000  0.6508444  3
     18     17     20     22     1  0.0000000  0.6508444  3
     19     17     20     57     1  0.0000000  1.0460000  1
     19     17     20     57     1  0.0000000  0.0000000  3
     19     17     20     21     1  0.0000000  0.6508444  3
     19     17     20     22     1  0.0000000  0.6508444  3
     20     57     48     49     1  0.0000000  1.6038667  3
     20     57     48     50     1  0.0000000  1.6038667  3
     21     20     57     48     1  0.0000000  1.6038667  3
     22     20     57     48     1  0.0000000  1.6038667  3
     23     86     77     78     1  0.0000000  1.6038667  3
     23     86     77     79     1  0.0000000  1.6038667  3
     24     23     86     77     1  0.0000000  1.6038667  3
     25     23     86     77     1  0.0000000  1.6038667  3
     26    115    106    107     1  0.0000000  1.6038667  3
     26    115    106    108     1  0.0000000  1.6038667  3
     27     26    115    106     1  0.0000000  1.6038667  3
     28     26    115    106     1  0.0000000  1.6038667  3
     29     30     42     43     1  0.0000000  0.6508444  3
     29     30     42     44     1  0.0000000  0.6508444  3
     29     33     45     46     1  0.0000000  0.6508444  3
     29     33     45     47     1  0.0000000  0.6508444  3
     29     36     39     40     1  0.0000000  0.6508444  3
     29     36     39     41     1  0.0000000  0.6508444  3
     30     29     33     34     1  0.0000000  1.2552000  3
     30     29     33     35     1  0.0000000  1.2552000  3
     30     29     36     37     1  0.0000000  1.2552000  3
     30     29     36     38     1  0.0000000  1.2552000  3
     30     42     54     55     1  0.0000000  0.6508444  3
     30     42     54     56     1  0.0000000  0.6508444  3
     31     30     29     33     1  0.0000000  1.2552000  3
     31     30     29     36     1  0.0000000  1.2552000  3
     31     30     42     54     1  0.0000000  0.6508444  3
     31     30     42     43     1  0.0000000  0.6508444  3
     31     30     42     44     1  0.0000000  0.6508444  3
     32     30     29     33     1  0.0000000  1.2552000  3
     32     30     29     36     1  0.0000000  1.2552000  3
     32     30     42     54     1  0.0000000  0.6508444  3
     32     30     42     43     1  0.0000000  0.6508444  3
     32     30     42     44     1  0.0000000  0.6508444  3
     33     29     36     37     1  0.0000000  1.2552000  3
     33     29     36     38     1  0.0000000  1.2552000  3
     33     45     51     52     1  0.0000000  0.6508444  3
     33     45     51     53     1  0.0000000  0.6508444  3
     34     33     29     36     1  0.0000000  1.2552000  3
     34     33     45     51     1  0.0000000  0.6508444  3
     34     33     45     46     1  0.0000000  0.6508444  3
     34     33     45     47     1  0.0000000  0.6508444  3
     35     33     29     36     1  0.0000000  1.2552000  3
     35     33     45     51     1  0.0000000  0.6508444  3
     35     33     45     46     1  0.0000000  0.6508444  3
     35     33     45     47     1  0.0000000  0.6508444  3
     36     39     48     49     1  0.0000000  0.6508444  3
     36     39     48     50     1  0.0000000  0.6508444  3
     37     36     39     48     1  0.0000000  0.6508444  3
     37     36     39     40     1  0.0000000  0.6508444  3
     37     36     39     41     1  0.0000000  0.6508444  3
     38     36     39     48     1  0.0000000  0.6508444  3
     38     36     39     40     1  0.0000000  0.6508444  3
     38     36     39     41     1  0.0000000  0.6508444  3
     40     39     48     57     1  0.0000000  1.0460000  1
     40     39     48     57     1  0.0000000  0.0000000  3
     40     39     48     49     1  0.0000000  0.6508444  3
     40     39     48     50     1  0.0000000  0.6508444  3
     41     39     48     57     1  0.0000000  1.0460000  1
     41     39     48     57     1  0.0000000  0.0000000  3
     41     39     48     49     1  0.0000000  0.6508444  3
     41     39     48     50     1  0.0000000  0.6508444  3
     43     42     54    173     1  0.0000000  1.0460000  1
     43     42     54    173     1  0.0000000  0.0000000  3
     43     42     54     55     1  0.0000000  0.6508444  3
     43     42     54     56     1  0.0000000  0.6508444  3
     44     42     54    173     1  0.0000000  1.0460000  1
     44     42     54    173     1  0.0000000  0.0000000  3
     44     42     54     55     1  0.0000000  0.6508444  3
     44     42     54     56     1  0.0000000  0.6508444  3
     46     45     51    144     1  0.0000000  1.0460000  1
     46     45     51    144     1  0.0000000  0.0000000  3
     46     45     51     52     1  0.0000000  0.6508444  3
     46     45     51     53     1  0.0000000  0.6508444  3
     47     45     51    144     1  0.0000000  1.0460000  1
     47     45     51    144     1  0.0000000  0.0000000  3
     47     45     51     52     1  0.0000000  0.6508444  3
     47     45     51     53     1  0.0000000  0.6508444  3
     51    144    135    136     1  0.0000000  1.6038667  3
     51    144    135    137     1  0.0000000  1.6038667  3
     52     51    144    135     1  0.0000000  1.6038667  3
     53     51    144    135     1  0.0000000  1.6038667  3
     54    173    164    165     1  0.0000000  1.6038667  3
     54    173    164    166     1  0.0000000  1.6038667  3
     55     54    173    164     1  0.0000000  1.6038667  3
     56     54    173    164     1  0.0000000  1.6038667  3
     58     59     71     72     1  0.0000000  0.6508444  3
     58     59     71     73     1  0.0000000  0.6508444  3
     58     62     74     75     1  0.0000000  0.6508444  3
     58     62     74     76     1  0.0000000  0.6508444  3
     58     65     68     69     1  0.0000000  0.6508444  3
     58     65     68     70     1  0.0000000  0.6508444  3
     59     58     62     63     1  0.0000000  1.2552000  3
     59     58     62     64     1  0.0000000  1.2552000  3
     59     58     65     66     1  0.0000000  1.2552000  3
     59     58     65     67     1  0.0000000  1.2552000  3
     59     71     83     84     1  0.0000000  0.6508444  3
     59     71     83     85     1  0.0000000  0.6508444  3
     60     59     58     62     1  0.0000000  1.2552000  3
     60     59     58     65     1  0.0000000  1.2552000  3
     60     59     71     83     1  0.0000000  0.6508444  3
     60     59     71     72     1  0.0000000  0.6508444  3
     60     59     71     73     1  0.0000000  0.6508444  3
     61     59     58     62     1  0.0000000  1.2552000  3
     61     59     58     65     1  0.0000000  1.2552000  3
     61     59     71     83     1  0.0000000  0.6508444  3
     61     59     71     72     1  0.0000000  0.6508444  3
     61     59     71     73     1  0.0000000  0.6508444  3
     62     58     65     66     1  0.0000000  1.2552000  3
     62     58     65     67     1  0.0000000  1.2552000  3
     62     74     80     81     1  0.0000000  0.6508444  3
     62     74     80     82     1  0.0000000  0.6508444  3
     63     62     58     65     1  0.0000000  1.2552000  3
     63     62     74     80     1  0.0000000  0.6508444  3
     63     62     74     75     1  0.0000000  0.6508444  3
     63     62     74     76     1  0.0000000  0.6508444  3
     64     62     58     65     1  0.0000000  1.2552000  3
     64     62     74     80     1  0.0000000  0.6508444  3
     64     62     74     75     1  0.0000000  0.6508444  3
     64     62     74     76     1  0.0000000  0.6508444  3
     65     68     77     78     1  0.0000000  0.6508444  3
     65     68     77     79     1  0.0000000  0.6508444  3
     66     65     68     77     1  0.0000000  0.6508444  3
     66     65     68     69     1  0.0000000  0.6508444  3
     66     65     68     70     1  0.0000000  0.6508444  3
     67     65     68     77     1  0.0000000  0.6508444  3
     67     65     68     69     1  0.0000000  0.6508444  3
     67     65     68     70     1  0.0000000  0.6508444  3
     69     68     77     86     1  0.0000000  1.0460000  1
     69     68     77     86     1  0.0000000  0.0000000  3
     69     68     77     78     1  0.0000000  0.6508444  3
     69     68     77     79     1  0.0000000  0.6508444  3
     70     68     77     86     1  0.0000000  1.0460000  1
     70     68     77     86     1  0.0000000  0.0000000  3
     70     68     77     78     1  0.0000000  0.6508444  3
     70     68     77     79     1  0.0000000  0.6508444  3
     72     71     83    231     1  0.0000000  1.0460000  1
     72     71     83    231     1  0.0000000  0.0000000  3
     72     71     83     84     1  0.0000000  0.6508444  3
     72     71     83     85     1  0.0000000  0.6508444  3
     73     71     83    231     1  0.0000000  1.0460000  1
     73     71     83    231     1  0.0000000  0.0000000  3
     73     71     83     84     1  0.0000000  0.6508444  3
     73     71     83     85     1  0.0000000  0.6508444  3
     75     74     80    202     1  0.0000000  1.0460000  1
     75     74     80    202     1  0.0000000  0.0000000  3
     75     74     80     81     1  0.0000000  0.6508444  3
     75     74     80     82     1  0.0000000  0.6508444  3
     76     74     80    202     1  0.0000000  1.0460000  1
     76     74     80    202     1  0.0000000  0.0000000  3
     76     74     80     81     1  0.0000000  0.6508444  3
     76     74     80     82     1  0.0000000  0.6508444  3
     80    202    193    194     1  0.0000000  1.6038667  3
     80    202    193    195     1  0.0000000  1.6038667  3
     81     80    202    193     1  0.0000000  1.6038667  3
     82     80    202    193     1  0.0000000  1.6038667  3
     83    231    222    223     1  0.0000000  1.6038667  3
     83    231    222    224     1  0.0000000  1.6038667  3
     84     83    231    222     1  0.0000000  1.6038667  3
     85     83    231    222     1  0.0000000  1.6038667  3
     87     88    100    101     1  0.0000000  0.6508444  3
     87     88    100    102     1  0.0000000  0.6508444  3
     87     91    103    104     1  0.0000000  0.6508444  3
     87     91    103    105     1  0.0000000  0.6508444  3
     87     94     97     98     1  0.0000000  0.6508444  3
     87     94     97     99     1  0.0000000  0.6508444  3
     88     87     91     92     1  0.0000000  1.2552000  3
     88     87     91     93     1  0.0000000  1.2552000  3
     88     87     94     95     1  0.0000000  1.2552000  3
     88     87     94     96     1  0.0000000  1.2552000  3
     88    100    112    113     1  0.0000000  0.6508444  3
     88    100    112    114     1  0.0000000  0.6508444  3
     89     88     87     91     1  0.0000000  1.2552000  3
     89     88     87     94     1  0.0000000  1.2552000  3
     89     88    100    112     1  0.0000000  0.6508444  3
     89     88    100    101     1  0.0000000  0.6508444  3
     89     88    100    102     1  0.0000000  0.6508444  3
     90     88     87     91     1  0.0000000  1.2552000  3
     90     88     87     94     1  0.0000000  1.2552000  3
     90     88    100    112     1  0.0000000  0.6508444  3
     90     88    100    101     1  0.0000000  0.6508444  3
     90     88    100    102     1  0.0000000  0.6508444  3
     91     87     94     95     1  0.0000000  1.2552000  3
     91     87     94     96     1  0.0000000  1.2552000  3
     91    103    109    110     1  0.0000000  0.6508444  3
     91    103    109    111     1  0.0000000  0.6508444  3
     92     91     87     94     1  0.0000000  1.2552000  3
     92     91    103    109     1  0.0000000  0.6508444  3
     92     91    103    104     1  0.0000000  0.6508444  3
     92     91    103    105     1  0.0000000  0.6508444  3
     93     91     87     94     1  0.0000000  1.2552000  3
     93     91    103    109     1  0.0000000  0.6508444  3
     93     91    103    104     1  0.0000000  0.6508444  3
     93     91    103    105     1  0.0000000  0.6508444  3
     94     97    106    107     1  0.0000000  0.6508444  3
     94     97    106    108     1  0.0000000  0.6508444  3
     95     94     97    106     1  0.0000000  0.6508444  3
     95     94     97     98     1  0.0000000  0.6508444  3
     95     94     97     99     1  0.0000000  0.6508444  3
     96     94     97    106     1  0.0000000  0.6508444  3
     96     94     97     98     1  0.0000000  0.6508444  3
     96     94     97     99     1  0.0000000  0.6508444  3
     98     97    106    115     1  0.0000000  1.0460000  1
     98     97    106    115     1  0.0000000  0.0000000  3
     98     97    106    107     1  0.0000000  0.6508444  3
     98     97    106    108     1  0.0000000  0.6508444  3
     99     97    106    115     1  0.0000000  1.0460000  1
     99     97    106    115     1  0.0000000  0.0000000  3
     99     97    106    107     1  0.0000000  0.6508444  3
     99     97    106    108     1  0.0000000  0.6508444  3
    101    100    112    289     1  0.0000000  1.0460000  1
    101    100    112    289     1  0.0000000  0.0000000  3
    101    100    112    113     1  0.0000000  0.6508444  3
    101    100    112    114     1  0.0000000  0.6508444  3
    102    100    112    289     1  0.0000000  1.0460000  1
    102    100    112    289     1  0.0000000  0.0000000  3
    102    100    112    113     1  0.0000000  0.6508444  3
    102    100    112    114     1  0.0000000  0.6508444  3
    104    103    109    260     1  0.0000000  1.0460000  1
    104    103    109    260     1  0.0000000  0.0000000  3
    104    103    109    110     1  0.0000000  0.6508444  3
    104    103    109    111     1  0.0000000  0.6508444  3
    105    103    109    260     1  0.0000000  1.0460000  1
    105    103    109    260     1  0.0000000  0.0000000  3
    105    103    109    110     1  0.0000000  0.6508444  3
    105    103    109    111     1  0.0000000  0.6508444  3
    109    260    251    252     1  0.0000000  1.6038667  3
    109    260    251    253     1  0.0000000  1.6038667  3
    110    109    260    251     1  0.0000000  1.6038667  3
    111    109    260    251     1  0.0000000  1.6038667  3
    112    289    280    281     1  0.0000000  1.6038667  3
    112    289    280    282     1  0.0000000  1.6038667  3
    113    112    289    280     1  0.0000000  1.6038667  3
    114    112    289    280     1  0.0000000  1.6038667  3
    116    117    129    130     1  0.0000000  0.6508444  3
    116    117    129    131     1  0.0000000  0.6508444  3
    116    120    132    133     1  0.0000000  0.6508444  3
    116    120    132    134     1  0.0000000  0.6508444  3
    116    123    126    127     1  0.0000000  0.6508444  3
    116    123    126    128     1  0.0000000  0.6508444  3
    117    116    120    121     1  0.0000000  1.2552000  3
    117    116    120    122     1  0.0000000  1.2552000  3
    117    116    123    124     1  0.0000000  1.2552000  3
    117    116    123    125     1  0.0000000  1.2552000  3
    117    129    141    142     1  0.0000000  0.6508444  3
    117    129    141    143     1  0.0000000  0.6508444  3
    118    117    116    120     1  0.0000000  1.2552000  3
    118    117    116    123     1  0.0000000  1.2552000  3
    118    117    129    141     1  0.0000000  0.6508444  3
    118    117    129    130     1  0.0000000  0.6508444  3
    118    117    129    131     1  0.0000000  0.6508444  3
    119    117    116    120     1  0.0000000  1.2552000  3
    119    117    116    123     1  0.0000000  1.2552000  3
    119    117    129    141     1  0.0000000  0.6508444  3
    119    117    129    130     1  0.0000000  0.6508444  3
    119    117    129    131     1  0.0000000  0.6508444  3
    120    116    123    124     1  0.0000000  1.2552000  3
    120    116    123    125     1  0.0000000  1.2552000  3
    120    132    138    139     1  0.0000000  0.6508444  3
    120    132    138    140     1  0.0000000  0.6508444  3
    121    120    116    123     1  0.0000000  1.2552000  3
    121    120    132    138     1  0.0000000  0.6508444  3
    121    120    132    133     1  0.0000000  0.6508444  3
    121    120    132    134     1  0.0000000  0.6508444  3
    122    120    116    123     1  0.0000000  1.2552000  3
    122    120    132    138     1  0.0000000  0.6508444  3
    122    120    132    133     1  0.0000000  0.6508444  3
    122    120    132    134     1  0.0000000  0.6508444  3
    123    126    135    136     1  0.0000000  0.6508444  3
    123    126    135    137     1  0.0000000  0.6508444  3
    124    123    126    135     1  0.0000000  0.6508444  3
    124    123    126    127     1  0.0000000  0.6508444  3
    124    123    126    128     1  0.0000000  0.6508444  3
    125    123    126    135     1  0.0000000  0.6508444  3
    125    123    126    127     1  0.0000000  0.6508444  3
    125    123    126    128     1  0.0000000  0.6508444  3
    127    126    135    144     1  0.0000000  1.0460000  1
    127    126    135    144     1  0.0000000  0.0000000  3
    127    126    135    136     1  0.0000000  0.6508444  3
    127    126    135    137     1  0.0000000  0.6508444  3
    128    126    135    144     1  0.0000000  1.0460000  1
    128    126    135    144     1  0.0000000  0.0000000  3
    128    126    135    136     1  0.0000000  0.6508444  3
    128    126    135    137     1  0.0000000  0.6508444  3
    130    129    141    347     1  0.0000000  1.0460000  1
    130    129    141    347     1  0.0000000  0.0000000  3
    130    129    141    142     1  0.0000000  0.6508444  3
    130    129    141    143     1  0.0000000  0.6508444  3
    131    129    141    347     1  0.0000000  1.0460000  1
    131    129    141    347     1  0.0000000  0.0000000  3
    131    129    141    142     1  0.0000000  0.6508444  3
    131    129    141    143     1  0.0000000  0.6508444  3
    133    132    138    318     1  0.0000000  1.0460000  1
    133    132    138    318     1  0.0000000  0.0000000  3
    133    132    138    139     1  0.0000000  0.6508444  3
    133    132    138    140     1  0.0000000  0.6508444  3
    134    132    138    318     1  0.0000000  1.0460000  1
    134    132    138    318     1  0.0000000  0.0000000  3
    134    132    138    139     1  0.0000000  0.6508444  3
    134    132    138    140     1  0.0000000  0.6508444  3
    138    318    309    310     1  0.0000000  1.6038667  3
    138    318    309    311     1  0.0000000  1.6038667  3
    139    138    318    309     1  0.0000000  1.6038667  3
    140    138    318    309     1  0.0000000  1.6038667  3
    141    347    338    339     1  0.0000000  1.6038667  3
    141    347    338    340     1  0.0000000  1.6038667  3
    142    141    347    338     1  0.0000000  1.6038667  3
    143    141    347    338     1  0.0000000  1.6038667  3
    145    146    158    159     1  0.0000000  0.6508444  3
    145    146    158    160     1  0.0000000  0.6508444  3
    145    149    161    162     1  0.0000000  0.6508444  3
    145    149    161    163     1  0.0000000  0.6508444  3
    145    152    155    156     1  0.0000000  0.6508444  3
    145    152    155    157     1  0.0000000  0.6508444  3
    146    145    149    150     1  0.0000000  1.2552000  3
    146    145    149    151     1  0.0000000  1.2552000  3
    146    145    152    153     1  0.0000000  1.2552000  3
    146    145    152    154     1  0.0000000  1.2552000  3
    146    158    170    171     1  0.0000000  0.6508444  3
    146    158    170    172     1  0.0000000  0.6508444  3
    147    146    145    149     1  0.0000000  1.2552000  3
    147    146    145    152     1  0.0000000  1.2552000  3
    147    146    158    170     1  0.0000000  0.6508444  3
    147    146    158    159     1  0.0000000  0.6508444  3
    147    146    158    160     1  0.0000000  0.6508444  3
    148    146    145    149     1  0.0000000  1.2552000  3
    148    146    145    152     1  0.0000000  1.2552000  3
    148    146    158    170     1  0.0000000  0.6508444  3
    148    146    158    159     1  0.0000000  0.6508444  3
    148    146    158    160     1  0.0000000  0.6508444  3
    149    145    152    153     1  0.0000000  1.2552000  3
    149    145    152    154     1  0.0000000  1.2552000  3
    149    161    167    168     1  0.0000000  0.6508444  3
    149    161    167    169     1  0.0000000  0.6508444  3
    150    149    145    152     1  0.0000000  1.2552000  3
    150    149    161    167     1  0.0000000  0.6508444  3
    150    149    161    162     1  0.0000000  0.6508444  3
    150    149    161    163     1  0.0000000  0.6508444  3
    151    149    145    152     1  0.0000000  1.2552000  3
    151    149    161    167     1  0.0000000  0.6508444  3
    151    149    161    162     1  0.0000000  0.6508444  3
    151    149    161    163     1  0.0000000  0.6508444  3
    152    155    164    165     1  0.0000000  0.6508444  3
    152    155    164    166     1  0.0000000  0.6508444  3
    153    152    155    164     1  0.0000000  0.6508444  3
    153    152    155    156     1  0.0000000  0.6508444  3
    153    152    155    157     1  0.0000000  0.6508444  3
    154    152    155    164     1  0.0000000  0.6508444  3
    154    152    155    156     1  0.0000000  0.6508444  3
    154    152    155    157     1  0.0000000  0.6508444  3
    156    155    164    173     1  0.0000000  1.0460000  1
    156    155    164    173     1  0.0000000  0.0000000  3
    156    155    164    165     1  0.0000000  0.6508444  3
    156    155    164    166     1  0.0000000  0.6508444  3
    157    155    164    173     1  0.0000000  1.0460000  1
    157    155    164    173     1  0.0000000  0.0000000  3
    157    155    164    165     1  0.0000000  0.6508444  3
    157    155    164    166     1  0.0000000  0.6508444  3
    159    158    170    405     1  0.0000000  1.0460000  1
    159    158    170    405     1  0.0000000  0.0000000  3
    159    158    170    171     1  0.0000000  0.6508444  3
    159    158    170    172     1  0.0000000  0.6508444  3
    160    158    170    405     1  0.0000000  1.0460000  1
    160    158    170    405     1  0.0000000  0.0000000  3
    160    158    170    171     1  0.0000000  0.6508444  3
    160    158    170    172     1  0.0000000  0.6508444  3
    162    161    167    376     1  0.0000000  1.0460000  1
    162    161    167    376     1  0.0000000  0.0000000  3
    162    161    167    168     1  0.0000000  0.6508444  3
    162    161    167    169     1  0.0000000  0.6508444  3
    163    161    167    376     1  0.0000000  1.0460000  1
    163    161    167    376     1  0.0000000  0.0000000  3
    163    161    167    168     1  0.0000000  0.6508444  3
    163    161    167    169     1  0.0000000  0.6508444  3
    167    376    367    368     1  0.0000000  1.6038667  3
    167    376    367    369     1  0.0000000  1.6038667  3
    168    167    376    367     1  0.0000000  1.6038667  3
    169    167    376    367     1  0.0000000  1.6038667  3
    170    405    396    397     1  0.0000000  1.6038667  3
    170    405    396    398     1  0.0000000  1.6038667  3
    171    170    405    396     1  0.0000000  1.6038667  3
    172    170    405    396     1  0.0000000  1.6038667  3
    174    175    187    188     1  0.0000000  0.6508444  3
    174    175    187    189     1  0.0000000  0.6508444  3
    174    178    190    191     1  0.0000000  0.6508444  3
    174    178    190    192     1  0.0000000  0.6508444  3
    174    181    184    185     1  0.0000000  0.6508444  3
    174    181    184    186     1  0.0000000  0.6508444  3
    175    174    178    179     1  0.0000000  1.2552000  3
    175    174    178    180     1  0.0000000  1.2552000  3
    175    174    181    182     1  0.0000000  1.2552000  3
    175    174    181    183     1  0.0000000  1.2552000  3
    175    187    199    200     1  0.0000000  0.6508444  3
    175    187    199    201     1  0.0000000  0.6508444  3
    176    175    174    178     1  0.0000000  1.2552000  3
    176    175    174    181     1  0.0000000  1.2552000  3
    176    175    187    199     1  0.0000000  0.6508444  3
    176    175    187    188     1  0.0000000  0.6508444  3
    176    175    187    189     1  0.0000000  0.6508444  3
    177    175    174    178     1  0.0000000  1.2552000  3
    177    175    174    181     1  0.0000000  1.2552000  3
    177    175    187    199     1  0.0000000  0.6508444  3
    177    175    187    188     1  0.0000000  0.6508444  3
    177    175    187    189     1  0.0000000  0.6508444  3
    178    174    181    182     1  0.0000000  1.2552000  3
    178    174    181    183     1  0.0000000  1.2552000  3
    178    190    196    197     1  0.0000000  0.6508444  3
    178    190    196    198     1  0.0000000  0.6508444  3
    179    178    174    181     1  0.0000000  1.2552000  3
    179    178    190    196     1  0.0000000  0.6508444  3
    179    178    190    191     1  0.0000000  0.6508444  3
    179    178    190    192     1  0.0000000  0.6508444  3
    180    178    174    181     1  0.0000000  1.2552000  3
    180    178    190    196     1  0.0000000  0.6508444  3
    180    178    190    191     1  0.0000000  0.6508444  3
    180    178    190    192     1  0.0000000  0.6508444  3
    181    184    193    194     1  0.0000000  0.6508444  3
    181    184    193    195     1  0.0000000  0.6508444  3
    182    181    184    193     1  0.0000000  0.6508444  3
    182    181    184    185     1  0.0000000  0.6508444  3
    182    181    184    186     1  0.0000000  0.6508444  3
    183    181    184    193     1  0.0000000  0.6508444  3
    183    181    184    185     1  0.0000000  0.6508444  3
    183    181    184    186     1  0.0000000  0.6508444  3
    185    184    193    202     1  0.0000000  1.0460000  1
    185    184    193    202     1  0.0000000  0.0000000  3
    185    184    193    194     1  0.0000000  0.6508444  3
    185    184    193    195     1  0.0000000  0.6508444  3
    186    184    193    202     1  0.0000000  1.0460000  1
    186    184    193    202     1  0.0000000  0.0000000  3
    186    184    193    194     1  0.0000000  0.6508444  3
    186    184    193    195     1  0.0000000  0.6508444  3
    188    187    199    463     1  0.0000000  1.0460000  1
    188    187    199    463     1  0.0000000  0.0000000  3
    188    187    199    200     1  0.0000000  0.6508444  3
    188    187    199    201     1  0.0000000  0.6508444  3
    189    187    199    463     1  0.0000000  1.0460000  1
    189    187    199    463     1  0.0000000  0.0000000  3
    189    187    199    200     1  0.0000000  0.6508444  3
    189    187    199    201     1  0.0000000  0.6508444  3
    191    190    196    434     1  0.0000000  1.0460000  1
    191    190    196    434     1  0.0000000  0.0000000  3
    191    190    196    197     1  0.0000000  0.6508444  3
    191    190    196    198     1  0.0000000  0.6508444  3
    192    190    196    434     1  0.0000000  1.0460000  1
    192    190    196    434     1  0.0000000  0.0000000  3
    192    190    196    197     1  0.0000000  0.6508444  3
    192    190    196    198     1  0.0000000  0.6508444  3
    196    434    425    426     1  0.0000000  1.6038667  3
    196    434    425    427     1  0.0000000  1.6038667  3
    197    196    434    425     1  0.0000000  1.6038667  3
    198    196    434    425     1  0.0000000  1.6038667  3
    199    463    454    455     1  0.0000000  1.6038667  3
    199    463    454    456     1  0.0000000  1.6038667  3
    200    199    463    454     1  0.0000000  1.6038667  3
    201    199    463    454     1  0.0000000  1.6038667  3
    203    204    216    217     1  0.0000000  0.6508444  3
    203    204    216    218     1  0.0000000  0.6508444  3
    203    207    219    220     1  0.0000000  0.6508444  3
    203    207    219    221     1  0.0000000  0.6508444  3
    203    210    213    214     1  0.0000000  0.6508444  3
    203    210    213    215     1  0.0000000  0.6508444  3
    204    203    207    208     1  0.0000000  1.2552000  3
    204    203    207    209     1  0.0000000  1.2552000  3
    204    203    210    211     1  0.0000000  1.2552000  3
    204    203    210    212     1  0.0000000  1.2552000  3
    204    216    228    229     1  0.0000000  0.6508444  3
    204    216    228    230     1  0.0000000  0.6508444  3
    205    204    203    207     1  0.0000000  1.2552000  3
    205    204    203    210     1  0.0000000  1.2552000  3
    205    204    216    228     1  0.0000000  0.6508444  3
    205    204    216    217     1  0.0000000  0.6508444  3
    205    204    216    218     1  0.0000000  0.6508444  3
    206    204    203    207     1  0.0000000  1.2552000  3
    206    204    203    210     1  0.0000000  1.2552000  3
    206    204    216    228     1  0.0000000  0.6508444  3
    206    204    216    217     1  0.0000000  0.6508444  3
    206    204    216    218     1  0.0000000  0.6508444  3
    207    203    210    211     1  0.0000000  1.2552000  3
    207    203    210    212     1  0.0000000  1.2552000  3
    207    219    225    226     1  0.0000000  0.6508444  3
    207    219    225    227     1  0.0000000  0.6508444  3
    208    207    203    210     1  0.0000000  1.2552000  3
    208    207    219    225     1  0.0000000  0.6508444  3
    208    207    219    220     1  0.0000000  0.6508444  3
    208    207    219    221     1  0.0000000  0.6508444  3
    209    207    203    210     1  0.0000000  1.2552000  3
    209    207    219    225     1  0.0000000  0.6508444  3
    209    207    219    220     1  0.0000000  0.6508444  3
    209    207    219    221     1  0.0000000  0.6508444  3
    210    213    222    223     1  0.0000000  0.6508444  3
    210    213    222    224     1  0.0000000  0.6508444  3
    211    210    213    222     1  0.0000000  0.6508444  3
    211    210    213    214     1  0.0000000  0.6508444  3
    211    210    213    215     1  0.0000000  0.6508444  3
    212    210    213    222     1  0.0000000  0.6508444  3
    212    210    213    214     1  0.0000000  0.6508444  3
    212    210    213    215     1  0.0000000  0.6508444  3
    214    213    222    231     1  0.0000000  1.0460000  1
    214    213    222    231     1  0.0000000  0.0000000  3
    214    213    222    223     1  0.0000000  0.6508444  3
    214    213    222    224     1  0.0000000  0.6508444  3
    215    213    222    231     1  0.0000000  1.0460000  1
    215    213    222    231     1  0.0000000  0.0000000  3
    215    213    222    223     1  0.0000000  0.6508444  3
    215    213    222    224     1  0.0000000  0.6508444  3
    217    216    228    521     1  0.0000000  1.0460000  1
    217    216    228    521     1  0.0000000  0.0000000  3
    217    216    228    229     1  0.0000000  0.6508444  3
    217    216    228    230     1  0.0000000  0.6508444  3
    218    216    228    521     1  0.0000000  1.0460000  1
    218    216    228    521     1  0.0000000  0.0000000  3
    218    216    228    229     1  0.0000000  0.6508444  3
    218    216    228    230     1  0.0000000  0.6508444  3
    220    219    225    492     1  0.0000000  1.0460000  1
    220    219    225    492     1  0.0000000  0.0000000  3
    220    219    225    226     1  0.0000000  0.6508444  3
    220    219    225    227     1  0.0000000  0.6508444  3
    221    219    225    492     1  0.0000000  1.0460000  1
    221    219    225    492     1  0.0000000  0.0000000  3
    221    219    225    226     1  0.0000000  0.6508444  3
    221    219    225    227     1  0.0000000  0.6508444  3
    225    492    483    484     1  0.0000000  1.6038667  3
    225    492    483    485     1  0.0000000  1.6038667  3
    226    225    492    483     1  0.0000000  1.6038667  3
    227    225    492    483     1  0.0000000  1.6038667  3
    228    521    512    513     1  0.0000000  1.6038667  3
    228    521    512    514     1  0.0000000  1.6038667  3
    229    228    521    512     1  0.0000000  1.6038667  3
    230    228    521    512     1  0.0000000  1.6038667  3
    232    233    245    246     1  0.0000000  0.6508444  3
    232    233    245    247     1  0.0000000  0.6508444  3
    232    236    248    249     1  0.0000000  0.6508444  3
    232    236    248    250     1  0.0000000  0.6508444  3
    232    239    242    243     1  0.0000000  0.6508444  3
    232    239    242    244     1  0.0000000  0.6508444  3
    233    232    236    237     1  0.0000000  1.2552000  3
    233    232    236    238     1  0.0000000  1.2552000  3
    233    232    239    240     1  0.0000000  1.2552000  3
    233    232    239    241     1  0.0000000  1.2552000  3
    233    245    257    258     1  0.0000000  0.6508444  3
    233    245    257    259     1  0.0000000  0.6508444  3
    234    233    232    236     1  0.0000000  1.2552000  3
    234    233    232    239     1  0.0000000  1.2552000  3
    234    233    245    257     1  0.0000000  0.6508444  3
    234    233    245    246     1  0.0000000  0.6508444  3
    234    233    245    247     1  0.0000000  0.6508444  3
    235    233    232    236     1  0.0000000  1.2552000  3
    235    233    232    239     1  0.0000000  1.2552000  3
    235    233    245    257     1  0.0000000  0.6508444  3
    235    233    245    246     1  0.0000000  0.6508444  3
    235    233    245    247     1  0.0000000  0.6508444  3
    236    232    239    240     1  0.0000000  1.2552000  3
    236    232    239    241     1  0.0000000  1.2552000  3
    236    248    254    255     1  0.0000000  0.6508444  3
    236    248    254    256     1  0.0000000  0.6508444  3
    237    236    232    239     1  0.0000000  1.2552000  3
    237    236    248    254     1  0.0000000  0.6508444  3
    237    236    248    249     1  0.0000000  0.6508444  3
    237    236    248    250     1  0.0000000  0.6508444  3
    238    236    232    239     1  0.0000000  1.2552000  3
    238    236    248    254     1  0.0000000  0.6508444  3
    238    236    248    249     1  0.0000000  0.6508444  3
    238    236    248    250     1  0.0000000  0.6508444  3
    239    242    251    252     1  0.0000000  0.6508444  3
    239    242    251    253     1  0.0000000  0.6508444  3
    240    239    242    251     1  0.0000000  0.6508444  3
    240    239    242    243     1  0.0000000  0.6508444  3
    240    239    242    244     1  0.0000000  0.6508444  3
    241    239    242    251     1  0.0000000  0.6508444  3
    241    239    242    243     1  0.0000000  0.6508444  3
    241    239    242    244     1  0.0000000  0.6508444  3
    243    242    251    260     1  0.0000000  1.0460000  1
    243    242    251    260     1  0.0000000  0.0000000  3
    243    242    251    252     1  0.0000000  0.6508444  3
    243    242    251    253     1  0.0000000  0.6508444  3
    244    242    251    260     1  0.0000000  1.0460000  1
    244    242    251    260     1  0.0000000  0.0000000  3
    244    242    251    252     1  0.0000000  0.6508444  3
    244    242    251    253     1  0.0000000  0.6508444  3
    246    245    257    579     1  0.0000000  1.0460000  1
    246    245    257    579     1  0.0000000  0.0000000  3
    246    245    257    258     1  0.0000000  0.6508444  3
    246    245    257    259     1  0.0000000  0.6508444  3
    247    245    257    579     1  0.0000000  1.0460000  1
    247    245    257    579     1  0.0000000  0.0000000  3
    247    245    257    258     1  0.0000000  0.6508444  3
    247    245    257    259     1  0.0000000  0.6508444  3
    249    248    254    550     1  0.0000000  1.0460000  1
    249    248    254    550     1  0.0000000  0.0000000  3
    249    248    254    255     1  0.0000000  0.6508444  3
    249    248    254    256     1  0.0000000  0.6508444  3
    250    248    254    550     1  0.0000000  1.0460000  1
    250    248    254    550     1  0.0000000  0.0000000  3
    250    248    254    255     1  0.0000000  0.6508444  3
    250    248    254    256     1  0.0000000  0.6508444  3
    254    550    541    542     1  0.0000000  1.6038667  3
    254    550    541    543     1  0.0000000  1.6038667  3
    255    254    550    541     1  0.0000000  1.6038667  3
    256    254    550    541     1  0.0000000  1.6038667  3
    257    579    570    571     1  0.0000000  1.6038667  3
    257    579    570    572     1  0.0000000  1.6038667  3
    258    257    579    570     1  0.0000000  1.6038667  3
    259    257    579    570     1  0.0000000  1.6038667  3
    261    262    274    275     1  0.0000000  0.6508444  3
    261    262    274    276     1  0.0000000  0.6508444  3
    261    265    277    278     1  0.0000000  0.6508444  3
    261    265    277    279     1  0.0000000  0.6508444  3
    261    268    271    272     1  0.0000000  0.6508444  3
    261    268    271    273     1  0.0000000  0.6508444  3
    262    261    265    266     1  0.0000000  1.2552000  3
    262    261    265    267     1  0.0000000  1.2552000  3
    262    261    268    269     1  0.0000000  1.2552000  3
    262    261    268    270     1  0.0000000  1.2552000  3
    262    274    286    287     1  0.0000000  0.6508444  3
    262    274    286    288     1  0.0000000  0.6508444  3
    263    262    261    265     1  0.0000000  1.2552000  3
    263    262    261    268     1  0.0000000  1.2552000  3
    263    262    274    286     1  0.0000000  0.6508444  3
    263    262    274    275     1  0.0000000  0.6508444  3
    263    262    274    276     1  0.0000000  0.6508444  3
    264    262    261    265     1  0.0000000  1.2552000  3
    264    262    261    268     1  0.0000000  1.2552000  3
    264    262    274    286     1  0.0000000  0.6508444  3
    264    262    274    275     1  0.0000000  0.6508444  3
    264    262    274    276     1  0.0000000  0.6508444  3
    265    261    268    269     1  0.0000000  1.2552000  3
    265    261    268    270     1  0.0000000  1.2552000  3
    265    277    283    284     1  0.0000000  0.6508444  3
    265    277    283    285     1  0.0000000  0.6508444  3
    266    265    261    268     1  0.0000000  1.2552000  3
    266    265    277    283     1  0.0000000  0.6508444  3
    266    265    277    278     1  0.0000000  0.6508444  3
    266    265    277    279     1  0.0000000  0.6508444  3
    267    265    261    268     1  0.0000000  1.2552000  3
    267    265    277    283     1  0.0000000  0.6508444  3
    267    265    277    278     1  0.0000000  0.6508444  3
    267    265    277    279     1  0.0000000  0.6508444  3
    268    271    280    281     1  0.0000000  0.6508444  3
    268    271    280    282     1  0.0000000  0.6508444  3
    269    268    271    280     1  0.0000000  0.6508444  3
    269    268    271    272     1  0.0000000  0.6508444  3
    269    268    271    273     1  0.0000000  0.6508444  3
    270    268    271    280     1  0.0000000  0.6508444  3
    270    268    271    272     1  0.0000000  0.6508444  3
    270    268    271    273     1  0.0000000  0.6508444  3
    272    271    280    289     1  0.0000000  1.0460000  1
    272    271    280    289     1  0.0000000  0.0000000  3
    272    271    280    281     1  0.0000000  0.6508444  3
    272    271    280    282     1  0.0000000  0.6508444  3
    273    271    280    289     1  0.0000000  1.0460000  1
    273    271    280    289     1  0.0000000  0.0000000  3
    273    271    280    281     1  0.0000000  0.6508444  3
    273    271    280    282     1  0.0000000  0.6508444  3
    275    274    286    637     1  0.0000000  1.0460000  1
    275    274    286    637     1  0.0000000  0.0000000  3
    275    274    286    287     1  0.0000000  0.6508444  3
    275    274    286    288     1  0.0000000  0.6508444  3
    276    274    286    637     1  0.0000000  1.0460000  1
    276    274    286    637     1  0.0000000  0.0000000  3
    276    274    286    287     1  0.0000000  0.6508444  3
    276    274    286    288     1  0.0000000  0.6508444  3
    278    277    283    608     1  0.0000000  1.0460000  1
    278    277    283    608     1  0.0000000  0.0000000  3
    278    277    283    284     1  0.0000000  0.6508444  3
    278    277    283    285     1  0.0000000  0.6508444  3
    279    277    283    608     1  0.0000000  1.0460000  1
    279    277    283    608     1  0.0000000  0.0000000  3
    279    277    283    284     1  0.0000000  0.6508444  3
    279    277    283    285     1  0.0000000  0.6508444  3
    283    608    599    600     1  0.0000000  1.6038667  3
    283    608    599    601     1  0.0000000  1.6038667  3
    284    283    608    599     1  0.0000000  1.6038667  3
    285    283    608    599     1  0.0000000  1.6038667  3
    286    637    628    629     1  0.0000000  1.6038667  3
    286    637    628    630     1  0.0000000  1.6038667  3
    287    286    637    628     1  0.0000000  1.6038667  3
    288    286    637    628     1  0.0000000  1.6038667  3
    290    291    303    304     1  0.0000000  0.6508444  3
    290    291    303    305     1  0.0000000  0.6508444  3
    290    294    306    307     1  0.0000000  0.6508444  3
    290    294    306    308     1  0.0000000  0.6508444  3
    290    297    300    301     1  0.0000000  0.6508444  3
    290    297    300    302     1  0.0000000  0.6508444  3
    291    290    294    295     1  0.0000000  1.2552000  3
    291    290    294    296     1  0.0000000  1.2552000  3
    291    290    297    298     1  0.0000000  1.2552000  3
    291    290    297    299     1  0.0000000  1.2552000  3
    291    303    315    316     1  0.0000000  0.6508444  3
    291    303    315    317     1  0.0000000  0.6508444  3
    292    291    290    294     1  0.0000000  1.2552000  3
    292    291    290    297     1  0.0000000  1.2552000  3
    292    291    303    315     1  0.0000000  0.6508444  3
    292    291    303    304     1  0.0000000  0.6508444  3
    292    291    303    305     1  0.0000000  0.6508444  3
    293    291    290    294     1  0.0000000  1.2552000  3
    293    291    290    297     1  0.0000000  1.2552000  3
    293    291    303    315     1  0.0000000  0.6508444  3
    293    291    303    304     1  0.0000000  0.6508444  3
    293    291    303    305     1  0.0000000  0.6508444  3
    294    290    297    298     1  0.0000000  1.2552000  3
    294    290    297    299     1  0.0000000  1.2552000  3
    294    306    312    313     1  0.0000000  0.6508444  3
    294    306    312    314     1  0.0000000  0.6508444  3
    295    294    290    297     1  0.0000000  1.2552000  3
    295    294    306    312     1  0.0000000  0.6508444  3
    295    294    306    307     1  0.0000000  0.6508444  3
    295    294    306    308     1  0.0000000  0.6508444  3
    296    294    290    297     1  0.0000000  1.2552000  3
    296    294    306    312     1  0.0000000  0.6508444  3
    296    294    306    307     1  0.0000000  0.6508444  3
    296    294    306    308     1  0.0000000  0.6508444  3
    297    300    309    310     1  0.0000000  0.6508444  3
    297    300    309    311     1  0.0000000  0.6508444  3
    298    297    300    309     1  0.0000000  0.6508444  3
    298    297    300    301     1  0.0000000  0.6508444  3
    298    297    300    302     1  0.0000000  0.6508444  3
    299    297    300    309     1  0.0000000  0.6508444  3
    299    297    300    301     1  0.0000000  0.6508444  3
    299    297    300    302     1  0.0000000  0.6508444  3
    301    300    309    318     1  0.0000000  1.0460000  1
    301    300    309    318     1  0.0000000  0.0000000  3
    301    300    309    310     1  0.0000000  0.6508444  3
    301    300    309    311     1  0.0000000  0.6508444  3
    302    300    309    318     1  0.0000000  1.0460000  1
    302    300    309    318     1  0.0000000  0.0000000  3
    302    300    309    310     1  0.0000000  0.6508444  3
    302    300    309    311     1  0.0000000  0.6508444  3
    304    303    315    695     1  0.0000000  1.0460000  1
    304    303    315    695     1  0.0000000  0.0000000  3
    304    303    315    316     1  0.0000000  0.6508444  3
    304    303    315    317     1  0.0000000  0.6508444  3
    305    303    315    695     1  0.0000000  1.0460000  1
    305    303    315    695     1  0.0000000  0.0000000  3
    305    303    315    316     1  0.0000000  0.6508444  3
    305    303    315    317     1  0.0000000  0.6508444  3
    307    306    312    666     1  0.0000000  1.0460000  1
    307    306    312    666     1  0.0000000  0.0000000  3
    307    306    312    313     1  0.0000000  0.6508444  3
    307    306    312    314     1  0.0000000  0.6508444  3
    308    306    312    666     1  0.0000000  1.0460000  1
    308    306    312    666     1  0.0000000  0.0000000  3
    308    306    312    313     1  0.0000000  0.6508444  3
    308    306    312    314     1  0.0000000  0.6508444  3
    312    666    657    658     1  0.0000000  1.6038667  3
    312    666    657    659     1  0.0000000  1.6038667  3
    313    312    666    657     1  0.0000000  1.6038667  3
    314    312    666    657     1  0.0000000  1.6038667  3
    315    695    686    687     1  0.0000000  1.6038667  3
    315    695    686    688     1  0.0000000  1.6038667  3
    316    315    695    686     1  0.0000000  1.6038667  3
    317    315    695    686     1  0.0000000  1.6038667  3
    319    320    332    333     1  0.0000000  0.6508444  3
    319    320    332    334     1  0.0000000  0.6508444  3
    319    323    335    336     1  0.0000000  0.6508444  3
    319    323    335    337     1  0.0000000  0.6508444  3
    319    326    329    330     1  0.0000000  0.6508444  3
    319    326    329    331     1  0.0000000  0.6508444  3
    320    319    323    324     1  0.0000000  1.2552000  3
    320    319    323    325     1  0.0000000  1.2552000  3
    320    319    326    327     1  0.0000000  1.2552000  3
    320    319    326    328     1  0.0000000  1.2552000  3
    320    332    344    345     1  0.0000000  0.6508444  3
    320    332    344    346     1  0.0000000  0.6508444  3
    321    320    319    323     1  0.0000000  1.2552000  3
    321    320    319    326     1  0.0000000  1.2552000  3
    321    320    332    344     1  0.0000000  0.6508444  3
    321    320    332    333     1  0.0000000  0.6508444  3
    321    320    332    334     1  0.0000000  0.6508444  3
    322    320    319    323     1  0.0000000  1.2552000  3
    322    320    319    326     1  0.0000000  1.2552000  3
    322    320    332    344     1  0.0000000  0.6508444  3
    322    320    332    333     1  0.0000000  0.6508444  3
    322    320    332    334     1  0.0000000  0.6508444  3
    323    319    326    327     1  0.0000000  1.2552000  3
    323    319    326    328     1  0.0000000  1.2552000  3
    323    335    341    342     1  0.0000000  0.6508444  3
    323    335    341    343     1  0.0000000  0.6508444  3
    324    323    319    326     1  0.0000000  1.2552000  3
    324    323    335    341     1  0.0000000  0.6508444  3
    324    323    335    336     1  0.0000000  0.6508444  3
    324    323    335    337     1  0.0000000  0.6508444  3
    325    323    319    326     1  0.0000000  1.2552000  3
    325    323    335    341     1  0.0000000  0.6508444  3
    325    323    335    336     1  0.0000000  0.6508444  3
    325    323    335    337     1  0.0000000  0.6508444  3
    326    329    338    339     1  0.0000000  0.6508444  3
    326    329    338    340     1  0.0000000  0.6508444  3
    327    326    329    338     1  0.0000000  0.6508444  3
    327    326    329    330     1  0.0000000  0.6508444  3
    327    326    329    331     1  0.0000000  0.6508444  3
    328    326    329    338     1  0.0000000  0.6508444  3
    328    326    329    330     1  0.0000000  0.6508444  3
    328    326    329    331     1  0.0000000  0.6508444  3
    330    329    338    347     1  0.0000000  1.0460000  1
    330    329    338    347     1  0.0000000  0.0000000  3
    330    329    338    339     1  0.0000000  0.6508444  3
    330    329    338    340     1  0.0000000  0.6508444  3
    331    329    338    347     1  0.0000000  1.0460000  1
    331    329    338    347     1  0.0000000  0.0000000  3
    331    329    338    339     1  0.0000000  0.6508444  3
    331    329    338    340     1  0.0000000  0.6508444  3
    333    332    344    753     1  0.0000000  1.0460000  1
    333    332    344    753     1  0.0000000  0.0000000  3
    333    332    344    345     1  0.0000000  0.6508444  3
    333    332    344    346     1  0.0000000  0.6508444  3
    334    332    344    753     1  0.0000000  1.0460000  1
    334    332    344    753     1  0.0000000  0.0000000  3
    334    332    344    345     1  0.0000000  0.6508444  3
    334    332    344    346     1  0.0000000  0.6508444  3
    336    335    341    724     1  0.0000000  1.0460000  1
    336    335    341    724     1  0.0000000  0.0000000  3
    336    335    341    342     1  0.0000000  0.6508444  3
    336    335    341    343     1  0.0000000  0.6508444  3
    337    335    341    724     1  0.0000000  1.0460000  1
    337    335    341    724     1  0.0000000  0.0000000  3
    337    335    341    342     1  0.0000000  0.6508444  3
    337    335    341    343     1  0.0000000  0.6508444  3
    341    724    715    716     1  0.0000000  1.6038667  3
    341    724    715    717     1  0.0000000  1.6038667  3
    342    341    724    715     1  0.0000000  1.6038667  3
    343    341    724    715     1  0.0000000  1.6038667  3
    344    753    744    745     1  0.0000000  1.6038667  3
    344    753    744    746     1  0.0000000  1.6038667  3
    345    344    753    744     1  0.0000000  1.6038667  3
    346    344    753    744     1  0.0000000  1.6038667  3
    348    349    361    362     1  0.0000000  0.6508444  3
    348    349    361    363     1  0.0000000  0.6508444  3
    348    352    364    365     1  0.0000000  0.6508444  3
    348    352    364    366     1  0.0000000  0.6508444  3
    348    355    358    359     1  0.0000000  0.6508444  3
    348    355    358    360     1  0.0000000  0.6508444  3
    349    348    352    353     1  0.0000000  1.2552000  3
    349    348    352    354     1  0.0000000  1.2552000  3
    349    348    355    356     1  0.0000000  1.2552000  3
    349    348    355    357     1  0.0000000  1.2552000  3
    349    361    373    374     1  0.0000000  0.6508444  3
    349    361    373    375     1  0.0000000  0.6508444  3
    350    349    348    352     1  0.0000000  1.2552000  3
    350    349    348    355     1  0.0000000  1.2552000  3
    350    349    361    373     1  0.0000000  0.6508444  3
    350    349    361    362     1  0.0000000  0.6508444  3
    350    349    361    363     1  0.0000000  0.6508444  3
    351    349    348    352     1  0.0000000  1.2552000  3
    351    349    348    355     1  0.0000000  1.2552000  3
    351    349    361    373     1  0.0000000  0.6508444  3
    351    349    361    362     1  0.0000000  0.6508444  3
    351    349    361    363     1  0.0000000  0.6508444  3
    352    348    355    356     1  0.0000000  1.2552000  3
    352    348    355    357     1  0.0000000  1.2552000  3
    352    364    370    371     1  0.0000000  0.6508444  3
    352    364    370    372     1  0.0000000  0.6508444  3
    353    352    348    355     1  0.0000000  1.2552000  3
    353    352    364    370     1  0.0000000  0.6508444  3
    353    352    364    365     1  0.0000000  0.6508444  3
    353    352    364    366     1  0.0000000  0.6508444  3
    354    352    348    355     1  0.0000000  1.2552000  3
    354    352    364    370     1  0.0000000  0.6508444  3
    354    352    364    365     1  0.0000000  0.6508444  3
    354    352    364    366     1  0.0000000  0.6508444  3
    355    358    367    368     1  0.0000000  0.6508444  3
    355    358    367    369     1  0.0000000  0.6508444  3
    356    355    358    367     1  0.0000000  0.6508444  3
    356    355    358    359     1  0.0000000  0.6508444  3
    356    355    358    360     1  0.0000000  0.6508444  3
    357    355    358    367     1  0.0000000  0.6508444  3
    357    355    358    359     1  0.0000000  0.6508444  3
    357    355    358    360     1  0.0000000  0.6508444  3
    359    358    367    376     1  0.0000000  1.0460000  1
    359    358    367    376     1  0.0000000  0.0000000  3
    359    358    367    368     1  0.0000000  0.6508444  3
    359    358    367    369     1  0.0000000  0.6508444  3
    360    358    367    376     1  0.0000000  1.0460000  1
    360    358    367    376     1  0.0000000  0.0000000  3
    360    358    367    368     1  0.0000000  0.6508444  3
    360    358    367    369     1  0.0000000  0.6508444  3
    362    361    373    811     1  0.0000000  1.0460000  1
    362    361    373    811     1  0.0000000  0.0000000  3
    362    361    373    374     1  0.0000000  0.6508444  3
    362    361    373    375     1  0.0000000  0.6508444  3
    363    361    373    811     1  0.0000000  1.0460000  1
    363    361    373    811     1  0.0000000  0.0000000  3
    363    361    373    374     1  0.0000000  0.6508444  3
    363    361    373    375     1  0.0000000  0.6508444  3
    365    364    370    782     1  0.0000000  1.0460000  1
    365    364    370    782     1  0.0000000  0.0000000  3
    365    364    370    371     1  0.0000000  0.6508444  3
    365    364    370    372     1  0.0000000  0.6508444  3
    366    364    370    782     1  0.0000000  1.0460000  1
    366    364    370    782     1  0.0000000  0.0000000  3
    366    364    370    371     1  0.0000000  0.6508444  3
    366    364    370    372     1  0.0000000  0.6508444  3
    370    782    773    774     1  0.0000000  1.6038667  3
    370    782    773    775     1  0.0000000  1.6038667  3
    371    370    782    773     1  0.0000000  1.6038667  3
    372    370    782    773     1  0.0000000  1.6038667  3
    373    811    802    803     1  0.0000000  1.6038667  3
    373    811    802    804     1  0.0000000  1.6038667  3
    374    373    811    802     1  0.0000000  1.6038667  3
    375    373    811    802     1  0.0000000  1.6038667  3
    377    378    390    391     1  0.0000000  0.6508444  3
    377    378    390    392     1  0.0000000  0.6508444  3
    377    381    393    394     1  0.0000000  0.6508444  3
    377    381    393    395     1  0.0000000  0.6508444  3
    377    384    387    388     1  0.0000000  0.6508444  3
    377    384    387    389     1  0.0000000  0.6508444  3
    378    377    381    382     1  0.0000000  1.2552000  3
    378    377    381    383     1  0.0000000  1.2552000  3
    378    377    384    385     1  0.0000000  1.2552000  3
    378    377    384    386     1  0.0000000  1.2552000  3
    378    390    402    403     1  0.0000000  0.6508444  3
    378    390    402    404     1  0.0000000  0.6508444  3
    379    378    377    381     1  0.0000000  1.2552000  3
    379    378    377    384     1  0.0000000  1.2552000  3
    379    378    390    402     1  0.0000000  0.6508444  3
    379    378    390    391     1  0.0000000  0.6508444  3
    379    378    390    392     1  0.0000000  0.6508444  3
    380    378    377    381     1  0.0000000  1.2552000  3
    380    378    377    384     1  0.0000000  1.2552000  3
    380    378    390    402     1  0.0000000  0.6508444  3
    380    378    390    391     1  0.0000000  0.6508444  3
    380    378    390    392     1  0.0000000  0.6508444  3
    381    377    384    385     1  0.0000000  1.2552000  3
    381    377    384    386     1  0.0000000  1.2552000  3
    381    393    399    400     1  0.0000000  0.6508444  3
    381    393    399    401     1  0.0000000  0.6508444  3
    382    381    377    384     1  0.0000000  1.2552000  3
    382    381    393    399     1  0.0000000  0.6508444  3
    382    381    393    394     1  0.0000000  0.6508444  3
    382    381    393    395     1  0.0000000  0.6508444  3
    383    381    377    384     1  0.0000000  1.2552000  3
    383    381    393    399     1  0.0000000  0.6508444  3
    383    381    393    394     1  0.0000000  0.6508444  3
    383    381    393    395     1  0.0000000  0.6508444  3
    384    387    396    397     1  0.0000000  0.6508444  3
    384    387    396    398     1  0.0000000  0.6508444  3
    385    384    387    396     1  0.0000000  0.6508444  3
    385    384    387    388     1  0.0000000  0.6508444  3
    385    384    387    389     1  0.0000000  0.6508444  3
    386    384    387    396     1  0.0000000  0.6508444  3
    386    384    387    388     1  0.0000000  0.6508444  3
    386    384    387    389     1  0.0000000  0.6508444  3
    388    387    396    405     1  0.0000000  1.0460000  1
    388    387    396    405     1  0.0000000  0.0000000  3
    388    387    396    397     1  0.0000000  0.6508444  3
    388    387    396    398     1  0.0000000  0.6508444  3
    389    387    396    405     1  0.0000000  1.0460000  1
    389    387    396    405     1  0.0000000  0.0000000  3
    389    387    396    397     1  0.0000000  0.6508444  3
    389    387    396    398     1  0.0000000  0.6508444  3
    391    390    402    869     1  0.0000000  1.0460000  1
    391    390    402    869     1  0.0000000  0.0000000  3
    391    390    402    403     1  0.0000000  0.6508444  3
    391    390    402    404     1  0.0000000  0.6508444  3
    392    390    402    869     1  0.0000000  1.0460000  1
    392    390    402    869     1  0.0000000  0.0000000  3
    392    390    402    403     1  0.0000000  0.6508444  3
    392    390    402    404     1  0.0000000  0.6508444  3
    394    393    399    840     1  0.0000000  1.0460000  1
    394    393    399    840     1  0.0000000  0.0000000  3
    394    393    399    400     1  0.0000000  0.6508444  3
    394    393    399    401     1  0.0000000  0.6508444  3
    395    393    399    840     1  0.0000000  1.0460000  1
    395    393    399    840     1  0.0000000  0.0000000  3
    395    393    399    400     1  0.0000000  0.6508444  3
    395    393    399    401     1  0.0000000  0.6508444  3
    399    840    831    832     1  0.0000000  1.6038667  3
    399    840    831    833     1  0.0000000  1.6038667  3
    400    399    840    831     1  0.0000000  1.6038667  3
    401    399    840    831     1  0.0000000  1.6038667  3
    402    869    860    861     1  0.0000000  1.6038667  3
    402    869    860    862     1  0.0000000  1.6038667  3
    403    402    869    860     1  0.0000000  1.6038667  3
    404    402    869    860     1  0.0000000  1.6038667  3
    406    407    419    420     1  0.0000000  0.6508444  3
    406    407    419    421     1  0.0000000  0.6508444  3
    406    410    422    423     1  0.0000000  0.6508444  3
    406    410    422    424     1  0.0000000  0.6508444  3
    406    413    416    417     1  0.0000000  0.6508444  3
    406    413    416    418     1  0.0000000  0.6508444  3
    407    406    410    411     1  0.0000000  1.2552000  3
    407    406    410    412     1  0.0000000  1.2552000  3
    407    406    413    414     1  0.0000000  1.2552000  3
    407    406    413    415     1  0.0000000  1.2552000  3
    407    419    431    432     1  0.0000000  0.6508444  3
    407    419    431    433     1  0.0000000  0.6508444  3
    408    407    406    410     1  0.0000000  1.2552000  3
    408    407    406    413     1  0.0000000  1.2552000  3
    408    407    419    431     1  0.0000000  0.6508444  3
    408    407    419    420     1  0.0000000  0.6508444  3
    408    407    419    421     1  0.0000000  0.6508444  3
    409    407    406    410     1  0.0000000  1.2552000  3
    409    407    406    413     1  0.0000000  1.2552000  3
    409    407    419    431     1  0.0000000  0.6508444  3
    409    407    419    420     1  0.0000000  0.6508444  3
    409    407    419    421     1  0.0000000  0.6508444  3
    410    406    413    414     1  0.0000000  1.2552000  3
    410    406    413    415     1  0.0000000  1.2552000  3
    410    422    428    429     1  0.0000000  0.6508444  3
    410    422    428    430     1  0.0000000  0.6508444  3
    411    410    406    413     1  0.0000000  1.2552000  3
    411    410    422    428     1  0.0000000  0.6508444  3
    411    410    422    423     1  0.0000000  0.6508444  3
    411    410    422    424     1  0.0000000  0.6508444  3
    412    410    406    413     1  0.0000000  1.2552000  3
    412    410    422    428     1  0.0000000  0.6508444  3
    412    410    422    423     1  0.0000000  0.6508444  3
    412    410    422    424     1  0.0000000  0.6508444  3
    413    416    425    426     1  0.0000000  0.6508444  3
    413    416    425    427     1  0.0000000  0.6508444  3
    414    413    416    425     1  0.0000000  0.6508444  3
    414    413    416    417     1  0.0000000  0.6508444  3
    414    413    416    418     1  0.0000000  0.6508444  3
    415    413    416    425     1  0.0000000  0.6508444  3
    415    413    416    417     1  0.0000000  0.6508444  3
    415    413    416    418     1  0.0000000  0.6508444  3
    417    416    425    434     1  0.0000000  1.0460000  1
    417    416    425    434     1  0.0000000  0.0000000  3
    417    416    425    426     1  0.0000000  0.6508444  3
    417    416    425    427     1  0.0000000  0.6508444  3
    418    416    425    434     1  0.0000000  1.0460000  1
    418    416    425    434     1  0.0000000  0.0000000  3
    418    416    425    426     1  0.0000000  0.6508444  3
    418    416    425    427     1  0.0000000  0.6508444  3
    420    419    431    927     1  0.0000000  1.0460000  1
    420    419    431    927     1  0.0000000  0.0000000  3
    420    419    431    432     1  0.0000000  0.6508444  3
    420    419    431    433     1  0.0000000  0.6508444  3
    421    419    431    927     1  0.0000000  1.0460000  1
    421    419    431    927     1  0.0000000  0.0000000  3
    421    419    431    432     1  0.0000000  0.6508444  3
    421    419    431    433     1  0.0000000  0.6508444  3
    423    422    428    898     1  0.0000000  1.0460000  1
    423    422    428    898     1  0.0000000  0.0000000  3
    423    422    428    429     1  0.0000000  0.6508444  3
    423    422    428    430     1  0.0000000  0.6508444  3
    424    422    428    898     1  0.0000000  1.0460000  1
    424    422    428    898     1  0.0000000  0.0000000  3
    424    422    428    429     1  0.0000000  0.6508444  3
    424    422    428    430     1  0.0000000  0.6508444  3
    428    898    889    890     1  0.0000000  1.6038667  3
    428    898    889    891     1  0.0000000  1.6038667  3
    429    428    898    889     1  0.0000000  1.6038667  3
    430    428    898    889     1  0.0000000  1.6038667  3
    431    927    918    919     1  0.0000000  1.6038667  3
    431    927    918    920     1  0.0000000  1.6038667  3
    432    431    927    918     1  0.0000000  1.6038667  3
    433    431    927    918     1  0.0000000  1.6038667  3
    435    436    448    449     1  0.0000000  0.6508444  3
    435    436    448    450     1  0.0000000  0.6508444  3
    435    439    451    452     1  0.0000000  0.6508444  3
    435    439    451    453     1  0.0000000  0.6508444  3
    435    442    445    446     1  0.0000000  0.6508444  3
    435    442    445    447     1  0.0000000  0.6508444  3
    436    435    439    440     1  0.0000000  1.2552000  3
    436    435    439    441     1  0.0000000  1.2552000  3
    436    435    442    443     1  0.0000000  1.2552000  3
    436    435    442    444     1  0.0000000  1.2552000  3
    436    448    460    461     1  0.0000000  0.6508444  3
    436    448    460    462     1  0.0000000  0.6508444  3
    437    436    435    439     1  0.0000000  1.2552000  3
    437    436    435    442     1  0.0000000  1.2552000  3
    437    436    448    460     1  0.0000000  0.6508444  3
    437    436    448    449     1  0.0000000  0.6508444  3
    437    436    448    450     1  0.0000000  0.6508444  3
    438    436    435    439     1  0.0000000  1.2552000  3
    438    436    435    442     1  0.0000000  1.2552000  3
    438    436    448    460     1  0.0000000  0.6508444  3
    438    436    448    449     1  0.0000000  0.6508444  3
    438    436    448    450     1  0.0000000  0.6508444  3
    439    435    442    443     1  0.0000000  1.2552000  3
    439    435    442    444     1  0.0000000  1.2552000  3
    439    451    457    458     1  0.0000000  0.6508444  3
    439    451    457    459     1  0.0000000  0.6508444  3
    440    439    435    442     1  0.0000000  1.2552000  3
    440    439    451    457     1  0.0000000  0.6508444  3
    440    439    451    452     1  0.0000000  0.6508444  3
    440    439    451    453     1  0.0000000  0.6508444  3
    441    439    435    442     1  0.0000000  1.2552000  3
    441    439    451    457     1  0.0000000  0.6508444  3
    441    439    451    452     1  0.0000000  0.6508444  3
    441    439    451    453     1  0.0000000  0.6508444  3
    442    445    454    455     1  0.0000000  0.6508444  3
    442    445    454    456     1  0.0000000  0.6508444  3
    443    442    445    454     1  0.0000000  0.6508444  3
    443    442    445    446     1  0.0000000  0.6508444  3
    443    442    445    447     1  0.0000000  0.6508444  3
    444    442    445    454     1  0.0000000  0.6508444  3
    444    442    445    446     1  0.0000000  0.6508444  3
    444    442    445    447     1  0.0000000  0.6508444  3
    446    445    454    463     1  0.0000000  1.0460000  1
    446    445    454    463     1  0.0000000  0.0000000  3
    446    445    454    455     1  0.0000000  0.6508444  3
    446    445    454    456     1  0.0000000  0.6508444  3
    447    445    454    463     1  0.0000000  1.0460000  1
    447    445    454    463     1  0.0000000  0.0000000  3
    447    445    454    455     1  0.0000000  0.6508444  3
    447    445    454    456     1  0.0000000  0.6508444  3
    449    448    460    985     1  0.0000000  1.0460000  1
    449    448    460    985     1  0.0000000  0.0000000  3
    449    448    460    461     1  0.0000000  0.6508444  3
    449    448    460    462     1  0.0000000  0.6508444  3
    450    448    460    985     1  0.0000000  1.0460000  1
    450    448    460    985     1  0.0000000  0.0000000  3
    450    448    460    461     1  0.0000000  0.6508444  3
    450    448    460    462     1  0.0000000  0.6508444  3
    452    451    457    956     1  0.0000000  1.0460000  1
    452    451    457    956     1  0.0000000  0.0000000  3
    452    451    457    458     1  0.0000000  0.6508444  3
    452    451    457    459     1  0.0000000  0.6508444  3
    453    451    457    956     1  0.0000000  1.0460000  1
    453    451    457    956     1  0.0000000  0.0000000  3
    453    451    457    458     1  0.0000000  0.6508444  3
    453    451    457    459     1  0.0000000  0.6508444  3
    457    956    947    948     1  0.0000000  1.6038667  3
    457    956    947    949     1  0.0000000  1.6038667  3
    458    457    956    947     1  0.0000000  1.6038667  3
    459    457    956    947     1  0.0000000  1.6038667  3
    460    985    976    977     1  0.0000000  1.6038667  3
    460    985    976    978     1  0.0000000  1.6038667  3
    461    460    985    976     1  0.0000000  1.6038667  3
    462    460    985    976     1  0.0000000  1.6038667  3
    464    465    477    478     1  0.0000000  0.6508444  3
    464    465    477    479     1  0.0000000  0.6508444  3
    464    468    480    481     1  0.0000000  0.6508444  3
    464    468    480    482     1  0.0000000  0.6508444  3
    464    471    474    475     1  0.0000000  0.6508444  3
    464    471    474    476     1  0.0000000  0.6508444  3
    465    464    468    469     1  0.0000000  1.2552000  3
    465    464    468    470     1  0.0000000  1.2552000  3
    465    464    471    472     1  0.0000000  1.2552000  3
    465    464    471    473     1  0.0000000  1.2552000  3
    465    477    489    490     1  0.0000000  0.6508444  3
    465    477    489    491     1  0.0000000  0.6508444  3
    466    465    464    468     1  0.0000000  1.2552000  3
    466    465    464    471     1  0.0000000  1.2552000  3
    466    465    477    489     1  0.0000000  0.6508444  3
    466    465    477    478     1  0.0000000  0.6508444  3
    466    465    477    479     1  0.0000000  0.6508444  3
    467    465    464    468     1  0.0000000  1.2552000  3
    467    465    464    471     1  0.0000000  1.2552000  3
    467    465    477    489     1  0.0000000  0.6508444  3
    467    465    477    478     1  0.0000000  0.6508444  3
    467    465    477    479     1  0.0000000  0.6508444  3
    468    464    471    472     1  0.0000000  1.2552000  3
    468    464    471    473     1  0.0000000  1.2552000  3
    468    480    486    487     1  0.0000000  0.6508444  3
    468    480    486    488     1  0.0000000  0.6508444  3
    469    468    464    471     1  0.0000000  1.2552000  3
    469    468    480    486     1  0.0000000  0.6508444  3
    469    468    480    481     1  0.0000000  0.6508444  3
    469    468    480    482     1  0.0000000  0.6508444  3
    470    468    464    471     1  0.0000000  1.2552000  3
    470    468    480    486     1  0.0000000  0.6508444  3
    470    468    480    481     1  0.0000000  0.6508444  3
    470    468    480    482     1  0.0000000  0.6508444  3
    471    474    483    484     1  0.0000000  0.6508444  3
    471    474    483    485     1  0.0000000  0.6508444  3
    472    471    474    483     1  0.0000000  0.6508444  3
    472    471    474    475     1  0.0000000  0.6508444  3
    472    471    474    476     1  0.0000000  0.6508444  3
    473    471    474    483     1  0.0000000  0.6508444  3
    473    471    474    475     1  0.0000000  0.6508444  3
    473    471    474    476     1  0.0000000  0.6508444  3
    475    474    483    492     1  0.0000000  1.0460000  1
    475    474    483    492     1  0.0000000  0.0000000  3
    475    474    483    484     1  0.0000000  0.6508444  3
    475    474    483    485     1  0.0000000  0.6508444  3
    476    474    483    492     1  0.0000000  1.0460000  1
    476    474    483    492     1  0.0000000  0.0000000  3
    476    474    483    484     1  0.0000000  0.6508444  3
    476    474    483    485     1  0.0000000  0.6508444  3
    478    477    489   1043     1  0.0000000  1.0460000  1
    478    477    489   1043     1  0.0000000  0.0000000  3
    478    477    489    490     1  0.0000000  0.6508444  3
    478    477    489    491     1  0.0000000  0.6508444  3
    479    477    489   1043     1  0.0000000  1.0460000  1
    479    477    489   1043     1  0.0000000  0.0000000  3
    479    477    489    490     1  0.0000000  0.6508444  3
    479    477    489    491     1  0.0000000  0.6508444  3
    481    480    486   1014     1  0.0000000  1.0460000  1
    481    480    486   1014     1  0.0000000  0.0000000  3
    481    480    486    487     1  0.0000000  0.6508444  3
    481    480    486    488     1  0.0000000  0.6508444  3
    482    480    486   1014     1  0.0000000  1.0460000  1
    482    480    486   1014     1  0.0000000  0.0000000  3
    482    480    486    487     1  0.0000000  0.6508444  3
    482    480    486    488     1  0.0000000  0.6508444  3
    486   1014   1005   1006     1  0.0000000  1.6038667  3
    486   1014   1005   1007     1  0.0000000  1.6038667  3
    487    486   1014   1005     1  0.0000000  1.6038667  3
    488    486   1014   1005     1  0.0000000  1.6038667  3
    489   1043   1034   1035     1  0.0000000  1.6038667  3
    489   1043   1034   1036     1  0.0000000  1.6038667  3
    490    489   1043   1034     1  0.0000000  1.6038667  3
    491    489   1043   1034     1  0.0000000  1.6038667  3
    493    494    506    507     1  0.0000000  0.6508444  3
    493    494    506    508     1  0.0000000  0.6508444  3
    493    497    509    510     1  0.0000000  0.6508444  3
    493    497    509    511     1  0.0000000  0.6508444  3
    493    500    503    504     1  0.0000000  0.6508444  3
    493    500    503    505     1  0.0000000  0.6508444  3
    494    493    497    498     1  0.0000000  1.2552000  3
    494    493    497    499     1  0.0000000  1.2552000  3
    494    493    500    501     1  0.0000000  1.2552000  3
    494    493    500    502     1  0.0000000  1.2552000  3
    494    506    518    519     1  0.0000000  0.6508444  3
    494    506    518    520     1  0.0000000  0.6508444  3
    495    494    493    497     1  0.0000000  1.2552000  3
    495    494    493    500     1  0.0000000  1.2552000  3
    495    494    506    518     1  0.0000000  0.6508444  3
    495    494    506    507     1  0.0000000  0.6508444  3
    495    494    506    508     1  0.0000000  0.6508444  3
    496    494    493    497     1  0.0000000  1.2552000  3
    496    494    493    500     1  0.0000000  1.2552000  3
    496    494    506    518     1  0.0000000  0.6508444  3
    496    494    506    507     1  0.0000000  0.6508444  3
    496    494    506    508     1  0.0000000  0.6508444  3
    497    493    500    501     1  0.0000000  1.2552000  3
    497    493    500    502     1  0.0000000  1.2552000  3
    497    509    515    516     1  0.0000000  0.6508444  3
    497    509    515    517     1  0.0000000  0.6508444  3
    498    497    493    500     1  0.0000000  1.2552000  3
    498    497    509    515     1  0.0000000  0.6508444  3
    498    497    509    510     1  0.0000000  0.6508444  3
    498    497    509    511     1  0.0000000  0.6508444  3
    499    497    493    500     1  0.0000000  1.2552000  3
    499    497    509    515     1  0.0000000  0.6508444  3
    499    497    509    510     1  0.0000000  0.6508444  3
    499    497    509    511     1  0.0000000  0.6508444  3
    500    503    512    513     1  0.0000000  0.6508444  3
    500    503    512    514     1  0.0000000  0.6508444  3
    501    500    503    512     1  0.0000000  0.6508444  3
    501    500    503    504     1  0.0000000  0.6508444  3
    501    500    503    505     1  0.0000000  0.6508444  3
    502    500    503    512     1  0.0000000  0.6508444  3
    502    500    503    504     1  0.0000000  0.6508444  3
    502    500    503    505     1  0.0000000  0.6508444  3
    504    503    512    521     1  0.0000000  1.0460000  1
    504    503    512    521     1  0.0000000  0.0000000  3
    504    503    512    513     1  0.0000000  0.6508444  3
    504    503    512    514     1  0.0000000  0.6508444  3
    505    503    512    521     1  0.0000000  1.0460000  1
    505    503    512    521     1  0.0000000  0.0000000  3
    505    503    512    513     1  0.0000000  0.6508444  3
    505    503    512    514     1  0.0000000  0.6508444  3
    507    506    518   1101     1  0.0000000  1.0460000  1
    507    506    518   1101     1  0.0000000  0.0000000  3
    507    506    518    519     1  0.0000000  0.6508444  3
    507    506    518    520     1  0.0000000  0.6508444  3
    508    506    518   1101     1  0.0000000  1.0460000  1
    508    506    518   1101     1  0.0000000  0.0000000  3
    508    506    518    519     1  0.0000000  0.6508444  3
    508    506    518    520     1  0.0000000  0.6508444  3
    510    509    515   1072     1  0.0000000  1.0460000  1
    510    509    515   1072     1  0.0000000  0.0000000  3
    510    509    515    516     1  0.0000000  0.6508444  3
    510    509    515    517     1  0.0000000  0.6508444  3
    511    509    515   1072     1  0.0000000  1.0460000  1
    511    509    515   1072     1  0.0000000  0.0000000  3
    511    509    515    516     1  0.0000000  0.6508444  3
    511    509    515    517     1  0.0000000  0.6508444  3
    515   1072   1063   1064     1  0.0000000  1.6038667  3
    515   1072   1063   1065     1  0.0000000  1.6038667  3
    516    515   1072   1063     1  0.0000000  1.6038667  3
    517    515   1072   1063     1  0.0000000  1.6038667  3
    518   1101   1092   1093     1  0.0000000  1.6038667  3
    518   1101   1092   1094     1  0.0000000  1.6038667  3
    519    518   1101   1092     1  0.0000000  1.6038667  3
    520    518   1101   1092     1  0.0000000  1.6038667  3
    522    523    535    536     1  0.0000000  0.6508444  3
    522    523    535    537     1  0.0000000  0.6508444  3
    522    526    538    539     1  0.0000000  0.6508444  3
    522    526    538    540     1  0.0000000  0.6508444  3
    522    529    532    533     1  0.0000000  0.6508444  3
    522    529    532    534     1  0.0000000  0.6508444  3
    523    522    526    527     1  0.0000000  1.2552000  3
    523    522    526    528     1  0.0000000  1.2552000  3
    523    522    529    530     1  0.0000000  1.2552000  3
    523    522    529    531     1  0.0000000  1.2552000  3
    523    535    547    548     1  0.0000000  0.6508444  3
    523    535    547    549     1  0.0000000  0.6508444  3
    524    523    522    526     1  0.0000000  1.2552000  3
    524    523    522    529     1  0.0000000  1.2552000  3
    524    523    535    547     1  0.0000000  0.6508444  3
    524    523    535    536     1  0.0000000  0.6508444  3
    524    523    535    537     1  0.0000000  0.6508444  3
    525    523    522    526     1  0.0000000  1.2552000  3
    525    523    522    529     1  0.0000000  1.2552000  3
    525    523    535    547     1  0.0000000  0.6508444  3
    525    523    535    536     1  0.0000000  0.6508444  3
    525    523    535    537     1  0.0000000  0.6508444  3
    526    522    529    530     1  0.0000000  1.2552000  3
    526    522    529    531     1  0.0000000  1.2552000  3
    526    538    544    545     1  0.0000000  0.6508444  3
    526    538    544    546     1  0.0000000  0.6508444  3
    527    526    522    529     1  0.0000000  1.2552000  3
    527    526    538    544     1  0.0000000  0.6508444  3
    527    526    538    539     1  0.0000000  0.6508444  3
    527    526    538    540     1  0.0000000  0.6508444  3
    528    526    522    529     1  0.0000000  1.2552000  3
    528    526    538    544     1  0.0000000  0.6508444  3
    528    526    538    539     1  0.0000000  0.6508444  3
    528    526    538    540     1  0.0000000  0.6508444  3
    529    532    541    542     1  0.0000000  0.6508444  3
    529    532    541    543     1  0.0000000  0.6508444  3
    530    529    532    541     1  0.0000000  0.6508444  3
    530    529    532    533     1  0.0000000  0.6508444  3
    530    529    532    534     1  0.0000000  0.6508444  3
    531    529    532    541     1  0.0000000  0.6508444  3
    531    529    532    533     1  0.0000000  0.6508444  3
    531    529    532    534     1  0.0000000  0.6508444  3
    533    532    541    550     1  0.0000000  1.0460000  1
    533    532    541    550     1  0.0000000  0.0000000  3
    533    532    541    542     1  0.0000000  0.6508444  3
    533    532    541    543     1  0.0000000  0.6508444  3
    534    532    541    550     1  0.0000000  1.0460000  1
    534    532    541    550     1  0.0000000  0.0000000  3
    534    532    541    542     1  0.0000000  0.6508444  3
    534    532    541    543     1  0.0000000  0.6508444  3
    536    535    547   1159     1  0.0000000  1.0460000  1
    536    535    547   1159     1  0.0000000  0.0000000  3
    536    535    547    548     1  0.0000000  0.6508444  3
    536    535    547    549     1  0.0000000  0.6508444  3
    537    535    547   1159     1  0.0000000  1.0460000  1
    537    535    547   1159     1  0.0000000  0.0000000  3
    537    535    547    548     1  0.0000000  0.6508444  3
    537    535    547    549     1  0.0000000  0.6508444  3
    539    538    544   1130     1  0.0000000  1.0460000  1
    539    538    544   1130     1  0.0000000  0.0000000  3
    539    538    544    545     1  0.0000000  0.6508444  3
    539    538    544    546     1  0.0000000  0.6508444  3
    540    538    544   1130     1  0.0000000  1.0460000  1
    540    538    544   1130     1  0.0000000  0.0000000  3
    540    538    544    545     1  0.0000000  0.6508444  3
    540    538    544    546     1  0.0000000  0.6508444  3
    544   1130   1121   1122     1  0.0000000  1.6038667  3
    544   1130   1121   1123     1  0.0000000  1.6038667  3
    545    544   1130   1121     1  0.0000000  1.6038667  3
    546    544   1130   1121     1  0.0000000  1.6038667  3
    547   1159   1150   1151     1  0.0000000  1.6038667  3
    547   1159   1150   1152     1  0.0000000  1.6038667  3
    548    547   1159   1150     1  0.0000000  1.6038667  3
    549    547   1159   1150     1  0.0000000  1.6038667  3
    551    552    564    565     1  0.0000000  0.6508444  3
    551    552    564    566     1  0.0000000  0.6508444  3
    551    555    567    568     1  0.0000000  0.6508444  3
    551    555    567    569     1  0.0000000  0.6508444  3
    551    558    561    562     1  0.0000000  0.6508444  3
    551    558    561    563     1  0.0000000  0.6508444  3
    552    551    555    556     1  0.0000000  1.2552000  3
    552    551    555    557     1  0.0000000  1.2552000  3
    552    551    558    559     1  0.0000000  1.2552000  3
    552    551    558    560     1  0.0000000  1.2552000  3
    552    564    576    577     1  0.0000000  0.6508444  3
    552    564    576    578     1  0.0000000  0.6508444  3
    553    552    551    555     1  0.0000000  1.2552000  3
    553    552    551    558     1  0.0000000  1.2552000  3
    553    552    564    576     1  0.0000000  0.6508444  3
    553    552    564    565     1  0.0000000  0.6508444  3
    553    552    564    566     1  0.0000000  0.6508444  3
    554    552    551    555     1  0.0000000  1.2552000  3
    554    552    551    558     1  0.0000000  1.2552000  3
    554    552    564    576     1  0.0000000  0.6508444  3
    554    552    564    565     1  0.0000000  0.6508444  3
    554    552    564    566     1  0.0000000  0.6508444  3
    555    551    558    559     1  0.0000000  1.2552000  3
    555    551    558    560     1  0.0000000  1.2552000  3
    555    567    573    574     1  0.0000000  0.6508444  3
    555    567    573    575     1  0.0000000  0.6508444  3
    556    555    551    558     1  0.0000000  1.2552000  3
    556    555    567    573     1  0.0000000  0.6508444  3
    556    555    567    568     1  0.0000000  0.6508444  3
    556    555    567    569     1  0.0000000  0.6508444  3
    557    555    551    558     1  0.0000000  1.2552000  3
    557    555    567    573     1  0.0000000  0.6508444  3
    557    555    567    568     1  0.0000000  0.6508444  3
    557    555    567    569     1  0.0000000  0.6508444  3
    558    561    570    571     1  0.0000000  0.6508444  3
    558    561    570    572     1  0.0000000  0.6508444  3
    559    558    561    570     1  0.0000000  0.6508444  3
    559    558    561    562     1  0.0000000  0.6508444  3
    559    558    561    563     1  0.0000000  0.6508444  3
    560    558    561    570     1  0.0000000  0.6508444  3
    560    558    561    562     1  0.0000000  0.6508444  3
    560    558    561    563     1  0.0000000  0.6508444  3
    562    561    570    579     1  0.0000000  1.0460000  1
    562    561    570    579     1  0.0000000  0.0000000  3
    562    561    570    571     1  0.0000000  0.6508444  3
    562    561    570    572     1  0.0000000  0.6508444  3
    563    561    570    579     1  0.0000000  1.0460000  1
    563    561    570    579     1  0.0000000  0.0000000  3
    563    561    570    571     1  0.0000000  0.6508444  3
    563    561    570    572     1  0.0000000  0.6508444  3
    565    564    576   1217     1  0.0000000  1.0460000  1
    565    564    576   1217     1  0.0000000  0.0000000  3
    565    564    576    577     1  0.0000000  0.6508444  3
    565    564    576    578     1  0.0000000  0.6508444  3
    566    564    576   1217     1  0.0000000  1.0460000  1
    566    564    576   1217     1  0.0000000  0.0000000  3
    566    564    576    577     1  0.0000000  0.6508444  3
    566    564    576    578     1  0.0000000  0.6508444  3
    568    567    573   1188     1  0.0000000  1.0460000  1
    568    567    573   1188     1  0.0000000  0.0000000  3
    568    567    573    574     1  0.0000000  0.6508444  3
    568    567    573    575     1  0.0000000  0.6508444  3
    569    567    573   1188     1  0.0000000  1.0460000  1
    569    567    573   1188     1  0.0000000  0.0000000  3
    569    567    573    574     1  0.0000000  0.6508444  3
    569    567    573    575     1  0.0000000  0.6508444  3
    573   1188   1179   1180     1  0.0000000  1.6038667  3
    573   1188   1179   1181     1  0.0000000  1.6038667  3
    574    573   1188   1179     1  0.0000000  1.6038667  3
    575    573   1188   1179     1  0.0000000  1.6038667  3
    576   1217   1208   1209     1  0.0000000  1.6038667  3
    576   1217   1208   1210     1  0.0000000  1.6038667  3
    577    576   1217   1208     1  0.0000000  1.6038667  3
    578    576   1217   1208     1  0.0000000  1.6038667  3
    580    581    593    594     1  0.0000000  0.6508444  3
    580    581    593    595     1  0.0000000  0.6508444  3
    580    584    596    597     1  0.0000000  0.6508444  3
    580    584    596    598     1  0.0000000  0.6508444  3
    580    587    590    591     1  0.0000000  0.6508444  3
    580    587    590    592     1  0.0000000  0.6508444  3
    581    580    584    585     1  0.0000000  1.2552000  3
    581    580    584    586     1  0.0000000  1.2552000  3
    581    580    587    588     1  0.0000000  1.2552000  3
    581    580    587    589     1  0.0000000  1.2552000  3
    581    593    605    606     1  0.0000000  0.6508444  3
    581    593    605    607     1  0.0000000  0.6508444  3
    582    581    580    584     1  0.0000000  1.2552000  3
    582    581    580    587     1  0.0000000  1.2552000  3
    582    581    593    605     1  0.0000000  0.6508444  3
    582    581    593    594     1  0.0000000  0.6508444  3
    582    581    593    595     1  0.0000000  0.6508444  3
    583    581    580    584     1  0.0000000  1.2552000  3
    583    581    580    587     1  0.0000000  1.2552000  3
    583    581    593    605     1  0.0000000  0.6508444  3
    583    581    593    594     1  0.0000000  0.6508444  3
    583    581    593    595     1  0.0000000  0.6508444  3
    584    580    587    588     1  0.0000000  1.2552000  3
    584    580    587    589     1  0.0000000  1.2552000  3
    584    596    602    603     1  0.0000000  0.6508444  3
    584    596    602    604     1  0.0000000  0.6508444  3
    585    584    580    587     1  0.0000000  1.2552000  3
    585    584    596    602     1  0.0000000  0.6508444  3
    585    584    596    597     1  0.0000000  0.6508444  3
    585    584    596    598     1  0.0000000  0.6508444  3
    586    584    580    587     1  0.0000000  1.2552000  3
    586    584    596    602     1  0.0000000  0.6508444  3
    586    584    596    597     1  0.0000000  0.6508444  3
    586    584    596    598     1  0.0000000  0.6508444  3
    587    590    599    600     1  0.0000000  0.6508444  3
    587    590    599    601     1  0.0000000  0.6508444  3
    588    587    590    599     1  0.0000000  0.6508444  3
    588    587    590    591     1  0.0000000  0.6508444  3
    588    587    590    592     1  0.0000000  0.6508444  3
    589    587    590    599     1  0.0000000  0.6508444  3
    589    587    590    591     1  0.0000000  0.6508444  3
    589    587    590    592     1  0.0000000  0.6508444  3
    591    590    599    608     1  0.0000000  1.0460000  1
    591    590    599    608     1  0.0000000  0.0000000  3
    591    590    599    600     1  0.0000000  0.6508444  3
    591    590    599    601     1  0.0000000  0.6508444  3
    592    590    599    608     1  0.0000000  1.0460000  1
    592    590    599    608     1  0.0000000  0.0000000  3
    592    590    599    600     1  0.0000000  0.6508444  3
    592    590    599    601     1  0.0000000  0.6508444  3
    594    593    605   1275     1  0.0000000  1.0460000  1
    594    593    605   1275     1  0.0000000  0.0000000  3
    594    593    605    606     1  0.0000000  0.6508444  3
    594    593    605    607     1  0.0000000  0.6508444  3
    595    593    605   1275     1  0.0000000  1.0460000  1
    595    593    605   1275     1  0.0000000  0.0000000  3
    595    593    605    606     1  0.0000000  0.6508444  3
    595    593    605    607     1  0.0000000  0.6508444  3
    597    596    602   1246     1  0.0000000  1.0460000  1
    597    596    602   1246     1  0.0000000  0.0000000  3
    597    596    602    603     1  0.0000000  0.6508444  3
    597    596    602    604     1  0.0000000  0.6508444  3
    598    596    602   1246     1  0.0000000  1.0460000  1
    598    596    602   1246     1  0.0000000  0.0000000  3
    598    596    602    603     1  0.0000000  0.6508444  3
    598    596    602    604     1  0.0000000  0.6508444  3
    602   1246   1237   1238     1  0.0000000  1.6038667  3
    602   1246   1237   1239     1  0.0000000  1.6038667  3
    603    602   1246   1237     1  0.0000000  1.6038667  3
    604    602   1246   1237     1  0.0000000  1.6038667  3
    605   1275   1266   1267     1  0.0000000  1.6038667  3
    605   1275   1266   1268     1  0.0000000  1.6038667  3
    606    605   1275   1266     1  0.0000000  1.6038667  3
    607    605   1275   1266     1  0.0000000  1.6038667  3
    609    610    622    623     1  0.0000000  0.6508444  3
    609    610    622    624     1  0.0000000  0.6508444  3
    609    613    625    626     1  0.0000000  0.6508444  3
    609    613    625    627     1  0.0000000  0.6508444  3
    609    616    619    620     1  0.0000000  0.6508444  3
    609    616    619    621     1  0.0000000  0.6508444  3
    610    609    613    614     1  0.0000000  1.2552000  3
    610    609    613    615     1  0.0000000  1.2552000  3
    610    609    616    617     1  0.0000000  1.2552000  3
    610    609    616    618     1  0.0000000  1.2552000  3
    610    622    634    635     1  0.0000000  0.6508444  3
    610    622    634    636     1  0.0000000  0.6508444  3
    611    610    609    613     1  0.0000000  1.2552000  3
    611    610    609    616     1  0.0000000  1.2552000  3
    611    610    622    634     1  0.0000000  0.6508444  3
    611    610    622    623     1  0.0000000  0.6508444  3
    611    610    622    624     1  0.0000000  0.6508444  3
    612    610    609    613     1  0.0000000  1.2552000  3
    612    610    609    616     1  0.0000000  1.2552000  3
    612    610    622    634     1  0.0000000  0.6508444  3
    612    610    622    623     1  0.0000000  0.6508444  3
    612    610    622    624     1  0.0000000  0.6508444  3
    613    609    616    617     1  0.0000000  1.2552000  3
    613    609    616    618     1  0.0000000  1.2552000  3
    613    625    631    632     1  0.0000000  0.6508444  3
    613    625    631    633     1  0.0000000  0.6508444  3
    614    613    609    616     1  0.0000000  1.2552000  3
    614    613    625    631     1  0.0000000  0.6508444  3
    614    613    625    626     1  0.0000000  0.6508444  3
    614    613    625    627     1  0.0000000  0.6508444  3
    615    613    609    616     1  0.0000000  1.2552000  3
    615    613    625    631     1  0.0000000  0.6508444  3
    615    613    625    626     1  0.0000000  0.6508444  3
    615    613    625    627     1  0.0000000  0.6508444  3
    616    619    628    629     1  0.0000000  0.6508444  3
    616    619    628    630     1  0.0000000  0.6508444  3
    617    616    619    628     1  0.0000000  0.6508444  3
    617    616    619    620     1  0.0000000  0.6508444  3
    617    616    619    621     1  0.0000000  0.6508444  3
    618    616    619    628     1  0.0000000  0.6508444  3
    618    616    619    620     1  0.0000000  0.6508444  3
    618    616    619    621     1  0.0000000  0.6508444  3
    620    619    628    637     1  0.0000000  1.0460000  1
    620    619    628    637     1  0.0000000  0.0000000  3
    620    619    628    629     1  0.0000000  0.6508444  3
    620    619    628    630     1  0.0000000  0.6508444  3
    621    619    628    637     1  0.0000000  1.0460000  1
    621    619    628    637     1  0.0000000  0.0000000  3
    621    619    628    629     1  0.0000000  0.6508444  3
    621    619    628    630     1  0.0000000  0.6508444  3
    623    622    634   1333     1  0.0000000  1.0460000  1
    623    622    634   1333     1  0.0000000  0.0000000  3
    623    622    634    635     1  0.0000000  0.6508444  3
    623    622    634    636     1  0.0000000  0.6508444  3
    624    622    634   1333     1  0.0000000  1.0460000  1
    624    622    634   1333     1  0.0000000  0.0000000  3
    624    622    634    635     1  0.0000000  0.6508444  3
    624    622    634    636     1  0.0000000  0.6508444  3
    626    625    631   1304     1  0.0000000  1.0460000  1
    626    625    631   1304     1  0.0000000  0.0000000  3
    626    625    631    632     1  0.0000000  0.6508444  3
    626    625    631    633     1  0.0000000  0.6508444  3
    627    625    631   1304     1  0.0000000  1.0460000  1
    627    625    631   1304     1  0.0000000  0.0000000  3
    627    625    631    632     1  0.0000000  0.6508444  3
    627    625    631    633     1  0.0000000  0.6508444  3
    631   1304   1295   1296     1  0.0000000  1.6038667  3
    631   1304   1295   1297     1  0.0000000  1.6038667  3
    632    631   1304   1295     1  0.0000000  1.6038667  3
    633    631   1304   1295     1  0.0000000  1.6038667  3
    634   1333   1324   1325     1  0.0000000  1.6038667  3
    634   1333   1324   1326     1  0.0000000  1.6038667  3
    635    634   1333   1324     1  0.0000000  1.6038667  3
    636    634   1333   1324     1  0.0000000  1.6038667  3
    638    639    651    652     1  0.0000000  0.6508444  3
    638    639    651    653     1  0.0000000  0.6508444  3
    638    642    654    655     1  0.0000000  0.6508444  3
    638    642    654    656     1  0.0000000  0.6508444  3
    638    645    648    649     1  0.0000000  0.6508444  3
    638    645    648    650     1  0.0000000  0.6508444  3
    639    638    642    643     1  0.0000000  1.2552000  3
    639    638    642    644     1  0.0000000  1.2552000  3
    639    638    645    646     1  0.0000000  1.2552000  3
    639    638    645    647     1  0.0000000  1.2552000  3
    639    651    663    664     1  0.0000000  0.6508444  3
    639    651    663    665     1  0.0000000  0.6508444  3
    640    639    638    642     1  0.0000000  1.2552000  3
    640    639    638    645     1  0.0000000  1.2552000  3
    640    639    651    663     1  0.0000000  0.6508444  3
    640    639    651    652     1  0.0000000  0.6508444  3
    640    639    651    653     1  0.0000000  0.6508444  3
    641    639    638    642     1  0.0000000  1.2552000  3
    641    639    638    645     1  0.0000000  1.2552000  3
    641    639    651    663     1  0.0000000  0.6508444  3
    641    639    651    652     1  0.0000000  0.6508444  3
    641    639    651    653     1  0.0000000  0.6508444  3
    642    638    645    646     1  0.0000000  1.2552000  3
    642    638    645    647     1  0.0000000  1.2552000  3
    642    654    660    661     1  0.0000000  0.6508444  3
    642    654    660    662     1  0.0000000  0.6508444  3
    643    642    638    645     1  0.0000000  1.2552000  3
    643    642    654    660     1  0.0000000  0.6508444  3
    643    642    654    655     1  0.0000000  0.6508444  3
    643    642    654    656     1  0.0000000  0.6508444  3
    644    642    638    645     1  0.0000000  1.2552000  3
    644    642    654    660     1  0.0000000  0.6508444  3
    644    642    654    655     1  0.0000000  0.6508444  3
    644    642    654    656     1  0.0000000  0.6508444  3
    645    648    657    658     1  0.0000000  0.6508444  3
    645    648    657    659     1  0.0000000  0.6508444  3
    646    645    648    657     1  0.0000000  0.6508444  3
    646    645    648    649     1  0.0000000  0.6508444  3
    646    645    648    650     1  0.0000000  0.6508444  3
    647    645    648    657     1  0.0000000  0.6508444  3
    647    645    648    649     1  0.0000000  0.6508444  3
    647    645    648    650     1  0.0000000  0.6508444  3
    649    648    657    666     1  0.0000000  1.0460000  1
    649    648    657    666     1  0.0000000  0.0000000  3
    649    648    657    658     1  0.0000000  0.6508444  3
    649    648    657    659     1  0.0000000  0.6508444  3
    650    648    657    666     1  0.0000000  1.0460000  1
    650    648    657    666     1  0.0000000  0.0000000  3
    650    648    657    658     1  0.0000000  0.6508444  3
    650    648    657    659     1  0.0000000  0.6508444  3
    652    651    663   1391     1  0.0000000  1.0460000  1
    652    651    663   1391     1  0.0000000  0.0000000  3
    652    651    663    664     1  0.0000000  0.6508444  3
    652    651    663    665     1  0.0000000  0.6508444  3
    653    651    663   1391     1  0.0000000  1.0460000  1
    653    651    663   1391     1  0.0000000  0.0000000  3
    653    651    663    664     1  0.0000000  0.6508444  3
    653    651    663    665     1  0.0000000  0.6508444  3
    655    654    660   1362     1  0.0000000  1.0460000  1
    655    654    660   1362     1  0.0000000  0.0000000  3
    655    654    660    661     1  0.0000000  0.6508444  3
    655    654    660    662     1  0.0000000  0.6508444  3
    656    654    660   1362     1  0.0000000  1.0460000  1
    656    654    660   1362     1  0.0000000  0.0000000  3
    656    654    660    661     1  0.0000000  0.6508444  3
    656    654    660    662     1  0.0000000  0.6508444  3
    660   1362   1353   1354     1  0.0000000  1.6038667  3
    660   1362   1353   1355     1  0.0000000  1.6038667  3
    661    660   1362   1353     1  0.0000000  1.6038667  3
    662    660   1362   1353     1  0.0000000  1.6038667  3
    663   1391   1382   1383     1  0.0000000  1.6038667  3
    663   1391   1382   1384     1  0.0000000  1.6038667  3
    664    663   1391   1382     1  0.0000000  1.6038667  3
    665    663   1391   1382     1  0.0000000  1.6038667  3
    667    668    680    681     1  0.0000000  0.6508444  3
    667    668    680    682     1  0.0000000  0.6508444  3
    667    671    683    684     1  0.0000000  0.6508444  3
    667    671    683    685     1  0.0000000  0.6508444  3
    667    674    677    678     1  0.0000000  0.6508444  3
    667    674    677    679     1  0.0000000  0.6508444  3
    668    667    671    672     1  0.0000000  1.2552000  3
    668    667    671    673     1  0.0000000  1.2552000  3
    668    667    674    675     1  0.0000000  1.2552000  3
    668    667    674    676     1  0.0000000  1.2552000  3
    668    680    692    693     1  0.0000000  0.6508444  3
    668    680    692    694     1  0.0000000  0.6508444  3
    669    668    667    671     1  0.0000000  1.2552000  3
    669    668    667    674     1  0.0000000  1.2552000  3
    669    668    680    692     1  0.0000000  0.6508444  3
    669    668    680    681     1  0.0000000  0.6508444  3
    669    668    680    682     1  0.0000000  0.6508444  3
    670    668    667    671     1  0.0000000  1.2552000  3
    670    668    667    674     1  0.0000000  1.2552000  3
    670    668    680    692     1  0.0000000  0.6508444  3
    670    668    680    681     1  0.0000000  0.6508444  3
    670    668    680    682     1  0.0000000  0.6508444  3
    671    667    674    675     1  0.0000000  1.2552000  3
    671    667    674    676     1  0.0000000  1.2552000  3
    671    683    689    690     1  0.0000000  0.6508444  3
    671    683    689    691     1  0.0000000  0.6508444  3
    672    671    667    674     1  0.0000000  1.2552000  3
    672    671    683    689     1  0.0000000  0.6508444  3
    672    671    683    684     1  0.0000000  0.6508444  3
    672    671    683    685     1  0.0000000  0.6508444  3
    673    671    667    674     1  0.0000000  1.2552000  3
    673    671    683    689     1  0.0000000  0.6508444  3
    673    671    683    684     1  0.0000000  0.6508444  3
    673    671    683    685     1  0.0000000  0.6508444  3
    674    677    686    687     1  0.0000000  0.6508444  3
    674    677    686    688     1  0.0000000  0.6508444  3
    675    674    677    686     1  0.0000000  0.6508444  3
    675    674    677    678     1  0.0000000  0.6508444  3
    675    674    677    679     1  0.0000000  0.6508444  3
    676    674    677    686     1  0.0000000  0.6508444  3
    676    674    677    678     1  0.0000000  0.6508444  3
    676    674    677    679     1  0.0000000  0.6508444  3
    678    677    686    695     1  0.0000000  1.0460000  1
    678    677    686    695     1  0.0000000  0.0000000  3
    678    677    686    687     1  0.0000000  0.6508444  3
    678    677    686    688     1  0.0000000  0.6508444  3
    679    677    686    695     1  0.0000000  1.0460000  1
    679    677    686    695     1  0.0000000  0.0000000  3
    679    677    686    687     1  0.0000000  0.6508444  3
    679    677    686    688     1  0.0000000  0.6508444  3
    681    680    692   1449     1  0.0000000  1.0460000  1
    681    680    692   1449     1  0.0000000  0.0000000  3
    681    680    692    693     1  0.0000000  0.6508444  3
    681    680    692    694     1  0.0000000  0.6508444  3
    682    680    692   1449     1  0.0000000  1.0460000  1
    682    680    692   1449     1  0.0000000  0.0000000  3
    682    680    692    693     1  0.0000000  0.6508444  3
    682    680    692    694     1  0.0000000  0.6508444  3
    684    683    689   1420     1  0.0000000  1.0460000  1
    684    683    689   1420     1  0.0000000  0.0000000  3
    684    683    689    690     1  0.0000000  0.6508444  3
    684    683    689    691     1  0.0000000  0.6508444  3
    685    683    689   1420     1  0.0000000  1.0460000  1
    685    683    689   1420     1  0.0000000  0.0000000  3
    685    683    689    690     1  0.0000000  0.6508444  3
    685    683    689    691     1  0.0000000  0.6508444  3
    689   1420   1411   1412     1  0.0000000  1.6038667  3
    689   1420   1411   1413     1  0.0000000  1.6038667  3
    690    689   1420   1411     1  0.0000000  1.6038667  3
    691    689   1420   1411     1  0.0000000  1.6038667  3
    692   1449   1440   1441     1  0.0000000  1.6038667  3
    692   1449   1440   1442     1  0.0000000  1.6038667  3
    693    692   1449   1440     1  0.0000000  1.6038667  3
    694    692   1449   1440     1  0.0000000  1.6038667  3
    696    697    709    710     1  0.0000000  0.6508444  3
    696    697    709    711     1  0.0000000  0.6508444  3
    696    700    712    713     1  0.0000000  0.6508444  3
    696    700    712    714     1  0.0000000  0.6508444  3
    696    703    706    707     1  0.0000000  0.6508444  3
    696    703    706    708     1  0.0000000  0.6508444  3
    697    696    700    701     1  0.0000000  1.2552000  3
    697    696    700    702     1  0.0000000  1.2552000  3
    697    696    703    704     1  0.0000000  1.2552000  3
    697    696    703    705     1  0.0000000  1.2552000  3
    697    709    721    722     1  0.0000000  0.6508444  3
    697    709    721    723     1  0.0000000  0.6508444  3
    698    697    696    700     1  0.0000000  1.2552000  3
    698    697    696    703     1  0.0000000  1.2552000  3
    698    697    709    721     1  0.0000000  0.6508444  3
    698    697    709    710     1  0.0000000  0.6508444  3
    698    697    709    711     1  0.0000000  0.6508444  3
    699    697    696    700     1  0.0000000  1.2552000  3
    699    697    696    703     1  0.0000000  1.2552000  3
    699    697    709    721     1  0.0000000  0.6508444  3
    699    697    709    710     1  0.0000000  0.6508444  3
    699    697    709    711     1  0.0000000  0.6508444  3
    700    696    703    704     1  0.0000000  1.2552000  3
    700    696    703    705     1  0.0000000  1.2552000  3
    700    712    718    719     1  0.0000000  0.6508444  3
    700    712    718    720     1  0.0000000  0.6508444  3
    701    700    696    703     1  0.0000000  1.2552000  3
    701    700    712    718     1  0.0000000  0.6508444  3
    701    700    712    713     1  0.0000000  0.6508444  3
    701    700    712    714     1  0.0000000  0.6508444  3
    702    700    696    703     1  0.0000000  1.2552000  3
    702    700    712    718     1  0.0000000  0.6508444  3
    702    700    712    713     1  0.0000000  0.6508444  3
    702    700    712    714     1  0.0000000  0.6508444  3
    703    706    715    716     1  0.0000000  0.6508444  3
    703    706    715    717     1  0.0000000  0.6508444  3
    704    703    706    715     1  0.0000000  0.6508444  3
    704    703    706    707     1  0.0000000  0.6508444  3
    704    703    706    708     1  0.0000000  0.6508444  3
    705    703    706    715     1  0.0000000  0.6508444  3
    705    703    706    707     1  0.0000000  0.6508444  3
    705    703    706    708     1  0.0000000  0.6508444  3
    707    706    715    724     1  0.0000000  1.0460000  1
    707    706    715    724     1  0.0000000  0.0000000  3
    707    706    715    716     1  0.0000000  0.6508444  3
    707    706    715    717     1  0.0000000  0.6508444  3
    708    706    715    724     1  0.0000000  1.0460000  1
    708    706    715    724     1  0.0000000  0.0000000  3
    708    706    715    716     1  0.0000000  0.6508444  3
    708    706    715    717     1  0.0000000  0.6508444  3
    710    709    721   1507     1  0.0000000  1.0460000  1
    710    709    721   1507     1  0.0000000  0.0000000  3
    710    709    721    722     1  0.0000000  0.6508444  3
    710    709    721    723     1  0.0000000  0.6508444  3
    711    709    721   1507     1  0.0000000  1.0460000  1
    711    709    721   1507     1  0.0000000  0.0000000  3
    711    709    721    722     1  0.0000000  0.6508444  3
    711    709    721    723     1  0.0000000  0.6508444  3
    713    712    718   1478     1  0.0000000  1.0460000  1
    713    712    718   1478     1  0.0000000  0.0000000  3
    713    712    718    719     1  0.0000000  0.6508444  3
    713    712    718    720     1  0.0000000  0.6508444  3
    714    712    718   1478     1  0.0000000  1.0460000  1
    714    712    718   1478     1  0.0000000  0.0000000  3
    714    712    718    719     1  0.0000000  0.6508444  3
    714    712    718    720     1  0.0000000  0.6508444  3
    718   1478   1469   1470     1  0.0000000  1.6038667  3
    718   1478   1469   1471     1  0.0000000  1.6038667  3
    719    718   1478   1469     1  0.0000000  1.6038667  3
    720    718   1478   1469     1  0.0000000  1.6038667  3
    721   1507   1498   1499     1  0.0000000  1.6038667  3
    721   1507   1498   1500     1  0.0000000  1.6038667  3
    722    721   1507   1498     1  0.0000000  1.6038667  3
    723    721   1507   1498     1  0.0000000  1.6038667  3
    725    726    738    739     1  0.0000000  0.6508444  3
    725    726    738    740     1  0.0000000  0.6508444  3
    725    729    741    742     1  0.0000000  0.6508444  3
    725    729    741    743     1  0.0000000  0.6508444  3
    725    732    735    736     1  0.0000000  0.6508444  3
    725    732    735    737     1  0.0000000  0.6508444  3
    726    725    729    730     1  0.0000000  1.2552000  3
    726    725    729    731     1  0.0000000  1.2552000  3
    726    725    732    733     1  0.0000000  1.2552000  3
    726    725    732    734     1  0.0000000  1.2552000  3
    726    738    750    751     1  0.0000000  0.6508444  3
    726    738    750    752     1  0.0000000  0.6508444  3
    727    726    725    729     1  0.0000000  1.2552000  3
    727    726    725    732     1  0.0000000  1.2552000  3
    727    726    738    750     1  0.0000000  0.6508444  3
    727    726    738    739     1  0.0000000  0.6508444  3
    727    726    738    740     1  0.0000000  0.6508444  3
    728    726    725    729     1  0.0000000  1.2552000  3
    728    726    725    732     1  0.0000000  1.2552000  3
    728    726    738    750     1  0.0000000  0.6508444  3
    728    726    738    739     1  0.0000000  0.6508444  3
    728    726    738    740     1  0.0000000  0.6508444  3
    729    725    732    733     1  0.0000000  1.2552000  3
    729    725    732    734     1  0.0000000  1.2552000  3
    729    741    747    748     1  0.0000000  0.6508444  3
    729    741    747    749     1  0.0000000  0.6508444  3
    730    729    725    732     1  0.0000000  1.2552000  3
    730    729    741    747     1  0.0000000  0.6508444  3
    730    729    741    742     1  0.0000000  0.6508444  3
    730    729    741    743     1  0.0000000  0.6508444  3
    731    729    725    732     1  0.0000000  1.2552000  3
    731    729    741    747     1  0.0000000  0.6508444  3
    731    729    741    742     1  0.0000000  0.6508444  3
    731    729    741    743     1  0.0000000  0.6508444  3
    732    735    744    745     1  0.0000000  0.6508444  3
    732    735    744    746     1  0.0000000  0.6508444  3
    733    732    735    744     1  0.0000000  0.6508444  3
    733    732    735    736     1  0.0000000  0.6508444  3
    733    732    735    737     1  0.0000000  0.6508444  3
    734    732    735    744     1  0.0000000  0.6508444  3
    734    732    735    736     1  0.0000000  0.6508444  3
    734    732    735    737     1  0.0000000  0.6508444  3
    736    735    744    753     1  0.0000000  1.0460000  1
    736    735    744    753     1  0.0000000  0.0000000  3
    736    735    744    745     1  0.0000000  0.6508444  3
    736    735    744    746     1  0.0000000  0.6508444  3
    737    735    744    753     1  0.0000000  1.0460000  1
    737    735    744    753     1  0.0000000  0.0000000  3
    737    735    744    745     1  0.0000000  0.6508444  3
    737    735    744    746     1  0.0000000  0.6508444  3
    739    738    750   1565     1  0.0000000  1.0460000  1
    739    738    750   1565     1  0.0000000  0.0000000  3
    739    738    750    751     1  0.0000000  0.6508444  3
    739    738    750    752     1  0.0000000  0.6508444  3
    740    738    750   1565     1  0.0000000  1.0460000  1
    740    738    750   1565     1  0.0000000  0.0000000  3
    740    738    750    751     1  0.0000000  0.6508444  3
    740    738    750    752     1  0.0000000  0.6508444  3
    742    741    747   1536     1  0.0000000  1.0460000  1
    742    741    747   1536     1  0.0000000  0.0000000  3
    742    741    747    748     1  0.0000000  0.6508444  3
    742    741    747    749     1  0.0000000  0.6508444  3
    743    741    747   1536     1  0.0000000  1.0460000  1
    743    741    747   1536     1  0.0000000  0.0000000  3
    743    741    747    748     1  0.0000000  0.6508444  3
    743    741    747    749     1  0.0000000  0.6508444  3
    747   1536   1527   1528     1  0.0000000  1.6038667  3
    747   1536   1527   1529     1  0.0000000  1.6038667  3
    748    747   1536   1527     1  0.0000000  1.6038667  3
    749    747   1536   1527     1  0.0000000  1.6038667  3
    750   1565   1556   1557     1  0.0000000  1.6038667  3
    750   1565   1556   1558     1  0.0000000  1.6038667  3
    751    750   1565   1556     1  0.0000000  1.6038667  3
    752    750   1565   1556     1  0.0000000  1.6038667  3
    754    755    767    768     1  0.0000000  0.6508444  3
    754    755    767    769     1  0.0000000  0.6508444  3
    754    758    770    771     1  0.0000000  0.6508444  3
    754    758    770    772     1  0.0000000  0.6508444  3
    754    761    764    765     1  0.0000000  0.6508444  3
    754    761    764    766     1  0.0000000  0.6508444  3
    755    754    758    759     1  0.0000000  1.2552000  3
    755    754    758    760     1  0.0000000  1.2552000  3
    755    754    761    762     1  0.0000000  1.2552000  3
    755    754    761    763     1  0.0000000  1.2552000  3
    755    767    779    780     1  0.0000000  0.6508444  3
    755    767    779    781     1  0.0000000  0.6508444  3
    756    755    754    758     1  0.0000000  1.2552000  3
    756    755    754    761     1  0.0000000  1.2552000  3
    756    755    767    779     1  0.0000000  0.6508444  3
    756    755    767    768     1  0.0000000  0.6508444  3
    756    755    767    769     1  0.0000000  0.6508444  3
    757    755    754    758     1  0.0000000  1.2552000  3
    757    755    754    761     1  0.0000000  1.2552000  3
    757    755    767    779     1  0.0000000  0.6508444  3
    757    755    767    768     1  0.0000000  0.6508444  3
    757    755    767    769     1  0.0000000  0.6508444  3
    758    754    761    762     1  0.0000000  1.2552000  3
    758    754    761    763     1  0.0000000  1.2552000  3
    758    770    776    777     1  0.0000000  0.6508444  3
    758    770    776    778     1  0.0000000  0.6508444  3
    759    758    754    761     1  0.0000000  1.2552000  3
    759    758    770    776     1  0.0000000  0.6508444  3
    759    758    770    771     1  0.0000000  0.6508444  3
    759    758    770    772     1  0.0000000  0.6508444  3
    760    758    754    761     1  0.0000000  1.2552000  3
    760    758    770    776     1  0.0000000  0.6508444  3
    760    758    770    771     1  0.0000000  0.6508444  3
    760    758    770    772     1  0.0000000  0.6508444  3
    761    764    773    774     1  0.0000000  0.6508444  3
    761    764    773    775     1  0.0000000  0.6508444  3
    762    761    764    773     1  0.0000000  0.6508444  3
    762    761    764    765     1  0.0000000  0.6508444  3
    762    761    764    766     1  0.0000000  0.6508444  3
    763    761    764    773     1  0.0000000  0.6508444  3
    763    761    764    765     1  0.0000000  0.6508444  3
    763    761    764    766     1  0.0000000  0.6508444  3
    765    764    773    782     1  0.0000000  1.0460000  1
    765    764    773    782     1  0.0000000  0.0000000  3
    765    764    773    774     1  0.0000000  0.6508444  3
    765    764    773    775     1  0.0000000  0.6508444  3
    766    764    773    782     1  0.0000000  1.0460000  1
    766    764    773    782     1  0.0000000  0.0000000  3
    766    764    773    774     1  0.0000000  0.6508444  3
    766    764    773    775     1  0.0000000  0.6508444  3
    768    767    779   1623     1  0.0000000  1.0460000  1
    768    767    779   1623     1  0.0000000  0.0000000  3
    768    767    779    780     1  0.0000000  0.6508444  3
    768    767    779    781     1  0.0000000  0.6508444  3
    769    767    779   1623     1  0.0000000  1.0460000  1
    769    767    779   1623     1  0.0000000  0.0000000  3
    769    767    779    780     1  0.0000000  0.6508444  3
    769    767    779    781     1  0.0000000  0.6508444  3
    771    770    776   1594     1  0.0000000  1.0460000  1
    771    770    776   1594     1  0.0000000  0.0000000  3
    771    770    776    777     1  0.0000000  0.6508444  3
    771    770    776    778     1  0.0000000  0.6508444  3
    772    770    776   1594     1  0.0000000  1.0460000  1
    772    770    776   1594     1  0.0000000  0.0000000  3
    772    770    776    777     1  0.0000000  0.6508444  3
    772    770    776    778     1  0.0000000  0.6508444  3
    776   1594   1585   1586     1  0.0000000  1.6038667  3
    776   1594   1585   1587     1  0.0000000  1.6038667  3
    777    776   1594   1585     1  0.0000000  1.6038667  3
    778    776   1594   1585     1  0.0000000  1.6038667  3
    779   1623   1614   1615     1  0.0000000  1.6038667  3
    779   1623   1614   1616     1  0.0000000  1.6038667  3
    780    779   1623   1614     1  0.0000000  1.6038667  3
    781    779   1623   1614     1  0.0000000  1.6038667  3
    783    784    796    797     1  0.0000000  0.6508444  3
    783    784    796    798     1  0.0000000  0.6508444  3
    783    787    799    800     1  0.0000000  0.6508444  3
    783    787    799    801     1  0.0000000  0.6508444  3
    783    790    793    794     1  0.0000000  0.6508444  3
    783    790    793    795     1  0.0000000  0.6508444  3
    784    783    787    788     1  0.0000000  1.2552000  3
    784    783    787    789     1  0.0000000  1.2552000  3
    784    783    790    791     1  0.0000000  1.2552000  3
    784    783    790    792     1  0.0000000  1.2552000  3
    784    796    808    809     1  0.0000000  0.6508444  3
    784    796    808    810     1  0.0000000  0.6508444  3
    785    784    783    787     1  0.0000000  1.2552000  3
    785    784    783    790     1  0.0000000  1.2552000  3
    785    784    796    808     1  0.0000000  0.6508444  3
    785    784    796    797     1  0.0000000  0.6508444  3
    785    784    796    798     1  0.0000000  0.6508444  3
    786    784    783    787     1  0.0000000  1.2552000  3
    786    784    783    790     1  0.0000000  1.2552000  3
    786    784    796    808     1  0.0000000  0.6508444  3
    786    784    796    797     1  0.0000000  0.6508444  3
    786    784    796    798     1  0.0000000  0.6508444  3
    787    783    790    791     1  0.0000000  1.2552000  3
    787    783    790    792     1  0.0000000  1.2552000  3
    787    799    805    806     1  0.0000000  0.6508444  3
    787    799    805    807     1  0.0000000  0.6508444  3
    788    787    783    790     1  0.0000000  1.2552000  3
    788    787    799    805     1  0.0000000  0.6508444  3
    788    787    799    800     1  0.0000000  0.6508444  3
    788    787    799    801     1  0.0000000  0.6508444  3
    789    787    783    790     1  0.0000000  1.2552000  3
    789    787    799    805     1  0.0000000  0.6508444  3
    789    787    799    800     1  0.0000000  0.6508444  3
    789    787    799    801     1  0.0000000  0.6508444  3
    790    793    802    803     1  0.0000000  0.6508444  3
    790    793    802    804     1  0.0000000  0.6508444  3
    791    790    793    802     1  0.0000000  0.6508444  3
    791    790    793    794     1  0.0000000  0.6508444  3
    791    790    793    795     1  0.0000000  0.6508444  3
    792    790    793    802     1  0.0000000  0.6508444  3
    792    790    793    794     1  0.0000000  0.6508444  3
    792    790    793    795     1  0.0000000  0.6508444  3
    794    793    802    811     1  0.0000000  1.0460000  1
    794    793    802    811     1  0.0000000  0.0000000  3
    794    793    802    803     1  0.0000000  0.6508444  3
    794    793    802    804     1  0.0000000  0.6508444  3
    795    793    802    811     1  0.0000000  1.0460000  1
    795    793    802    811     1  0.0000000  0.0000000  3
    795    793    802    803     1  0.0000000  0.6508444  3
    795    793    802    804     1  0.0000000  0.6508444  3
    797    796    808   1681     1  0.0000000  1.0460000  1
    797    796    808   1681     1  0.0000000  0.0000000  3
    797    796    808    809     1  0.0000000  0.6508444  3
    797    796    808    810     1  0.0000000  0.6508444  3
    798    796    808   1681     1  0.0000000  1.0460000  1
    798    796    808   1681     1  0.0000000  0.0000000  3
    798    796    808    809     1  0.0000000  0.6508444  3
    798    796    808    810     1  0.0000000  0.6508444  3
    800    799    805   1652     1  0.0000000  1.0460000  1
    800    799    805   1652     1  0.0000000  0.0000000  3
    800    799    805    806     1  0.0000000  0.6508444  3
    800    799    805    807     1  0.0000000  0.6508444  3
    801    799    805   1652     1  0.0000000  1.0460000  1
    801    799    805   1652     1  0.0000000  0.0000000  3
    801    799    805    806     1  0.0000000  0.6508444  3
    801    799    805    807     1  0.0000000  0.6508444  3
    805   1652   1643   1644     1  0.0000000  1.6038667  3
    805   1652   1643   1645     1  0.0000000  1.6038667  3
    806    805   1652   1643     1  0.0000000  1.6038667  3
    807    805   1652   1643     1  0.0000000  1.6038667  3
    808   1681   1672   1673     1  0.0000000  1.6038667  3
    808   1681   1672   1674     1  0.0000000  1.6038667  3
    809    808   1681   1672     1  0.0000000  1.6038667  3
    810    808   1681   1672     1  0.0000000  1.6038667  3
    812    813    825    826     1  0.0000000  0.6508444  3
    812    813    825    827     1  0.0000000  0.6508444  3
    812    816    828    829     1  0.0000000  0.6508444  3
    812    816    828    830     1  0.0000000  0.6508444  3
    812    819    822    823     1  0.0000000  0.6508444  3
    812    819    822    824     1  0.0000000  0.6508444  3
    813    812    816    817     1  0.0000000  1.2552000  3
    813    812    816    818     1  0.0000000  1.2552000  3
    813    812    819    820     1  0.0000000  1.2552000  3
    813    812    819    821     1  0.0000000  1.2552000  3
    813    825    837    838     1  0.0000000  0.6508444  3
    813    825    837    839     1  0.0000000  0.6508444  3
    814    813    812    816     1  0.0000000  1.2552000  3
    814    813    812    819     1  0.0000000  1.2552000  3
    814    813    825    837     1  0.0000000  0.6508444  3
    814    813    825    826     1  0.0000000  0.6508444  3
    814    813    825    827     1  0.0000000  0.6508444  3
    815    813    812    816     1  0.0000000  1.2552000  3
    815    813    812    819     1  0.0000000  1.2552000  3
    815    813    825    837     1  0.0000000  0.6508444  3
    815    813    825    826     1  0.0000000  0.6508444  3
    815    813    825    827     1  0.0000000  0.6508444  3
    816    812    819    820     1  0.0000000  1.2552000  3
    816    812    819    821     1  0.0000000  1.2552000  3
    816    828    834    835     1  0.0000000  0.6508444  3
    816    828    834    836     1  0.0000000  0.6508444  3
    817    816    812    819     1  0.0000000  1.2552000  3
    817    816    828    834     1  0.0000000  0.6508444  3
    817    816    828    829     1  0.0000000  0.6508444  3
    817    816    828    830     1  0.0000000  0.6508444  3
    818    816    812    819     1  0.0000000  1.2552000  3
    818    816    828    834     1  0.0000000  0.6508444  3
    818    816    828    829     1  0.0000000  0.6508444  3
    818    816    828    830     1  0.0000000  0.6508444  3
    819    822    831    832     1  0.0000000  0.6508444  3
    819    822    831    833     1  0.0000000  0.6508444  3
    820    819    822    831     1  0.0000000  0.6508444  3
    820    819    822    823     1  0.0000000  0.6508444  3
    820    819    822    824     1  0.0000000  0.6508444  3
    821    819    822    831     1  0.0000000  0.6508444  3
    821    819    822    823     1  0.0000000  0.6508444  3
    821    819    822    824     1  0.0000000  0.6508444  3
    823    822    831    840     1  0.0000000  1.0460000  1
    823    822    831    840     1  0.0000000  0.0000000  3
    823    822    831    832     1  0.0000000  0.6508444  3
    823    822    831    833     1  0.0000000  0.6508444  3
    824    822    831    840     1  0.0000000  1.0460000  1
    824    822    831    840     1  0.0000000  0.0000000  3
    824    822    831    832     1  0.0000000  0.6508444  3
    824    822    831    833     1  0.0000000  0.6508444  3
    826    825    837   1739     1  0.0000000  1.0460000  1
    826    825    837   1739     1  0.0000000  0.0000000  3
    826    825    837    838     1  0.0000000  0.6508444  3
    826    825    837    839     1  0.0000000  0.6508444  3
    827    825    837   1739     1  0.0000000  1.0460000  1
    827    825    837   1739     1  0.0000000  0.0000000  3
    827    825    837    838     1  0.0000000  0.6508444  3
    827    825    837    839     1  0.0000000  0.6508444  3
    829    828    834   1710     1  0.0000000  1.0460000  1
    829    828    834   1710     1  0.0000000  0.0000000  3
    829    828    834    835     1  0.0000000  0.6508444  3
    829    828    834    836     1  0.0000000  0.6508444  3
    830    828    834   1710     1  0.0000000  1.0460000  1
    830    828    834   1710     1  0.0000000  0.0000000  3
    830    828    834    835     1  0.0000000  0.6508444  3
    830    828    834    836     1  0.0000000  0.6508444  3
    834   1710   1701   1702     1  0.0000000  1.6038667  3
    834   1710   1701   1703     1  0.0000000  1.6038667  3
    835    834   1710   1701     1  0.0000000  1.6038667  3
    836    834   1710   1701     1  0.0000000  1.6038667  3
    837   1739   1730   1731     1  0.0000000  1.6038667  3
    837   1739   1730   1732     1  0.0000000  1.6038667  3
    838    837   1739   1730     1  0.0000000  1.6038667  3
    839    837   1739   1730     1  0.0000000  1.6038667  3
    841    842    854    855     1  0.0000000  0.6508444  3
    841    842    854    856     1  0.0000000  0.6508444  3
    841    845    857    858     1  0.0000000  0.6508444  3
    841    845    857    859     1  0.0000000  0.6508444  3
    841    848    851    852     1  0.0000000  0.6508444  3
    841    848    851    853     1  0.0000000  0.6508444  3
    842    841    845    846     1  0.0000000  1.2552000  3
    842    841    845    847     1  0.0000000  1.2552000  3
    842    841    848    849     1  0.0000000  1.2552000  3
    842    841    848    850     1  0.0000000  1.2552000  3
    842    854    866    867     1  0.0000000  0.6508444  3
    842    854    866    868     1  0.0000000  0.6508444  3
    843    842    841    845     1  0.0000000  1.2552000  3
    843    842    841    848     1  0.0000000  1.2552000  3
    843    842    854    866     1  0.0000000  0.6508444  3
    843    842    854    855     1  0.0000000  0.6508444  3
    843    842    854    856     1  0.0000000  0.6508444  3
    844    842    841    845     1  0.0000000  1.2552000  3
    844    842    841    848     1  0.0000000  1.2552000  3
    844    842    854    866     1  0.0000000  0.6508444  3
    844    842    854    855     1  0.0000000  0.6508444  3
    844    842    854    856     1  0.0000000  0.6508444  3
    845    841    848    849     1  0.0000000  1.2552000  3
    845    841    848    850     1  0.0000000  1.2552000  3
    845    857    863    864     1  0.0000000  0.6508444  3
    845    857    863    865     1  0.0000000  0.6508444  3
    846    845    841    848     1  0.0000000  1.2552000  3
    846    845    857    863     1  0.0000000  0.6508444  3
    846    845    857    858     1  0.0000000  0.6508444  3
    846    845    857    859     1  0.0000000  0.6508444  3
    847    845    841    848     1  0.0000000  1.2552000  3
    847    845    857    863     1  0.0000000  0.6508444  3
    847    845    857    858     1  0.0000000  0.6508444  3
    847    845    857    859     1  0.0000000  0.6508444  3
    848    851    860    861     1  0.0000000  0.6508444  3
    848    851    860    862     1  0.0000000  0.6508444  3
    849    848    851    860     1  0.0000000  0.6508444  3
    849    848    851    852     1  0.0000000  0.6508444  3
    849    848    851    853     1  0.0000000  0.6508444  3
    850    848    851    860     1  0.0000000  0.6508444  3
    850    848    851    852     1  0.0000000  0.6508444  3
    850    848    851    853     1  0.0000000  0.6508444  3
    852    851    860    869     1  0.0000000  1.0460000  1
    852    851    860    869     1  0.0000000  0.0000000  3
    852    851    860    861     1  0.0000000  0.6508444  3
    852    851    860    862     1  0.0000000  0.6508444  3
    853    851    860    869     1  0.0000000  1.0460000  1
    853    851    860    869     1  0.0000000  0.0000000  3
    853    851    860    861     1  0.0000000  0.6508444  3
    853    851    860    862     1  0.0000000  0.6508444  3
    855    854    866   1797     1  0.0000000  1.0460000  1
    855    854    866   1797     1  0.0000000  0.0000000  3
    855    854    866    867     1  0.0000000  0.6508444  3
    855    854    866    868     1  0.0000000  0.6508444  3
    856    854    866   1797     1  0.0000000  1.0460000  1
    856    854    866   1797     1  0.0000000  0.0000000  3
    856    854    866    867     1  0.0000000  0.6508444  3
    856    854    866    868     1  0.0000000  0.6508444  3
    858    857    863   1768     1  0.0000000  1.0460000  1
    858    857    863   1768     1  0.0000000  0.0000000  3
    858    857    863    864     1  0.0000000  0.6508444  3
    858    857    863    865     1  0.0000000  0.6508444  3
    859    857    863   1768     1  0.0000000  1.0460000  1
    859    857    863   1768     1  0.0000000  0.0000000  3
    859    857    863    864     1  0.0000000  0.6508444  3
    859    857    863    865     1  0.0000000  0.6508444  3
    863   1768   1759   1760     1  0.0000000  1.6038667  3
    863   1768   1759   1761     1  0.0000000  1.6038667  3
    864    863   1768   1759     1  0.0000000  1.6038667  3
    865    863   1768   1759     1  0.0000000  1.6038667  3
    866   1797   1788   1789     1  0.0000000  1.6038667  3
    866   1797   1788   1790     1  0.0000000  1.6038667  3
    867    866   1797   1788     1  0.0000000  1.6038667  3
    868    866   1797   1788     1  0.0000000  1.6038667  3
    870    871    883    884     1  0.0000000  0.6508444  3
    870    871    883    885     1  0.0000000  0.6508444  3
    870    874    886    887     1  0.0000000  0.6508444  3
    870    874    886    888     1  0.0000000  0.6508444  3
    870    877    880    881     1  0.0000000  0.6508444  3
    870    877    880    882     1  0.0000000  0.6508444  3
    871    870    874    875     1  0.0000000  1.2552000  3
    871    870    874    876     1  0.0000000  1.2552000  3
    871    870    877    878     1  0.0000000  1.2552000  3
    871    870    877    879     1  0.0000000  1.2552000  3
    871    883    895    896     1  0.0000000  0.6508444  3
    871    883    895    897     1  0.0000000  0.6508444  3
    872    871    870    874     1  0.0000000  1.2552000  3
    872    871    870    877     1  0.0000000  1.2552000  3
    872    871    883    895     1  0.0000000  0.6508444  3
    872    871    883    884     1  0.0000000  0.6508444  3
    872    871    883    885     1  0.0000000  0.6508444  3
    873    871    870    874     1  0.0000000  1.2552000  3
    873    871    870    877     1  0.0000000  1.2552000  3
    873    871    883    895     1  0.0000000  0.6508444  3
    873    871    883    884     1  0.0000000  0.6508444  3
    873    871    883    885     1  0.0000000  0.6508444  3
    874    870    877    878     1  0.0000000  1.2552000  3
    874    870    877    879     1  0.0000000  1.2552000  3
    874    886    892    893     1  0.0000000  0.6508444  3
    874    886    892    894     1  0.0000000  0.6508444  3
    875    874    870    877     1  0.0000000  1.2552000  3
    875    874    886    892     1  0.0000000  0.6508444  3
    875    874    886    887     1  0.0000000  0.6508444  3
    875    874    886    888     1  0.0000000  0.6508444  3
    876    874    870    877     1  0.0000000  1.2552000  3
    876    874    886    892     1  0.0000000  0.6508444  3
    876    874    886    887     1  0.0000000  0.6508444  3
    876    874    886    888     1  0.0000000  0.6508444  3
    877    880    889    890     1  0.0000000  0.6508444  3
    877    880    889    891     1  0.0000000  0.6508444  3
    878    877    880    889     1  0.0000000  0.6508444  3
    878    877    880    881     1  0.0000000  0.6508444  3
    878    877    880    882     1  0.0000000  0.6508444  3
    879    877    880    889     1  0.0000000  0.6508444  3
    879    877    880    881     1  0.0000000  0.6508444  3
    879    877    880    882     1  0.0000000  0.6508444  3
    881    880    889    898     1  0.0000000  1.0460000  1
    881    880    889    898     1  0.0000000  0.0000000  3
    881    880    889    890     1  0.0000000  0.6508444  3
    881    880    889    891     1  0.0000000  0.6508444  3
    882    880    889    898     1  0.0000000  1.0460000  1
    882    880    889    898     1  0.0000000  0.0000000  3
    882    880    889    890     1  0.0000000  0.6508444  3
    882    880    889    891     1  0.0000000  0.6508444  3
    884    883    895   1855     1  0.0000000  1.0460000  1
    884    883    895   1855     1  0.0000000  0.0000000  3
    884    883    895    896     1  0.0000000  0.6508444  3
    884    883    895    897     1  0.0000000  0.6508444  3
    885    883    895   1855     1  0.0000000  1.0460000  1
    885    883    895   1855     1  0.0000000  0.0000000  3
    885    883    895    896     1  0.0000000  0.6508444  3
    885    883    895    897     1  0.0000000  0.6508444  3
    887    886    892   1826     1  0.0000000  1.0460000  1
    887    886    892   1826     1  0.0000000  0.0000000  3
    887    886    892    893     1  0.0000000  0.6508444  3
    887    886    892    894     1  0.0000000  0.6508444  3
    888    886    892   1826     1  0.0000000  1.0460000  1
    888    886    892   1826     1  0.0000000  0.0000000  3
    888    886    892    893     1  0.0000000  0.6508444  3
    888    886    892    894     1  0.0000000  0.6508444  3
    892   1826   1817   1818     1  0.0000000  1.6038667  3
    892   1826   1817   1819     1  0.0000000  1.6038667  3
    893    892   1826   1817     1  0.0000000  1.6038667  3
    894    892   1826   1817     1  0.0000000  1.6038667  3
    895   1855   1846   1847     1  0.0000000  1.6038667  3
    895   1855   1846   1848     1  0.0000000  1.6038667  3
    896    895   1855   1846     1  0.0000000  1.6038667  3
    897    895   1855   1846     1  0.0000000  1.6038667  3
    899    900    912    913     1  0.0000000  0.6508444  3
    899    900    912    914     1  0.0000000  0.6508444  3
    899    903    915    916     1  0.0000000  0.6508444  3
    899    903    915    917     1  0.0000000  0.6508444  3
    899    906    909    910     1  0.0000000  0.6508444  3
    899    906    909    911     1  0.0000000  0.6508444  3
    900    899    903    904     1  0.0000000  1.2552000  3
    900    899    903    905     1  0.0000000  1.2552000  3
    900    899    906    907     1  0.0000000  1.2552000  3
    900    899    906    908     1  0.0000000  1.2552000  3
    900    912    924    925     1  0.0000000  0.6508444  3
    900    912    924    926     1  0.0000000  0.6508444  3
    901    900    899    903     1  0.0000000  1.2552000  3
    901    900    899    906     1  0.0000000  1.2552000  3
    901    900    912    924     1  0.0000000  0.6508444  3
    901    900    912    913     1  0.0000000  0.6508444  3
    901    900    912    914     1  0.0000000  0.6508444  3
    902    900    899    903     1  0.0000000  1.2552000  3
    902    900    899    906     1  0.0000000  1.2552000  3
    902    900    912    924     1  0.0000000  0.6508444  3
    902    900    912    913     1  0.0000000  0.6508444  3
    902    900    912    914     1  0.0000000  0.6508444  3
    903    899    906    907     1  0.0000000  1.2552000  3
    903    899    906    908     1  0.0000000  1.2552000  3
    903    915    921    922     1  0.0000000  0.6508444  3
    903    915    921    923     1  0.0000000  0.6508444  3
    904    903    899    906     1  0.0000000  1.2552000  3
    904    903    915    921     1  0.0000000  0.6508444  3
    904    903    915    916     1  0.0000000  0.6508444  3
    904    903    915    917     1  0.0000000  0.6508444  3
    905    903    899    906     1  0.0000000  1.2552000  3
    905    903    915    921     1  0.0000000  0.6508444  3
    905    903    915    916     1  0.0000000  0.6508444  3
    905    903    915    917     1  0.0000000  0.6508444  3
    906    909    918    919     1  0.0000000  0.6508444  3
    906    909    918    920     1  0.0000000  0.6508444  3
    907    906    909    918     1  0.0000000  0.6508444  3
    907    906    909    910     1  0.0000000  0.6508444  3
    907    906    909    911     1  0.0000000  0.6508444  3
    908    906    909    918     1  0.0000000  0.6508444  3
    908    906    909    910     1  0.0000000  0.6508444  3
    908    906    909    911     1  0.0000000  0.6508444  3
    910    909    918    927     1  0.0000000  1.0460000  1
    910    909    918    927     1  0.0000000  0.0000000  3
    910    909    918    919     1  0.0000000  0.6508444  3
    910    909    918    920     1  0.0000000  0.6508444  3
    911    909    918    927     1  0.0000000  1.0460000  1
    911    909    918    927     1  0.0000000  0.0000000  3
    911    909    918    919     1  0.0000000  0.6508444  3
    911    909    918    920     1  0.0000000  0.6508444  3
    913    912    924   1913     1  0.0000000  1.0460000  1
    913    912    924   1913     1  0.0000000  0.0000000  3
    913    912    924    925     1  0.0000000  0.6508444  3
    913    912    924    926     1  0.0000000  0.6508444  3
    914    912    924   1913     1  0.0000000  1.0460000  1
    914    912    924   1913     1  0.0000000  0.0000000  3
    914    912    924    925     1  0.0000000  0.6508444  3
    914    912    924    926     1  0.0000000  0.6508444  3
    916    915    921   1884     1  0.0000000  1.0460000  1
    916    915    921   1884     1  0.0000000  0.0000000  3
    916    915    921    922     1  0.0000000  0.6508444  3
    916    915    921    923     1  0.0000000  0.6508444  3
    917    915    921   1884     1  0.0000000  1.0460000  1
    917    915    921   1884     1  0.0000000  0.0000000  3
    917    915    921    922     1  0.0000000  0.6508444  3
    917    915    921    923     1  0.0000000  0.6508444  3
    921   1884   1875   1876     1  0.0000000  1.6038667  3
    921   1884   1875   1877     1  0.0000000  1.6038667  3
    922    921   1884   1875     1  0.0000000  1.6038667  3
    923    921   1884   1875     1  0.0000000  1.6038667  3
    924   1913   1904   1905     1  0.0000000  1.6038667  3
    924   1913   1904   1906     1  0.0000000  1.6038667  3
    925    924   1913   1904     1  0.0000000  1.6038667  3
    926    924   1913   1904     1  0.0000000  1.6038667  3
    928    929    941    942     1  0.0000000  0.6508444  3
    928    929    941    943     1  0.0000000  0.6508444  3
    928    932    944    945     1  0.0000000  0.6508444  3
    928    932    944    946     1  0.0000000  0.6508444  3
    928    935    938    939     1  0.0000000  0.6508444  3
    928    935    938    940     1  0.0000000  0.6508444  3
    929    928    932    933     1  0.0000000  1.2552000  3
    929    928    932    934     1  0.0000000  1.2552000  3
    929    928    935    936     1  0.0000000  1.2552000  3
    929    928    935    937     1  0.0000000  1.2552000  3
    929    941    953    954     1  0.0000000  0.6508444  3
    929    941    953    955     1  0.0000000  0.6508444  3
    930    929    928    932     1  0.0000000  1.2552000  3
    930    929    928    935     1  0.0000000  1.2552000  3
    930    929    941    953     1  0.0000000  0.6508444  3
    930    929    941    942     1  0.0000000  0.6508444  3
    930    929    941    943     1  0.0000000  0.6508444  3
    931    929    928    932     1  0.0000000  1.2552000  3
    931    929    928    935     1  0.0000000  1.2552000  3
    931    929    941    953     1  0.0000000  0.6508444  3
    931    929    941    942     1  0.0000000  0.6508444  3
    931    929    941    943     1  0.0000000  0.6508444  3
    932    928    935    936     1  0.0000000  1.2552000  3
    932    928    935    937     1  0.0000000  1.2552000  3
    932    944    950    951     1  0.0000000  0.6508444  3
    932    944    950    952     1  0.0000000  0.6508444  3
    933    932    928    935     1  0.0000000  1.2552000  3
    933    932    944    950     1  0.0000000  0.6508444  3
    933    932    944    945     1  0.0000000  0.6508444  3
    933    932    944    946     1  0.0000000  0.6508444  3
    934    932    928    935     1  0.0000000  1.2552000  3
    934    932    944    950     1  0.0000000  0.6508444  3
    934    932    944    945     1  0.0000000  0.6508444  3
    934    932    944    946     1  0.0000000  0.6508444  3
    935    938    947    948     1  0.0000000  0.6508444  3
    935    938    947    949     1  0.0000000  0.6508444  3
    936    935    938    947     1  0.0000000  0.6508444  3
    936    935    938    939     1  0.0000000  0.6508444  3
    936    935    938    940     1  0.0000000  0.6508444  3
    937    935    938    947     1  0.0000000  0.6508444  3
    937    935    938    939     1  0.0000000  0.6508444  3
    937    935    938    940     1  0.0000000  0.6508444  3
    939    938    947    956     1  0.0000000  1.0460000  1
    939    938    947    956     1  0.0000000  0.0000000  3
    939    938    947    948     1  0.0000000  0.6508444  3
    939    938    947    949     1  0.0000000  0.6508444  3
    940    938    947    956     1  0.0000000  1.0460000  1
    940    938    947    956     1  0.0000000  0.0000000  3
    940    938    947    948     1  0.0000000  0.6508444  3
    940    938    947    949     1  0.0000000  0.6508444  3
    942    941    953   1971     1  0.0000000  1.0460000  1
    942    941    953   1971     1  0.0000000  0.0000000  3
    942    941    953    954     1  0.0000000  0.6508444  3
    942    941    953    955     1  0.0000000  0.6508444  3
    943    941    953   1971     1  0.0000000  1.0460000  1
    943    941    953   1971     1  0.0000000  0.0000000  3
    943    941    953    954     1  0.0000000  0.6508444  3
    943    941    953    955     1  0.0000000  0.6508444  3
    945    944    950   1942     1  0.0000000  1.0460000  1
    945    944    950   1942     1  0.0000000  0.0000000  3
    945    944    950    951     1  0.0000000  0.6508444  3
    945    944    950    952     1  0.0000000  0.6508444  3
    946    944    950   1942     1  0.0000000  1.0460000  1
    946    944    950   1942     1  0.0000000  0.0000000  3
    946    944    950    951     1  0.0000000  0.6508444  3
    946    944    950    952     1  0.0000000  0.6508444  3
    950   1942   1933   1934     1  0.0000000  1.6038667  3
    950   1942   1933   1935     1  0.0000000  1.6038667  3
    951    950   1942   1933     1  0.0000000  1.6038667  3
    952    950   1942   1933     1  0.0000000  1.6038667  3
    953   1971   1962   1963     1  0.0000000  1.6038667  3
    953   1971   1962   1964     1  0.0000000  1.6038667  3
    954    953   1971   1962     1  0.0000000  1.6038667  3
    955    953   1971   1962     1  0.0000000  1.6038667  3
    957    958    970    971     1  0.0000000  0.6508444  3
    957    958    970    972     1  0.0000000  0.6508444  3
    957    961    973    974     1  0.0000000  0.6508444  3
    957    961    973    975     1  0.0000000  0.6508444  3
    957    964    967    968     1  0.0000000  0.6508444  3
    957    964    967    969     1  0.0000000  0.6508444  3
    958    957    961    962     1  0.0000000  1.2552000  3
    958    957    961    963     1  0.0000000  1.2552000  3
    958    957    964    965     1  0.0000000  1.2552000  3
    958    957    964    966     1  0.0000000  1.2552000  3
    958    970    982    983     1  0.0000000  0.6508444  3
    958    970    982    984     1  0.0000000  0.6508444  3
    959    958    957    961     1  0.0000000  1.2552000  3
    959    958    957    964     1  0.0000000  1.2552000  3
    959    958    970    982     1  0.0000000  0.6508444  3
    959    958    970    971     1  0.0000000  0.6508444  3
    959    958    970    972     1  0.0000000  0.6508444  3
    960    958    957    961     1  0.0000000  1.2552000  3
    960    958    957    964     1  0.0000000  1.2552000  3
    960    958    970    982     1  0.0000000  0.6508444  3
    960    958    970    971     1  0.0000000  0.6508444  3
    960    958    970    972     1  0.0000000  0.6508444  3
    961    957    964    965     1  0.0000000  1.2552000  3
    961    957    964    966     1  0.0000000  1.2552000  3
    961    973    979    980     1  0.0000000  0.6508444  3
    961    973    979    981     1  0.0000000  0.6508444  3
    962    961    957    964     1  0.0000000  1.2552000  3
    962    961    973    979     1  0.0000000  0.6508444  3
    962    961    973    974     1  0.0000000  0.6508444  3
    962    961    973    975     1  0.0000000  0.6508444  3
    963    961    957    964     1  0.0000000  1.2552000  3
    963    961    973    979     1  0.0000000  0.6508444  3
    963    961    973    974     1  0.0000000  0.6508444  3
    963    961    973    975     1  0.0000000  0.6508444  3
    964    967    976    977     1  0.0000000  0.6508444  3
    964    967    976    978     1  0.0000000  0.6508444  3
    965    964    967    976     1  0.0000000  0.6508444  3
    965    964    967    968     1  0.0000000  0.6508444  3
    965    964    967    969     1  0.0000000  0.6508444  3
    966    964    967    976     1  0.0000000  0.6508444  3
    966    964    967    968     1  0.0000000  0.6508444  3
    966    964    967    969     1  0.0000000  0.6508444  3
    968    967    976    985     1  0.0000000  1.0460000  1
    968    967    976    985     1  0.0000000  0.0000000  3
    968    967    976    977     1  0.0000000  0.6508444  3
    968    967    976    978     1  0.0000000  0.6508444  3
    969    967    976    985     1  0.0000000  1.0460000  1
    969    967    976    985     1  0.0000000  0.0000000  3
    969    967    976    977     1  0.0000000  0.6508444  3
    969    967    976    978     1  0.0000000  0.6508444  3
    971    970    982   2029     1  0.0000000  1.0460000  1
    971    970    982   2029     1  0.0000000  0.0000000  3
    971    970    982    983     1  0.0000000  0.6508444  3
    971    970    982    984     1  0.0000000  0.6508444  3
    972    970    982   2029     1  0.0000000  1.0460000  1
    972    970    982   2029     1  0.0000000  0.0000000  3
    972    970    982    983     1  0.0000000  0.6508444  3
    972    970    982    984     1  0.0000000  0.6508444  3
    974    973    979   2000     1  0.0000000  1.0460000  1
    974    973    979   2000     1  0.0000000  0.0000000  3
    974    973    979    980     1  0.0000000  0.6508444  3
    974    973    979    981     1  0.0000000  0.6508444  3
    975    973    979   2000     1  0.0000000  1.0460000  1
    975    973    979   2000     1  0.0000000  0.0000000  3
    975    973    979    980     1  0.0000000  0.6508444  3
    975    973    979    981     1  0.0000000  0.6508444  3
    979   2000   1991   1992     1  0.0000000  1.6038667  3
    979   2000   1991   1993     1  0.0000000  1.6038667  3
    980    979   2000   1991     1  0.0000000  1.6038667  3
    981    979   2000   1991     1  0.0000000  1.6038667  3
    982   2029   2020   2021     1  0.0000000  1.6038667  3
    982   2029   2020   2022     1  0.0000000  1.6038667  3
    983    982   2029   2020     1  0.0000000  1.6038667  3
    984    982   2029   2020     1  0.0000000  1.6038667  3
    986    987    999   1000     1  0.0000000  0.6508444  3
    986    987    999   1001     1  0.0000000  0.6508444  3
    986    990   1002   1003     1  0.0000000  0.6508444  3
    986    990   1002   1004     1  0.0000000  0.6508444  3
    986    993    996    997     1  0.0000000  0.6508444  3
    986    993    996    998     1  0.0000000  0.6508444  3
    987    986    990    991     1  0.0000000  1.2552000  3
    987    986    990    992     1  0.0000000  1.2552000  3
    987    986    993    994     1  0.0000000  1.2552000  3
    987    986    993    995     1  0.0000000  1.2552000  3
    987    999   1011   1012     1  0.0000000  0.6508444  3
    987    999   1011   1013     1  0.0000000  0.6508444  3
    988    987    986    990     1  0.0000000  1.2552000  3
    988    987    986    993     1  0.0000000  1.2552000  3
    988    987    999   1011     1  0.0000000  0.6508444  3
    988    987    999   1000     1  0.0000000  0.6508444  3
    988    987    999   1001     1  0.0000000  0.6508444  3
    989    987    986    990     1  0.0000000  1.2552000  3
    989    987    986    993     1  0.0000000  1.2552000  3
    989    987    999   1011     1  0.0000000  0.6508444  3
    989    987    999   1000     1  0.0000000  0.6508444  3
    989    987    999   1001     1  0.0000000  0.6508444  3
    990    986    993    994     1  0.0000000  1.2552000  3
    990    986    993    995     1  0.0000000  1.2552000  3
    990   1002   1008   1009     1  0.0000000  0.6508444  3
    990   1002   1008   1010     1  0.0000000  0.6508444  3
    991    990    986    993     1  0.0000000  1.2552000  3
    991    990   1002   1008     1  0.0000000  0.6508444  3
    991    990   1002   1003     1  0.0000000  0.6508444  3
    991    990   1002   1004     1  0.0000000  0.6508444  3
    992    990    986    993     1  0.0000000  1.2552000  3
    992    990   1002   1008     1  0.0000000  0.6508444  3
    992    990   1002   1003     1  0.0000000  0.6508444  3
    992    990   1002   1004     1  0.0000000  0.6508444  3
    993    996   1005   1006     1  0.0000000  0.6508444  3
    993    996   1005   1007     1  0.0000000  0.6508444  3
    994    993    996   1005     1  0.0000000  0.6508444  3
    994    993    996    997     1  0.0000000  0.6508444  3
    994    993    996    998     1  0.0000000  0.6508444  3
    995    993    996   1005     1  0.0000000  0.6508444  3
    995    993    996    997     1  0.0000000  0.6508444  3
    995    993    996    998     1  0.0000000  0.6508444  3
    997    996   1005   1014     1  0.0000000  1.0460000  1
    997    996   1005   1014     1  0.0000000  0.0000000  3
    997    996   1005   1006     1  0.0000000  0.6508444  3
    997    996   1005   1007     1  0.0000000  0.6508444  3
    998    996   1005   1014     1  0.0000000  1.0460000  1
    998    996   1005   1014     1  0.0000000  0.0000000  3
    998    996   1005   1006     1  0.0000000  0.6508444  3
    998    996   1005   1007     1  0.0000000  0.6508444  3
   1000    999   1011   2087     1  0.0000000  1.0460000  1
   1000    999   1011   2087     1  0.0000000  0.0000000  3
   1000    999   1011   1012     1  0.0000000  0.6508444  3
   1000    999   1011   1013     1  0.0000000  0.6508444  3
   1001    999   1011   2087     1  0.0000000  1.0460000  1
   1001    999   1011   2087     1  0.0000000  0.0000000  3
   1001    999   1011   1012     1  0.0000000  0.6508444  3
   1001    999   1011   1013     1  0.0000000  0.6508444  3
   1003   1002   1008   2058     1  0.0000000  1.0460000  1
   1003   1002   1008   2058     1  0.0000000  0.0000000  3
   1003   1002   1008   1009     1  0.0000000  0.6508444  3
   1003   1002   1008   1010     1  0.0000000  0.6508444  3
   1004   1002   1008   2058     1  0.0000000  1.0460000  1
   1004   1002   1008   2058     1  0.0000000  0.0000000  3
   1004   1002   1008   1009     1  0.0000000  0.6508444  3
   1004   1002   1008   1010     1  0.0000000  0.6508444  3
   1008   2058   2049   2050     1  0.0000000  1.6038667  3
   1008   2058   2049   2051     1  0.0000000  1.6038667  3
   1009   1008   2058   2049     1  0.0000000  1.6038667  3
   1010   1008   2058   2049     1  0.0000000  1.6038667  3
   1011   2087   2078   2079     1  0.0000000  1.6038667  3
   1011   2087   2078   2080     1  0.0000000  1.6038667  3
   1012   1011   2087   2078     1  0.0000000  1.6038667  3
   1013   1011   2087   2078     1  0.0000000  1.6038667  3
   1015   1016   1028   1029     1  0.0000000  0.6508444  3
   1015   1016   1028   1030     1  0.0000000  0.6508444  3
   1015   1019   1031   1032     1  0.0000000  0.6508444  3
   1015   1019   1031   1033     1  0.0000000  0.6508444  3
   1015   1022   1025   1026     1  0.0000000  0.6508444  3
   1015   1022   1025   1027     1  0.0000000  0.6508444  3
   1016   1015   1019   1020     1  0.0000000  1.2552000  3
   1016   1015   1019   1021     1  0.0000000  1.2552000  3
   1016   1015   1022   1023     1  0.0000000  1.2552000  3
   1016   1015   1022   1024     1  0.0000000  1.2552000  3
   1016   1028   1040   1041     1  0.0000000  0.6508444  3
   1016   1028   1040   1042     1  0.0000000  0.6508444  3
   1017   1016   1015   1019     1  0.0000000  1.2552000  3
   1017   1016   1015   1022     1  0.0000000  1.2552000  3
   1017   1016   1028   1040     1  0.0000000  0.6508444  3
   1017   1016   1028   1029     1  0.0000000  0.6508444  3
   1017   1016   1028   1030     1  0.0000000  0.6508444  3
   1018   1016   1015   1019     1  0.0000000  1.2552000  3
   1018   1016   1015   1022     1  0.0000000  1.2552000  3
   1018   1016   1028   1040     1  0.0000000  0.6508444  3
   1018   1016   1028   1029     1  0.0000000  0.6508444  3
   1018   1016   1028   1030     1  0.0000000  0.6508444  3
   1019   1015   1022   1023     1  0.0000000  1.2552000  3
   1019   1015   1022   1024     1  0.0000000  1.2552000  3
   1019   1031   1037   1038     1  0.0000000  0.6508444  3
   1019   1031   1037   1039     1  0.0000000  0.6508444  3
   1020   1019   1015   1022     1  0.0000000  1.2552000  3
   1020   1019   1031   1037     1  0.0000000  0.6508444  3
   1020   1019   1031   1032     1  0.0000000  0.6508444  3
   1020   1019   1031   1033     1  0.0000000  0.6508444  3
   1021   1019   1015   1022     1  0.0000000  1.2552000  3
   1021   1019   1031   1037     1  0.0000000  0.6508444  3
   1021   1019   1031   1032     1  0.0000000  0.6508444  3
   1021   1019   1031   1033     1  0.0000000  0.6508444  3
   1022   1025   1034   1035     1  0.0000000  0.6508444  3
   1022   1025   1034   1036     1  0.0000000  0.6508444  3
   1023   1022   1025   1034     1  0.0000000  0.6508444  3
   1023   1022   1025   1026     1  0.0000000  0.6508444  3
   1023   1022   1025   1027     1  0.0000000  0.6508444  3
   1024   1022   1025   1034     1  0.0000000  0.6508444  3
   1024   1022   1025   1026     1  0.0000000  0.6508444  3
   1024   1022   1025   1027     1  0.0000000  0.6508444  3
   1026   1025   1034   1043     1  0.0000000  1.0460000  1
   1026   1025   1034   1043     1  0.0000000  0.0000000  3
   1026   1025   1034   1035     1  0.0000000  0.6508444  3
   1026   1025   1034   1036     1  0.0000000  0.6508444  3
   1027   1025   1034   1043     1  0.0000000  1.0460000  1
   1027   1025   1034   1043     1  0.0000000  0.0000000  3
   1027   1025   1034   1035     1  0.0000000  0.6508444  3
   1027   1025   1034   1036     1  0.0000000  0.6508444  3
   1029   1028   1040   2145     1  0.0000000  1.0460000  1
   1029   1028   1040   2145     1  0.0000000  0.0000000  3
   1029   1028   1040   1041     1  0.0000000  0.6508444  3
   1029   1028   1040   1042     1  0.0000000  0.6508444  3
   1030   1028   1040   2145     1  0.0000000  1.0460000  1
   1030   1028   1040   2145     1  0.0000000  0.0000000  3
   1030   1028   1040   1041     1  0.0000000  0.6508444  3
   1030   1028   1040   1042     1  0.0000000  0.6508444  3
   1032   1031   1037   2116     1  0.0000000  1.0460000  1
   1032   1031   1037   2116     1  0.0000000  0.0000000  3
   1032   1031   1037   1038     1  0.0000000  0.6508444  3
   1032   1031   1037   1039     1  0.0000000  0.6508444  3
   1033   1031   1037   2116     1  0.0000000  1.0460000  1
   1033   1031   1037   2116     1  0.0000000  0.0000000  3
   1033   1031   1037   1038     1  0.0000000  0.6508444  3
   1033   1031   1037   1039     1  0.0000000  0.6508444  3
   1037   2116   2107   2108     1  0.0000000  1.6038667  3
   1037   2116   2107   2109     1  0.0000000  1.6038667  3
   1038   1037   2116   2107     1  0.0000000  1.6038667  3
   1039   1037   2116   2107     1  0.0000000  1.6038667  3
   1040   2145   2136   2137     1  0.0000000  1.6038667  3
   1040   2145   2136   2138     1  0.0000000  1.6038667  3
   1041   1040   2145   2136     1  0.0000000  1.6038667  3
   1042   1040   2145   2136     1  0.0000000  1.6038667  3
   1044   1045   1057   1058     1  0.0000000  0.6508444  3
   1044   1045   1057   1059     1  0.0000000  0.6508444  3
   1044   1048   1060   1061     1  0.0000000  0.6508444  3
   1044   1048   1060   1062     1  0.0000000  0.6508444  3
   1044   1051   1054   1055     1  0.0000000  0.6508444  3
   1044   1051   1054   1056     1  0.0000000  0.6508444  3
   1045   1044   1048   1049     1  0.0000000  1.2552000  3
   1045   1044   1048   1050     1  0.0000000  1.2552000  3
   1045   1044   1051   1052     1  0.0000000  1.2552000  3
   1045   1044   1051   1053     1  0.0000000  1.2552000  3
   1045   1057   1069   1070     1  0.0000000  0.6508444  3
   1045   1057   1069   1071     1  0.0000000  0.6508444  3
   1046   1045   1044   1048     1  0.0000000  1.2552000  3
   1046   1045   1044   1051     1  0.0000000  1.2552000  3
   1046   1045   1057   1069     1  0.0000000  0.6508444  3
   1046   1045   1057   1058     1  0.0000000  0.6508444  3
   1046   1045   1057   1059     1  0.0000000  0.6508444  3
   1047   1045   1044   1048     1  0.0000000  1.2552000  3
   1047   1045   1044   1051     1  0.0000000  1.2552000  3
   1047   1045   1057   1069     1  0.0000000  0.6508444  3
   1047   1045   1057   1058     1  0.0000000  0.6508444  3
   1047   1045   1057   1059     1  0.0000000  0.6508444  3
   1048   1044   1051   1052     1  0.0000000  1.2552000  3
   1048   1044   1051   1053     1  0.0000000  1.2552000  3
   1048   1060   1066   1067     1  0.0000000  0.6508444  3
   1048   1060   1066   1068     1  0.0000000  0.6508444  3
   1049   1048   1044   1051     1  0.0000000  1.2552000  3
   1049   1048   1060   1066     1  0.0000000  0.6508444  3
   1049   1048   1060   1061     1  0.0000000  0.6508444  3
   1049   1048   1060   1062     1  0.0000000  0.6508444  3
   1050   1048   1044   1051     1  0.0000000  1.2552000  3
   1050   1048   1060   1066     1  0.0000000  0.6508444  3
   1050   1048   1060   1061     1  0.0000000  0.6508444  3
   1050   1048   1060   1062     1  0.0000000  0.6508444  3
   1051   1054   1063   1064     1  0.0000000  0.6508444  3
   1051   1054   1063   1065     1  0.0000000  0.6508444  3
   1052   1051   1054   1063     1  0.0000000  0.6508444  3
   1052   1051   1054   1055     1  0.0000000  0.6508444  3
   1052   1051   1054   1056     1  0.0000000  0.6508444  3
   1053   1051   1054   1063     1  0.0000000  0.6508444  3
   1053   1051   1054   1055     1  0.0000000  0.6508444  3
   1053   1051   1054   1056     1  0.0000000  0.6508444  3
   1055   1054   1063   1072     1  0.0000000  1.0460000  1
   1055   1054   1063   1072     1  0.0000000  0.0000000  3
   1055   1054   1063   1064     1  0.0000000  0.6508444  3
   1055   1054   1063   1065     1  0.0000000  0.6508444  3
   1056   1054   1063   1072     1  0.0000000  1.0460000  1
   1056   1054   1063   1072     1  0.0000000  0.0000000  3
   1056   1054   1063   1064     1  0.0000000  0.6508444  3
   1056   1054   1063   1065     1  0.0000000  0.6508444  3
   1058   1057   1069   2203     1  0.0000000  1.0460000  1
   1058   1057   1069   2203     1  0.0000000  0.0000000  3
   1058   1057   1069   1070     1  0.0000000  0.6508444  3
   1058   1057   1069   1071     1  0.0000000  0.6508444  3
   1059   1057   1069   2203     1  0.0000000  1.0460000  1
   1059   1057   1069   2203     1  0.0000000  0.0000000  3
   1059   1057   1069   1070     1  0.0000000  0.6508444  3
   1059   1057   1069   1071     1  0.0000000  0.6508444  3
   1061   1060   1066   2174     1  0.0000000  1.0460000  1
   1061   1060   1066   2174     1  0.0000000  0.0000000  3
   1061   1060   1066   1067     1  0.0000000  0.6508444  3
   1061   1060   1066   1068     1  0.0000000  0.6508444  3
   1062   1060   1066   2174     1  0.0000000  1.0460000  1
   1062   1060   1066   2174     1  0.0000000  0.0000000  3
   1062   1060   1066   1067     1  0.0000000  0.6508444  3
   1062   1060   1066   1068     1  0.0000000  0.6508444  3
   1066   2174   2165   2166     1  0.0000000  1.6038667  3
   1066   2174   2165   2167     1  0.0000000  1.6038667  3
   1067   1066   2174   2165     1  0.0000000  1.6038667  3
   1068   1066   2174   2165     1  0.0000000  1.6038667  3
   1069   2203   2194   2195     1  0.0000000  1.6038667  3
   1069   2203   2194   2196     1  0.0000000  1.6038667  3
   1070   1069   2203   2194     1  0.0000000  1.6038667  3
   1071   1069   2203   2194     1  0.0000000  1.6038667  3
   1073   1074   1086   1087     1  0.0000000  0.6508444  3
   1073   1074   1086   1088     1  0.0000000  0.6508444  3
   1073   1077   1089   1090     1  0.0000000  0.6508444  3
   1073   1077   1089   1091     1  0.0000000  0.6508444  3
   1073   1080   1083   1084     1  0.0000000  0.6508444  3
   1073   1080   1083   1085     1  0.0000000  0.6508444  3
   1074   1073   1077   1078     1  0.0000000  1.2552000  3
   1074   1073   1077   1079     1  0.0000000  1.2552000  3
   1074   1073   1080   1081     1  0.0000000  1.2552000  3
   1074   1073   1080   1082     1  0.0000000  1.2552000  3
   1074   1086   1098   1099     1  0.0000000  0.6508444  3
   1074   1086   1098   1100     1  0.0000000  0.6508444  3
   1075   1074   1073   1077     1  0.0000000  1.2552000  3
   1075   1074   1073   1080     1  0.0000000  1.2552000  3
   1075   1074   1086   1098     1  0.0000000  0.6508444  3
   1075   1074   1086   1087     1  0.0000000  0.6508444  3
   1075   1074   1086   1088     1  0.0000000  0.6508444  3
   1076   1074   1073   1077     1  0.0000000  1.2552000  3
   1076   1074   1073   1080     1  0.0000000  1.2552000  3
   1076   1074   1086   1098     1  0.0000000  0.6508444  3
   1076   1074   1086   1087     1  0.0000000  0.6508444  3
   1076   1074   1086   1088     1  0.0000000  0.6508444  3
   1077   1073   1080   1081     1  0.0000000  1.2552000  3
   1077   1073   1080   1082     1  0.0000000  1.2552000  3
   1077   1089   1095   1096     1  0.0000000  0.6508444  3
   1077   1089   1095   1097     1  0.0000000  0.6508444  3
   1078   1077   1073   1080     1  0.0000000  1.2552000  3
   1078   1077   1089   1095     1  0.0000000  0.6508444  3
   1078   1077   1089   1090     1  0.0000000  0.6508444  3
   1078   1077   1089   1091     1  0.0000000  0.6508444  3
   1079   1077   1073   1080     1  0.0000000  1.2552000  3
   1079   1077   1089   1095     1  0.0000000  0.6508444  3
   1079   1077   1089   1090     1  0.0000000  0.6508444  3
   1079   1077   1089   1091     1  0.0000000  0.6508444  3
   1080   1083   1092   1093     1  0.0000000  0.6508444  3
   1080   1083   1092   1094     1  0.0000000  0.6508444  3
   1081   1080   1083   1092     1  0.0000000  0.6508444  3
   1081   1080   1083   1084     1  0.0000000  0.6508444  3
   1081   1080   1083   1085     1  0.0000000  0.6508444  3
   1082   1080   1083   1092     1  0.0000000  0.6508444  3
   1082   1080   1083   1084     1  0.0000000  0.6508444  3
   1082   1080   1083   1085     1  0.0000000  0.6508444  3
   1084   1083   1092   1101     1  0.0000000  1.0460000  1
   1084   1083   1092   1101     1  0.0000000  0.0000000  3
   1084   1083   1092   1093     1  0.0000000  0.6508444  3
   1084   1083   1092   1094     1  0.0000000  0.6508444  3
   1085   1083   1092   1101     1  0.0000000  1.0460000  1
   1085   1083   1092   1101     1  0.0000000  0.0000000  3
   1085   1083   1092   1093     1  0.0000000  0.6508444  3
   1085   1083   1092   1094     1  0.0000000  0.6508444  3
   1087   1086   1098   2261     1  0.0000000  1.0460000  1
   1087   1086   1098   2261     1  0.0000000  0.0000000  3
   1087   1086   1098   1099     1  0.0000000  0.6508444  3
   1087   1086   1098   1100     1  0.0000000  0.6508444  3
   1088   1086   1098   2261     1  0.0000000  1.0460000  1
   1088   1086   1098   2261     1  0.0000000  0.0000000  3
   1088   1086   1098   1099     1  0.0000000  0.6508444  3
   1088   1086   1098   1100     1  0.0000000  0.6508444  3
   1090   1089   1095   2232     1  0.0000000  1.0460000  1
   1090   1089   1095   2232     1  0.0000000  0.0000000  3
   1090   1089   1095   1096     1  0.0000000  0.6508444  3
   1090   1089   1095   1097     1  0.0000000  0.6508444  3
   1091   1089   1095   2232     1  0.0000000  1.0460000  1
   1091   1089   1095   2232     1  0.0000000  0.0000000  3
   1091   1089   1095   1096     1  0.0000000  0.6508444  3
   1091   1089   1095   1097     1  0.0000000  0.6508444  3
   1095   2232   2223   2224     1  0.0000000  1.6038667  3
   1095   2232   2223   2225     1  0.0000000  1.6038667  3
   1096   1095   2232   2223     1  0.0000000  1.6038667  3
   1097   1095   2232   2223     1  0.0000000  1.6038667  3
   1098   2261   2252   2253     1  0.0000000  1.6038667  3
   1098   2261   2252   2254     1  0.0000000  1.6038667  3
   1099   1098   2261   2252     1  0.0000000  1.6038667  3
   1100   1098   2261   2252     1  0.0000000  1.6038667  3
   1102   1103   1115   1116     1  0.0000000  0.6508444  3
   1102   1103   1115   1117     1  0.0000000  0.6508444  3
   1102   1106   1118   1119     1  0.0000000  0.6508444  3
   1102   1106   1118   1120     1  0.0000000  0.6508444  3
   1102   1109   1112   1113     1  0.0000000  0.6508444  3
   1102   1109   1112   1114     1  0.0000000  0.6508444  3
   1103   1102   1106   1107     1  0.0000000  1.2552000  3
   1103   1102   1106   1108     1  0.0000000  1.2552000  3
   1103   1102   1109   1110     1  0.0000000  1.2552000  3
   1103   1102   1109   1111     1  0.0000000  1.2552000  3
   1103   1115   1127   1128     1  0.0000000  0.6508444  3
   1103   1115   1127   1129     1  0.0000000  0.6508444  3
   1104   1103   1102   1106     1  0.0000000  1.2552000  3
   1104   1103   1102   1109     1  0.0000000  1.2552000  3
   1104   1103   1115   1127     1  0.0000000  0.6508444  3
   1104   1103   1115   1116     1  0.0000000  0.6508444  3
   1104   1103   1115   1117     1  0.0000000  0.6508444  3
   1105   1103   1102   1106     1  0.0000000  1.2552000  3
   1105   1103   1102   1109     1  0.0000000  1.2552000  3
   1105   1103   1115   1127     1  0.0000000  0.6508444  3
   1105   1103   1115   1116     1  0.0000000  0.6508444  3
   1105   1103   1115   1117     1  0.0000000  0.6508444  3
   1106   1102   1109   1110     1  0.0000000  1.2552000  3
   1106   1102   1109   1111     1  0.0000000  1.2552000  3
   1106   1118   1124   1125     1  0.0000000  0.6508444  3
   1106   1118   1124   1126     1  0.0000000  0.6508444  3
   1107   1106   1102   1109     1  0.0000000  1.2552000  3
   1107   1106   1118   1124     1  0.0000000  0.6508444  3
   1107   1106   1118   1119     1  0.0000000  0.6508444  3
   1107   1106   1118   1120     1  0.0000000  0.6508444  3
   1108   1106   1102   1109     1  0.0000000  1.2552000  3
   1108   1106   1118   1124     1  0.0000000  0.6508444  3
   1108   1106   1118   1119     1  0.0000000  0.6508444  3
   1108   1106   1118   1120     1  0.0000000  0.6508444  3
   1109   1112   1121   1122     1  0.0000000  0.6508444  3
   1109   1112   1121   1123     1  0.0000000  0.6508444  3
   1110   1109   1112   1121     1  0.0000000  0.6508444  3
   1110   1109   1112   1113     1  0.0000000  0.6508444  3
   1110   1109   1112   1114     1  0.0000000  0.6508444  3
   1111   1109   1112   1121     1  0.0000000  0.6508444  3
   1111   1109   1112   1113     1  0.0000000  0.6508444  3
   1111   1109   1112   1114     1  0.0000000  0.6508444  3
   1113   1112   1121   1130     1  0.0000000  1.0460000  1
   1113   1112   1121   1130     1  0.0000000  0.0000000  3
   1113   1112   1121   1122     1  0.0000000  0.6508444  3
   1113   1112   1121   1123     1  0.0000000  0.6508444  3
   1114   1112   1121   1130     1  0.0000000  1.0460000  1
   1114   1112   1121   1130     1  0.0000000  0.0000000  3
   1114   1112   1121   1122     1  0.0000000  0.6508444  3
   1114   1112   1121   1123     1  0.0000000  0.6508444  3
   1116   1115   1127   2319     1  0.0000000  1.0460000  1
   1116   1115   1127   2319     1  0.0000000  0.0000000  3
   1116   1115   1127   1128     1  0.0000000  0.6508444  3
   1116   1115   1127   1129     1  0.0000000  0.6508444  3
   1117   1115   1127   2319     1  0.0000000  1.0460000  1
   1117   1115   1127   2319     1  0.0000000  0.0000000  3
   1117   1115   1127   1128     1  0.0000000  0.6508444  3
   1117   1115   1127   1129     1  0.0000000  0.6508444  3
   1119   1118   1124   2290     1  0.0000000  1.0460000  1
   1119   1118   1124   2290     1  0.0000000  0.0000000  3
   1119   1118   1124   1125     1  0.0000000  0.6508444  3
   1119   1118   1124   1126     1  0.0000000  0.6508444  3
   1120   1118   1124   2290     1  0.0000000  1.0460000  1
   1120   1118   1124   2290     1  0.0000000  0.0000000  3
   1120   1118   1124   1125     1  0.0000000  0.6508444  3
   1120   1118   1124   1126     1  0.0000000  0.6508444  3
   1124   2290   2281   2282     1  0.0000000  1.6038667  3
   1124   2290   2281   2283     1  0.0000000  1.6038667  3
   1125   1124   2290   2281     1  0.0000000  1.6038667  3
   1126   1124   2290   2281     1  0.0000000  1.6038667  3
   1127   2319   2310   2311     1  0.0000000  1.6038667  3
   1127   2319   2310   2312     1  0.0000000  1.6038667  3
   1128   1127   2319   2310     1  0.0000000  1.6038667  3
   1129   1127   2319   2310     1  0.0000000  1.6038667  3
   1131   1132   1144   1145     1  0.0000000  0.6508444  3
   1131   1132   1144   1146     1  0.0000000  0.6508444  3
   1131   1135   1147   1148     1  0.0000000  0.6508444  3
   1131   1135   1147   1149     1  0.0000000  0.6508444  3
   1131   1138   1141   1142     1  0.0000000  0.6508444  3
   1131   1138   1141   1143     1  0.0000000  0.6508444  3
   1132   1131   1135   1136     1  0.0000000  1.2552000  3
   1132   1131   1135   1137     1  0.0000000  1.2552000  3
   1132   1131   1138   1139     1  0.0000000  1.2552000  3
   1132   1131   1138   1140     1  0.0000000  1.2552000  3
   1132   1144   1156   1157     1  0.0000000  0.6508444  3
   1132   1144   1156   1158     1  0.0000000  0.6508444  3
   1133   1132   1131   1135     1  0.0000000  1.2552000  3
   1133   1132   1131   1138     1  0.0000000  1.2552000  3
   1133   1132   1144   1156     1  0.0000000  0.6508444  3
   1133   1132   1144   1145     1  0.0000000  0.6508444  3
   1133   1132   1144   1146     1  0.0000000  0.6508444  3
   1134   1132   1131   1135     1  0.0000000  1.2552000  3
   1134   1132   1131   1138     1  0.0000000  1.2552000  3
   1134   1132   1144   1156     1  0.0000000  0.6508444  3
   1134   1132   1144   1145     1  0.0000000  0.6508444  3
   1134   1132   1144   1146     1  0.0000000  0.6508444  3
   1135   1131   1138   1139     1  0.0000000  1.2552000  3
   1135   1131   1138   1140     1  0.0000000  1.2552000  3
   1135   1147   1153   1154     1  0.0000000  0.6508444  3
   1135   1147   1153   1155     1  0.0000000  0.6508444  3
   1136   1135   1131   1138     1  0.0000000  1.2552000  3
   1136   1135   1147   1153     1  0.0000000  0.6508444  3
   1136   1135   1147   1148     1  0.0000000  0.6508444  3
   1136   1135   1147   1149     1  0.0000000  0.6508444  3
   1137   1135   1131   1138     1  0.0000000  1.2552000  3
   1137   1135   1147   1153     1  0.0000000  0.6508444  3
   1137   1135   1147   1148     1  0.0000000  0.6508444  3
   1137   1135   1147   1149     1  0.0000000  0.6508444  3
   1138   1141   1150   1151     1  0.0000000  0.6508444  3
   1138   1141   1150   1152     1  0.0000000  0.6508444  3
   1139   1138   1141   1150     1  0.0000000  0.6508444  3
   1139   1138   1141   1142     1  0.0000000  0.6508444  3
   1139   1138   1141   1143     1  0.0000000  0.6508444  3
   1140   1138   1141   1150     1  0.0000000  0.6508444  3
   1140   1138   1141   1142     1  0.0000000  0.6508444  3
   1140   1138   1141   1143     1  0.0000000  0.6508444  3
   1142   1141   1150   1159     1  0.0000000  1.0460000  1
   1142   1141   1150   1159     1  0.0000000  0.0000000  3
   1142   1141   1150   1151     1  0.0000000  0.6508444  3
   1142   1141   1150   1152     1  0.0000000  0.6508444  3
   1143   1141   1150   1159     1  0.0000000  1.0460000  1
   1143   1141   1150   1159     1  0.0000000  0.0000000  3
   1143   1141   1150   1151     1  0.0000000  0.6508444  3
   1143   1141   1150   1152     1  0.0000000  0.6508444  3
   1145   1144   1156   2377     1  0.0000000  1.0460000  1
   1145   1144   1156   2377     1  0.0000000  0.0000000  3
   1145   1144   1156   1157     1  0.0000000  0.6508444  3
   1145   1144   1156   1158     1  0.0000000  0.6508444  3
   1146   1144   1156   2377     1  0.0000000  1.0460000  1
   1146   1144   1156   2377     1  0.0000000  0.0000000  3
   1146   1144   1156   1157     1  0.0000000  0.6508444  3
   1146   1144   1156   1158     1  0.0000000  0.6508444  3
   1148   1147   1153   2348     1  0.0000000  1.0460000  1
   1148   1147   1153   2348     1  0.0000000  0.0000000  3
   1148   1147   1153   1154     1  0.0000000  0.6508444  3
   1148   1147   1153   1155     1  0.0000000  0.6508444  3
   1149   1147   1153   2348     1  0.0000000  1.0460000  1
   1149   1147   1153   2348     1  0.0000000  0.0000000  3
   1149   1147   1153   1154     1  0.0000000  0.6508444  3
   1149   1147   1153   1155     1  0.0000000  0.6508444  3
   1153   2348   2339   2340     1  0.0000000  1.6038667  3
   1153   2348   2339   2341     1  0.0000000  1.6038667  3
   1154   1153   2348   2339     1  0.0000000  1.6038667  3
   1155   1153   2348   2339     1  0.0000000  1.6038667  3
   1156   2377   2368   2369     1  0.0000000  1.6038667  3
   1156   2377   2368   2370     1  0.0000000  1.6038667  3
   1157   1156   2377   2368     1  0.0000000  1.6038667  3
   1158   1156   2377   2368     1  0.0000000  1.6038667  3
   1160   1161   1173   1174     1  0.0000000  0.6508444  3
   1160   1161   1173   1175     1  0.0000000  0.6508444  3
   1160   1164   1176   1177     1  0.0000000  0.6508444  3
   1160   1164   1176   1178     1  0.0000000  0.6508444  3
   1160   1167   1170   1171     1  0.0000000  0.6508444  3
   1160   1167   1170   1172     1  0.0000000  0.6508444  3
   1161   1160   1164   1165     1  0.0000000  1.2552000  3
   1161   1160   1164   1166     1  0.0000000  1.2552000  3
   1161   1160   1167   1168     1  0.0000000  1.2552000  3
   1161   1160   1167   1169     1  0.0000000  1.2552000  3
   1161   1173   1185   1186     1  0.0000000  0.6508444  3
   1161   1173   1185   1187     1  0.0000000  0.6508444  3
   1162   1161   1160   1164     1  0.0000000  1.2552000  3
   1162   1161   1160   1167     1  0.0000000  1.2552000  3
   1162   1161   1173   1185     1  0.0000000  0.6508444  3
   1162   1161   1173   1174     1  0.0000000  0.6508444  3
   1162   1161   1173   1175     1  0.0000000  0.6508444  3
   1163   1161   1160   1164     1  0.0000000  1.2552000  3
   1163   1161   1160   1167     1  0.0000000  1.2552000  3
   1163   1161   1173   1185     1  0.0000000  0.6508444  3
   1163   1161   1173   1174     1  0.0000000  0.6508444  3
   1163   1161   1173   1175     1  0.0000000  0.6508444  3
   1164   1160   1167   1168     1  0.0000000  1.2552000  3
   1164   1160   1167   1169     1  0.0000000  1.2552000  3
   1164   1176   1182   1183     1  0.0000000  0.6508444  3
   1164   1176   1182   1184     1  0.0000000  0.6508444  3
   1165   1164   1160   1167     1  0.0000000  1.2552000  3
   1165   1164   1176   1182     1  0.0000000  0.6508444  3
   1165   1164   1176   1177     1  0.0000000  0.6508444  3
   1165   1164   1176   1178     1  0.0000000  0.6508444  3
   1166   1164   1160   1167     1  0.0000000  1.2552000  3
   1166   1164   1176   1182     1  0.0000000  0.6508444  3
   1166   1164   1176   1177     1  0.0000000  0.6508444  3
   1166   1164   1176   1178     1  0.0000000  0.6508444  3
   1167   1170   1179   1180     1  0.0000000  0.6508444  3
   1167   1170   1179   1181     1  0.0000000  0.6508444  3
   1168   1167   1170   1179     1  0.0000000  0.6508444  3
   1168   1167   1170   1171     1  0.0000000  0.6508444  3
   1168   1167   1170   1172     1  0.0000000  0.6508444  3
   1169   1167   1170   1179     1  0.0000000  0.6508444  3
   1169   1167   1170   1171     1  0.0000000  0.6508444  3
   1169   1167   1170   1172     1  0.0000000  0.6508444  3
   1171   1170   1179   1188     1  0.0000000  1.0460000  1
   1171   1170   1179   1188     1  0.0000000  0.0000000  3
   1171   1170   1179   1180     1  0.0000000  0.6508444  3
   1171   1170   1179   1181     1  0.0000000  0.6508444  3
   1172   1170   1179   1188     1  0.0000000  1.0460000  1
   1172   1170   1179   1188     1  0.0000000  0.0000000  3
   1172   1170   1179   1180     1  0.0000000  0.6508444  3
   1172   1170   1179   1181     1  0.0000000  0.6508444  3
   1174   1173   1185   2435     1  0.0000000  1.0460000  1
   1174   1173   1185   2435     1  0.0000000  0.0000000  3
   1174   1173   1185   1186     1  0.0000000  0.6508444  3
   1174   1173   1185   1187     1  0.0000000  0.6508444  3
   1175   1173   1185   2435     1  0.0000000  1.0460000  1
   1175   1173   1185   2435     1  0.0000000  0.0000000  3
   1175   1173   1185   1186     1  0.0000000  0.6508444  3
   1175   1173   1185   1187     1  0.0000000  0.6508444  3
   1177   1176   1182   2406     1  0.0000000  1.0460000  1
   1177   1176   1182   2406     1  0.0000000  0.0000000  3
   1177   1176   1182   1183     1  0.0000000  0.6508444  3
   1177   1176   1182   1184     1  0.0000000  0.6508444  3
   1178   1176   1182   2406     1  0.0000000  1.0460000  1
   1178   1176   1182   2406     1  0.0000000  0.0000000  3
   1178   1176   1182   1183     1  0.0000000  0.6508444  3
   1178   1176   1182   1184     1  0.0000000  0.6508444  3
   1182   2406   2397   2398     1  0.0000000  1.6038667  3
   1182   2406   2397   2399     1  0.0000000  1.6038667  3
   1183   1182   2406   2397     1  0.0000000  1.6038667  3
   1184   1182   2406   2397     1  0.0000000  1.6038667  3
   1185   2435   2426   2427     1  0.0000000  1.6038667  3
   1185   2435   2426   2428     1  0.0000000  1.6038667  3
   1186   1185   2435   2426     1  0.0000000  1.6038667  3
   1187   1185   2435   2426     1  0.0000000  1.6038667  3
   1189   1190   1202   1203     1  0.0000000  0.6508444  3
   1189   1190   1202   1204     1  0.0000000  0.6508444  3
   1189   1193   1205   1206     1  0.0000000  0.6508444  3
   1189   1193   1205   1207     1  0.0000000  0.6508444  3
   1189   1196   1199   1200     1  0.0000000  0.6508444  3
   1189   1196   1199   1201     1  0.0000000  0.6508444  3
   1190   1189   1193   1194     1  0.0000000  1.2552000  3
   1190   1189   1193   1195     1  0.0000000  1.2552000  3
   1190   1189   1196   1197     1  0.0000000  1.2552000  3
   1190   1189   1196   1198     1  0.0000000  1.2552000  3
   1190   1202   1214   1215     1  0.0000000  0.6508444  3
   1190   1202   1214   1216     1  0.0000000  0.6508444  3
   1191   1190   1189   1193     1  0.0000000  1.2552000  3
   1191   1190   1189   1196     1  0.0000000  1.2552000  3
   1191   1190   1202   1214     1  0.0000000  0.6508444  3
   1191   1190   1202   1203     1  0.0000000  0.6508444  3
   1191   1190   1202   1204     1  0.0000000  0.6508444  3
   1192   1190   1189   1193     1  0.0000000  1.2552000  3
   1192   1190   1189   1196     1  0.0000000  1.2552000  3
   1192   1190   1202   1214     1  0.0000000  0.6508444  3
   1192   1190   1202   1203     1  0.0000000  0.6508444  3
   1192   1190   1202   1204     1  0.0000000  0.6508444  3
   1193   1189   1196   1197     1  0.0000000  1.2552000  3
   1193   1189   1196   1198     1  0.0000000  1.2552000  3
   1193   1205   1211   1212     1  0.0000000  0.6508444  3
   1193   1205   1211   1213     1  0.0000000  0.6508444  3
   1194   1193   1189   1196     1  0.0000000  1.2552000  3
   1194   1193   1205   1211     1  0.0000000  0.6508444  3
   1194   1193   1205   1206     1  0.0000000  0.6508444  3
   1194   1193   1205   1207     1  0.0000000  0.6508444  3
   1195   1193   1189   1196     1  0.0000000  1.2552000  3
   1195   1193   1205   1211     1  0.0000000  0.6508444  3
   1195   1193   1205   1206     1  0.0000000  0.6508444  3
   1195   1193   1205   1207     1  0.0000000  0.6508444  3
   1196   1199   1208   1209     1  0.0000000  0.6508444  3
   1196   1199   1208   1210     1  0.0000000  0.6508444  3
   1197   1196   1199   1208     1  0.0000000  0.6508444  3
   1197   1196   1199   1200     1  0.0000000  0.6508444  3
   1197   1196   1199   1201     1  0.0000000  0.6508444  3
   1198   1196   1199   1208     1  0.0000000  0.6508444  3
   1198   1196   1199   1200     1  0.0000000  0.6508444  3
   1198   1196   1199   1201     1  0.0000000  0.6508444  3
   1200   1199   1208   1217     1  0.0000000  1.0460000  1
   1200   1199   1208   1217     1  0.0000000  0.0000000  3
   1200   1199   1208   1209     1  0.0000000  0.6508444  3
   1200   1199   1208   1210     1  0.0000000  0.6508444  3
   1201   1199   1208   1217     1  0.0000000  1.0460000  1
   1201   1199   1208   1217     1  0.0000000  0.0000000  3
   1201   1199   1208   1209     1  0.0000000  0.6508444  3
   1201   1199   1208   1210     1  0.0000000  0.6508444  3
   1203   1202   1214   2493     1  0.0000000  1.0460000  1
   1203   1202   1214   2493     1  0.0000000  0.0000000  3
   1203   1202   1214   1215     1  0.0000000  0.6508444  3
   1203   1202   1214   1216     1  0.0000000  0.6508444  3
   1204   1202   1214   2493     1  0.0000000  1.0460000  1
   1204   1202   1214   2493     1  0.0000000  0.0000000  3
   1204   1202   1214   1215     1  0.0000000  0.6508444  3
   1204   1202   1214   1216     1  0.0000000  0.6508444  3
   1206   1205   1211   2464     1  0.0000000  1.0460000  1
   1206   1205   1211   2464     1  0.0000000  0.0000000  3
   1206   1205   1211   1212     1  0.0000000  0.6508444  3
   1206   1205   1211   1213     1  0.0000000  0.6508444  3
   1207   1205   1211   2464     1  0.0000000  1.0460000  1
   1207   1205   1211   2464     1  0.0000000  0.0000000  3
   1207   1205   1211   1212     1  0.0000000  0.6508444  3
   1207   1205   1211   1213     1  0.0000000  0.6508444  3
   1211   2464   2455   2456     1  0.0000000  1.6038667  3
   1211   2464   2455   2457     1  0.0000000  1.6038667  3
   1212   1211   2464   2455     1  0.0000000  1.6038667  3
   1213   1211   2464   2455     1  0.0000000  1.6038667  3
   1214   2493   2484   2485     1  0.0000000  1.6038667  3
   1214   2493   2484   2486     1  0.0000000  1.6038667  3
   1215   1214   2493   2484     1  0.0000000  1.6038667  3
   1216   1214   2493   2484     1  0.0000000  1.6038667  3
   1218   1219   1231   1232     1  0.0000000  0.6508444  3
   1218   1219   1231   1233     1  0.0000000  0.6508444  3
   1218   1222   1234   1235     1  0.0000000  0.6508444  3
   1218   1222   1234   1236     1  0.0000000  0.6508444  3
   1218   1225   1228   1229     1  0.0000000  0.6508444  3
   1218   1225   1228   1230     1  0.0000000  0.6508444  3
   1219   1218   1222   1223     1  0.0000000  1.2552000  3
   1219   1218   1222   1224     1  0.0000000  1.2552000  3
   1219   1218   1225   1226     1  0.0000000  1.2552000  3
   1219   1218   1225   1227     1  0.0000000  1.2552000  3
   1219   1231   1243   1244     1  0.0000000  0.6508444  3
   1219   1231   1243   1245     1  0.0000000  0.6508444  3
   1220   1219   1218   1222     1  0.0000000  1.2552000  3
   1220   1219   1218   1225     1  0.0000000  1.2552000  3
   1220   1219   1231   1243     1  0.0000000  0.6508444  3
   1220   1219   1231   1232     1  0.0000000  0.6508444  3
   1220   1219   1231   1233     1  0.0000000  0.6508444  3
   1221   1219   1218   1222     1  0.0000000  1.2552000  3
   1221   1219   1218   1225     1  0.0000000  1.2552000  3
   1221   1219   1231   1243     1  0.0000000  0.6508444  3
   1221   1219   1231   1232     1  0.0000000  0.6508444  3
   1221   1219   1231   1233     1  0.0000000  0.6508444  3
   1222   1218   1225   1226     1  0.0000000  1.2552000  3
   1222   1218   1225   1227     1  0.0000000  1.2552000  3
   1222   1234   1240   1241     1  0.0000000  0.6508444  3
   1222   1234   1240   1242     1  0.0000000  0.6508444  3
   1223   1222   1218   1225     1  0.0000000  1.2552000  3
   1223   1222   1234   1240     1  0.0000000  0.6508444  3
   1223   1222   1234   1235     1  0.0000000  0.6508444  3
   1223   1222   1234   1236     1  0.0000000  0.6508444  3
   1224   1222   1218   1225     1  0.0000000  1.2552000  3
   1224   1222   1234   1240     1  0.0000000  0.6508444  3
   1224   1222   1234   1235     1  0.0000000  0.6508444  3
   1224   1222   1234   1236     1  0.0000000  0.6508444  3
   1225   1228   1237   1238     1  0.0000000  0.6508444  3
   1225   1228   1237   1239     1  0.0000000  0.6508444  3
   1226   1225   1228   1237     1  0.0000000  0.6508444  3
   1226   1225   1228   1229     1  0.0000000  0.6508444  3
   1226   1225   1228   1230     1  0.0000000  0.6508444  3
   1227   1225   1228   1237     1  0.0000000  0.6508444  3
   1227   1225   1228   1229     1  0.0000000  0.6508444  3
   1227   1225   1228   1230     1  0.0000000  0.6508444  3
   1229   1228   1237   1246     1  0.0000000  1.0460000  1
   1229   1228   1237   1246     1  0.0000000  0.0000000  3
   1229   1228   1237   1238     1  0.0000000  0.6508444  3
   1229   1228   1237   1239     1  0.0000000  0.6508444  3
   1230   1228   1237   1246     1  0.0000000  1.0460000  1
   1230   1228   1237   1246     1  0.0000000  0.0000000  3
   1230   1228   1237   1238     1  0.0000000  0.6508444  3
   1230   1228   1237   1239     1  0.0000000  0.6508444  3
   1232   1231   1243   2551     1  0.0000000  1.0460000  1
   1232   1231   1243   2551     1  0.0000000  0.0000000  3
   1232   1231   1243   1244     1  0.0000000  0.6508444  3
   1232   1231   1243   1245     1  0.0000000  0.6508444  3
   1233   1231   1243   2551     1  0.0000000  1.0460000  1
   1233   1231   1243   2551     1  0.0000000  0.0000000  3
   1233   1231   1243   1244     1  0.0000000  0.6508444  3
   1233   1231   1243   1245     1  0.0000000  0.6508444  3
   1235   1234   1240   2522     1  0.0000000  1.0460000  1
   1235   1234   1240   2522     1  0.0000000  0.0000000  3
   1235   1234   1240   1241     1  0.0000000  0.6508444  3
   1235   1234   1240   1242     1  0.0000000  0.6508444  3
   1236   1234   1240   2522     1  0.0000000  1.0460000  1
   1236   1234   1240   2522     1  0.0000000  0.0000000  3
   1236   1234   1240   1241     1  0.0000000  0.6508444  3
   1236   1234   1240   1242     1  0.0000000  0.6508444  3
   1240   2522   2513   2514     1  0.0000000  1.6038667  3
   1240   2522   2513   2515     1  0.0000000  1.6038667  3
   1241   1240   2522   2513     1  0.0000000  1.6038667  3
   1242   1240   2522   2513     1  0.0000000  1.6038667  3
   1243   2551   2542   2543     1  0.0000000  1.6038667  3
   1243   2551   2542   2544     1  0.0000000  1.6038667  3
   1244   1243   2551   2542     1  0.0000000  1.6038667  3
   1245   1243   2551   2542     1  0.0000000  1.6038667  3
   1247   1248   1260   1261     1  0.0000000  0.6508444  3
   1247   1248   1260   1262     1  0.0000000  0.6508444  3
   1247   1251   1263   1264     1  0.0000000  0.6508444  3
   1247   1251   1263   1265     1  0.0000000  0.6508444  3
   1247   1254   1257   1258     1  0.0000000  0.6508444  3
   1247   1254   1257   1259     1  0.0000000  0.6508444  3
   1248   1247   1251   1252     1  0.0000000  1.2552000  3
   1248   1247   1251   1253     1  0.0000000  1.2552000  3
   1248   1247   1254   1255     1  0.0000000  1.2552000  3
   1248   1247   1254   1256     1  0.0000000  1.2552000  3
   1248   1260   1272   1273     1  0.0000000  0.6508444  3
   1248   1260   1272   1274     1  0.0000000  0.6508444  3
   1249   1248   1247   1251     1  0.0000000  1.2552000  3
   1249   1248   1247   1254     1  0.0000000  1.2552000  3
   1249   1248   1260   1272     1  0.0000000  0.6508444  3
   1249   1248   1260   1261     1  0.0000000  0.6508444  3
   1249   1248   1260   1262     1  0.0000000  0.6508444  3
   1250   1248   1247   1251     1  0.0000000  1.2552000  3
   1250   1248   1247   1254     1  0.0000000  1.2552000  3
   1250   1248   1260   1272     1  0.0000000  0.6508444  3
   1250   1248   1260   1261     1  0.0000000  0.6508444  3
   1250   1248   1260   1262     1  0.0000000  0.6508444  3
   1251   1247   1254   1255     1  0.0000000  1.2552000  3
   1251   1247   1254   1256     1  0.0000000  1.2552000  3
   1251   1263   1269   1270     1  0.0000000  0.6508444  3
   1251   1263   1269   1271     1  0.0000000  0.6508444  3
   1252   1251   1247   1254     1  0.0000000  1.2552000  3
   1252   1251   1263   1269     1  0.0000000  0.6508444  3
   1252   1251   1263   1264     1  0.0000000  0.6508444  3
   1252   1251   1263   1265     1  0.0000000  0.6508444  3
   1253   1251   1247   1254     1  0.0000000  1.2552000  3
   1253   1251   1263   1269     1  0.0000000  0.6508444  3
   1253   1251   1263   1264     1  0.0000000  0.6508444  3
   1253   1251   1263   1265     1  0.0000000  0.6508444  3
   1254   1257   1266   1267     1  0.0000000  0.6508444  3
   1254   1257   1266   1268     1  0.0000000  0.6508444  3
   1255   1254   1257   1266     1  0.0000000  0.6508444  3
   1255   1254   1257   1258     1  0.0000000  0.6508444  3
   1255   1254   1257   1259     1  0.0000000  0.6508444  3
   1256   1254   1257   1266     1  0.0000000  0.6508444  3
   1256   1254   1257   1258     1  0.0000000  0.6508444  3
   1256   1254   1257   1259     1  0.0000000  0.6508444  3
   1258   1257   1266   1275     1  0.0000000  1.0460000  1
   1258   1257   1266   1275     1  0.0000000  0.0000000  3
   1258   1257   1266   1267     1  0.0000000  0.6508444  3
   1258   1257   1266   1268     1  0.0000000  0.6508444  3
   1259   1257   1266   1275     1  0.0000000  1.0460000  1
   1259   1257   1266   1275     1  0.0000000  0.0000000  3
   1259   1257   1266   1267     1  0.0000000  0.6508444  3
   1259   1257   1266   1268     1  0.0000000  0.6508444  3
   1261   1260   1272   2609     1  0.0000000  1.0460000  1
   1261   1260   1272   2609     1  0.0000000  0.0000000  3
   1261   1260   1272   1273     1  0.0000000  0.6508444  3
   1261   1260   1272   1274     1  0.0000000  0.6508444  3
   1262   1260   1272   2609     1  0.0000000  1.0460000  1
   1262   1260   1272   2609     1  0.0000000  0.0000000  3
   1262   1260   1272   1273     1  0.0000000  0.6508444  3
   1262   1260   1272   1274     1  0.0000000  0.6508444  3
   1264   1263   1269   2580     1  0.0000000  1.0460000  1
   1264   1263   1269   2580     1  0.0000000  0.0000000  3
   1264   1263   1269   1270     1  0.0000000  0.6508444  3
   1264   1263   1269   1271     1  0.0000000  0.6508444  3
   1265   1263   1269   2580     1  0.0000000  1.0460000  1
   1265   1263   1269   2580     1  0.0000000  0.0000000  3
   1265   1263   1269   1270     1  0.0000000  0.6508444  3
   1265   1263   1269   1271     1  0.0000000  0.6508444  3
   1269   2580   2571   2572     1  0.0000000  1.6038667  3
   1269   2580   2571   2573     1  0.0000000  1.6038667  3
   1270   1269   2580   2571     1  0.0000000  1.6038667  3
   1271   1269   2580   2571     1  0.0000000  1.6038667  3
   1272   2609   2600   2601     1  0.0000000  1.6038667  3
   1272   2609   2600   2602     1  0.0000000  1.6038667  3
   1273   1272   2609   2600     1  0.0000000  1.6038667  3
   1274   1272   2609   2600     1  0.0000000  1.6038667  3
   1276   1277   1289   1290     1  0.0000000  0.6508444  3
   1276   1277   1289   1291     1  0.0000000  0.6508444  3
   1276   1280   1292   1293     1  0.0000000  0.6508444  3
   1276   1280   1292   1294     1  0.0000000  0.6508444  3
   1276   1283   1286   1287     1  0.0000000  0.6508444  3
   1276   1283   1286   1288     1  0.0000000  0.6508444  3
   1277   1276   1280   1281     1  0.0000000  1.2552000  3
   1277   1276   1280   1282     1  0.0000000  1.2552000  3
   1277   1276   1283   1284     1  0.0000000  1.2552000  3
   1277   1276   1283   1285     1  0.0000000  1.2552000  3
   1277   1289   1301   1302     1  0.0000000  0.6508444  3
   1277   1289   1301   1303     1  0.0000000  0.6508444  3
   1278   1277   1276   1280     1  0.0000000  1.2552000  3
   1278   1277   1276   1283     1  0.0000000  1.2552000  3
   1278   1277   1289   1301     1  0.0000000  0.6508444  3
   1278   1277   1289   1290     1  0.0000000  0.6508444  3
   1278   1277   1289   1291     1  0.0000000  0.6508444  3
   1279   1277   1276   1280     1  0.0000000  1.2552000  3
   1279   1277   1276   1283     1  0.0000000  1.2552000  3
   1279   1277   1289   1301     1  0.0000000  0.6508444  3
   1279   1277   1289   1290     1  0.0000000  0.6508444  3
   1279   1277   1289   1291     1  0.0000000  0.6508444  3
   1280   1276   1283   1284     1  0.0000000  1.2552000  3
   1280   1276   1283   1285     1  0.0000000  1.2552000  3
   1280   1292   1298   1299     1  0.0000000  0.6508444  3
   1280   1292   1298   1300     1  0.0000000  0.6508444  3
   1281   1280   1276   1283     1  0.0000000  1.2552000  3
   1281   1280   1292   1298     1  0.0000000  0.6508444  3
   1281   1280   1292   1293     1  0.0000000  0.6508444  3
   1281   1280   1292   1294     1  0.0000000  0.6508444  3
   1282   1280   1276   1283     1  0.0000000  1.2552000  3
   1282   1280   1292   1298     1  0.0000000  0.6508444  3
   1282   1280   1292   1293     1  0.0000000  0.6508444  3
   1282   1280   1292   1294     1  0.0000000  0.6508444  3
   1283   1286   1295   1296     1  0.0000000  0.6508444  3
   1283   1286   1295   1297     1  0.0000000  0.6508444  3
   1284   1283   1286   1295     1  0.0000000  0.6508444  3
   1284   1283   1286   1287     1  0.0000000  0.6508444  3
   1284   1283   1286   1288     1  0.0000000  0.6508444  3
   1285   1283   1286   1295     1  0.0000000  0.6508444  3
   1285   1283   1286   1287     1  0.0000000  0.6508444  3
   1285   1283   1286   1288     1  0.0000000  0.6508444  3
   1287   1286   1295   1304     1  0.0000000  1.0460000  1
   1287   1286   1295   1304     1  0.0000000  0.0000000  3
   1287   1286   1295   1296     1  0.0000000  0.6508444  3
   1287   1286   1295   1297     1  0.0000000  0.6508444  3
   1288   1286   1295   1304     1  0.0000000  1.0460000  1
   1288   1286   1295   1304     1  0.0000000  0.0000000  3
   1288   1286   1295   1296     1  0.0000000  0.6508444  3
   1288   1286   1295   1297     1  0.0000000  0.6508444  3
   1290   1289   1301   2667     1  0.0000000  1.0460000  1
   1290   1289   1301   2667     1  0.0000000  0.0000000  3
   1290   1289   1301   1302     1  0.0000000  0.6508444  3
   1290   1289   1301   1303     1  0.0000000  0.6508444  3
   1291   1289   1301   2667     1  0.0000000  1.0460000  1
   1291   1289   1301   2667     1  0.0000000  0.0000000  3
   1291   1289   1301   1302     1  0.0000000  0.6508444  3
   1291   1289   1301   1303     1  0.0000000  0.6508444  3
   1293   1292   1298   2638     1  0.0000000  1.0460000  1
   1293   1292   1298   2638     1  0.0000000  0.0000000  3
   1293   1292   1298   1299     1  0.0000000  0.6508444  3
   1293   1292   1298   1300     1  0.0000000  0.6508444  3
   1294   1292   1298   2638     1  0.0000000  1.0460000  1
   1294   1292   1298   2638     1  0.0000000  0.0000000  3
   1294   1292   1298   1299     1  0.0000000  0.6508444  3
   1294   1292   1298   1300     1  0.0000000  0.6508444  3
   1298   2638   2629   2630     1  0.0000000  1.6038667  3
   1298   2638   2629   2631     1  0.0000000  1.6038667  3
   1299   1298   2638   2629     1  0.0000000  1.6038667  3
   1300   1298   2638   2629     1  0.0000000  1.6038667  3
   1301   2667   2658   2659     1  0.0000000  1.6038667  3
   1301   2667   2658   2660     1  0.0000000  1.6038667  3
   1302   1301   2667   2658     1  0.0000000  1.6038667  3
   1303   1301   2667   2658     1  0.0000000  1.6038667  3
   1305   1306   1318   1319     1  0.0000000  0.6508444  3
   1305   1306   1318   1320     1  0.0000000  0.6508444  3
   1305   1309   1321   1322     1  0.0000000  0.6508444  3
   1305   1309   1321   1323     1  0.0000000  0.6508444  3
   1305   1312   1315   1316     1  0.0000000  0.6508444  3
   1305   1312   1315   1317     1  0.0000000  0.6508444  3
   1306   1305   1309   1310     1  0.0000000  1.2552000  3
   1306   1305   1309   1311     1  0.0000000  1.2552000  3
   1306   1305   1312   1313     1  0.0000000  1.2552000  3
   1306   1305   1312   1314     1  0.0000000  1.2552000  3
   1306   1318   1330   1331     1  0.0000000  0.6508444  3
   1306   1318   1330   1332     1  0.0000000  0.6508444  3
   1307   1306   1305   1309     1  0.0000000  1.2552000  3
   1307   1306   1305   1312     1  0.0000000  1.2552000  3
   1307   1306   1318   1330     1  0.0000000  0.6508444  3
   1307   1306   1318   1319     1  0.0000000  0.6508444  3
   1307   1306   1318   1320     1  0.0000000  0.6508444  3
   1308   1306   1305   1309     1  0.0000000  1.2552000  3
   1308   1306   1305   1312     1  0.0000000  1.2552000  3
   1308   1306   1318   1330     1  0.0000000  0.6508444  3
   1308   1306   1318   1319     1  0.0000000  0.6508444  3
   1308   1306   1318   1320     1  0.0000000  0.6508444  3
   1309   1305   1312   1313     1  0.0000000  1.2552000  3
   1309   1305   1312   1314     1  0.0000000  1.2552000  3
   1309   1321   1327   1328     1  0.0000000  0.6508444  3
   1309   1321   1327   1329     1  0.0000000  0.6508444  3
   1310   1309   1305   1312     1  0.0000000  1.2552000  3
   1310   1309   1321   1327     1  0.0000000  0.6508444  3
   1310   1309   1321   1322     1  0.0000000  0.6508444  3
   1310   1309   1321   1323     1  0.0000000  0.6508444  3
   1311   1309   1305   1312     1  0.0000000  1.2552000  3
   1311   1309   1321   1327     1  0.0000000  0.6508444  3
   1311   1309   1321   1322     1  0.0000000  0.6508444  3
   1311   1309   1321   1323     1  0.0000000  0.6508444  3
   1312   1315   1324   1325     1  0.0000000  0.6508444  3
   1312   1315   1324   1326     1  0.0000000  0.6508444  3
   1313   1312   1315   1324     1  0.0000000  0.6508444  3
   1313   1312   1315   1316     1  0.0000000  0.6508444  3
   1313   1312   1315   1317     1  0.0000000  0.6508444  3
   1314   1312   1315   1324     1  0.0000000  0.6508444  3
   1314   1312   1315   1316     1  0.0000000  0.6508444  3
   1314   1312   1315   1317     1  0.0000000  0.6508444  3
   1316   1315   1324   1333     1  0.0000000  1.0460000  1
   1316   1315   1324   1333     1  0.0000000  0.0000000  3
   1316   1315   1324   1325     1  0.0000000  0.6508444  3
   1316   1315   1324   1326     1  0.0000000  0.6508444  3
   1317   1315   1324   1333     1  0.0000000  1.0460000  1
   1317   1315   1324   1333     1  0.0000000  0.0000000  3
   1317   1315   1324   1325     1  0.0000000  0.6508444  3
   1317   1315   1324   1326     1  0.0000000  0.6508444  3
   1319   1318   1330   2725     1  0.0000000  1.0460000  1
   1319   1318   1330   2725     1  0.0000000  0.0000000  3
   1319   1318   1330   1331     1  0.0000000  0.6508444  3
   1319   1318   1330   1332     1  0.0000000  0.6508444  3
   1320   1318   1330   2725     1  0.0000000  1.0460000  1
   1320   1318   1330   2725     1  0.0000000  0.0000000  3
   1320   1318   1330   1331     1  0.0000000  0.6508444  3
   1320   1318   1330   1332     1  0.0000000  0.6508444  3
   1322   1321   1327   2696     1  0.0000000  1.0460000  1
   1322   1321   1327   2696     1  0.0000000  0.0000000  3
   1322   1321   1327   1328     1  0.0000000  0.6508444  3
   1322   1321   1327   1329     1  0.0000000  0.6508444  3
   1323   1321   1327   2696     1  0.0000000  1.0460000  1
   1323   1321   1327   2696     1  0.0000000  0.0000000  3
   1323   1321   1327   1328     1  0.0000000  0.6508444  3
   1323   1321   1327   1329     1  0.0000000  0.6508444  3
   1327   2696   2687   2688     1  0.0000000  1.6038667  3
   1327   2696   2687   2689     1  0.0000000  1.6038667  3
   1328   1327   2696   2687     1  0.0000000  1.6038667  3
   1329   1327   2696   2687     1  0.0000000  1.6038667  3
   1330   2725   2716   2717     1  0.0000000  1.6038667  3
   1330   2725   2716   2718     1  0.0000000  1.6038667  3
   1331   1330   2725   2716     1  0.0000000  1.6038667  3
   1332   1330   2725   2716     1  0.0000000  1.6038667  3
   1334   1335   1347   1348     1  0.0000000  0.6508444  3
   1334   1335   1347   1349     1  0.0000000  0.6508444  3
   1334   1338   1350   1351     1  0.0000000  0.6508444  3
   1334   1338   1350   1352     1  0.0000000  0.6508444  3
   1334   1341   1344   1345     1  0.0000000  0.6508444  3
   1334   1341   1344   1346     1  0.0000000  0.6508444  3
   1335   1334   1338   1339     1  0.0000000  1.2552000  3
   1335   1334   1338   1340     1  0.0000000  1.2552000  3
   1335   1334   1341   1342     1  0.0000000  1.2552000  3
   1335   1334   1341   1343     1  0.0000000  1.2552000  3
   1335   1347   1359   1360     1  0.0000000  0.6508444  3
   1335   1347   1359   1361     1  0.0000000  0.6508444  3
   1336   1335   1334   1338     1  0.0000000  1.2552000  3
   1336   1335   1334   1341     1  0.0000000  1.2552000  3
   1336   1335   1347   1359     1  0.0000000  0.6508444  3
   1336   1335   1347   1348     1  0.0000000  0.6508444  3
   1336   1335   1347   1349     1  0.0000000  0.6508444  3
   1337   1335   1334   1338     1  0.0000000  1.2552000  3
   1337   1335   1334   1341     1  0.0000000  1.2552000  3
   1337   1335   1347   1359     1  0.0000000  0.6508444  3
   1337   1335   1347   1348     1  0.0000000  0.6508444  3
   1337   1335   1347   1349     1  0.0000000  0.6508444  3
   1338   1334   1341   1342     1  0.0000000  1.2552000  3
   1338   1334   1341   1343     1  0.0000000  1.2552000  3
   1338   1350   1356   1357     1  0.0000000  0.6508444  3
   1338   1350   1356   1358     1  0.0000000  0.6508444  3
   1339   1338   1334   1341     1  0.0000000  1.2552000  3
   1339   1338   1350   1356     1  0.0000000  0.6508444  3
   1339   1338   1350   1351     1  0.0000000  0.6508444  3
   1339   1338   1350   1352     1  0.0000000  0.6508444  3
   1340   1338   1334   1341     1  0.0000000  1.2552000  3
   1340   1338   1350   1356     1  0.0000000  0.6508444  3
   1340   1338   1350   1351     1  0.0000000  0.6508444  3
   1340   1338   1350   1352     1  0.0000000  0.6508444  3
   1341   1344   1353   1354     1  0.0000000  0.6508444  3
   1341   1344   1353   1355     1  0.0000000  0.6508444  3
   1342   1341   1344   1353     1  0.0000000  0.6508444  3
   1342   1341   1344   1345     1  0.0000000  0.6508444  3
   1342   1341   1344   1346     1  0.0000000  0.6508444  3
   1343   1341   1344   1353     1  0.0000000  0.6508444  3
   1343   1341   1344   1345     1  0.0000000  0.6508444  3
   1343   1341   1344   1346     1  0.0000000  0.6508444  3
   1345   1344   1353   1362     1  0.0000000  1.0460000  1
   1345   1344   1353   1362     1  0.0000000  0.0000000  3
   1345   1344   1353   1354     1  0.0000000  0.6508444  3
   1345   1344   1353   1355     1  0.0000000  0.6508444  3
   1346   1344   1353   1362     1  0.0000000  1.0460000  1
   1346   1344   1353   1362     1  0.0000000  0.0000000  3
   1346   1344   1353   1354     1  0.0000000  0.6508444  3
   1346   1344   1353   1355     1  0.0000000  0.6508444  3
   1348   1347   1359   2783     1  0.0000000  1.0460000  1
   1348   1347   1359   2783     1  0.0000000  0.0000000  3
   1348   1347   1359   1360     1  0.0000000  0.6508444  3
   1348   1347   1359   1361     1  0.0000000  0.6508444  3
   1349   1347   1359   2783     1  0.0000000  1.0460000  1
   1349   1347   1359   2783     1  0.0000000  0.0000000  3
   1349   1347   1359   1360     1  0.0000000  0.6508444  3
   1349   1347   1359   1361     1  0.0000000  0.6508444  3
   1351   1350   1356   2754     1  0.0000000  1.0460000  1
   1351   1350   1356   2754     1  0.0000000  0.0000000  3
   1351   1350   1356   1357     1  0.0000000  0.6508444  3
   1351   1350   1356   1358     1  0.0000000  0.6508444  3
   1352   1350   1356   2754     1  0.0000000  1.0460000  1
   1352   1350   1356   2754     1  0.0000000  0.0000000  3
   1352   1350   1356   1357     1  0.0000000  0.6508444  3
   1352   1350   1356   1358     1  0.0000000  0.6508444  3
   1356   2754   2745   2746     1  0.0000000  1.6038667  3
   1356   2754   2745   2747     1  0.0000000  1.6038667  3
   1357   1356   2754   2745     1  0.0000000  1.6038667  3
   1358   1356   2754   2745     1  0.0000000  1.6038667  3
   1359   2783   2774   2775     1  0.0000000  1.6038667  3
   1359   2783   2774   2776     1  0.0000000  1.6038667  3
   1360   1359   2783   2774     1  0.0000000  1.6038667  3
   1361   1359   2783   2774     1  0.0000000  1.6038667  3
   1363   1364   1376   1377     1  0.0000000  0.6508444  3
   1363   1364   1376   1378     1  0.0000000  0.6508444  3
   1363   1367   1379   1380     1  0.0000000  0.6508444  3
   1363   1367   1379   1381     1  0.0000000  0.6508444  3
   1363   1370   1373   1374     1  0.0000000  0.6508444  3
   1363   1370   1373   1375     1  0.0000000  0.6508444  3
   1364   1363   1367   1368     1  0.0000000  1.2552000  3
   1364   1363   1367   1369     1  0.0000000  1.2552000  3
   1364   1363   1370   1371     1  0.0000000  1.2552000  3
   1364   1363   1370   1372     1  0.0000000  1.2552000  3
   1364   1376   1388   1389     1  0.0000000  0.6508444  3
   1364   1376   1388   1390     1  0.0000000  0.6508444  3
   1365   1364   1363   1367     1  0.0000000  1.2552000  3
   1365   1364   1363   1370     1  0.0000000  1.2552000  3
   1365   1364   1376   1388     1  0.0000000  0.6508444  3
   1365   1364   1376   1377     1  0.0000000  0.6508444  3
   1365   1364   1376   1378     1  0.0000000  0.6508444  3
   1366   1364   1363   1367     1  0.0000000  1.2552000  3
   1366   1364   1363   1370     1  0.0000000  1.2552000  3
   1366   1364   1376   1388     1  0.0000000  0.6508444  3
   1366   1364   1376   1377     1  0.0000000  0.6508444  3
   1366   1364   1376   1378     1  0.0000000  0.6508444  3
   1367   1363   1370   1371     1  0.0000000  1.2552000  3
   1367   1363   1370   1372     1  0.0000000  1.2552000  3
   1367   1379   1385   1386     1  0.0000000  0.6508444  3
   1367   1379   1385   1387     1  0.0000000  0.6508444  3
   1368   1367   1363   1370     1  0.0000000  1.2552000  3
   1368   1367   1379   1385     1  0.0000000  0.6508444  3
   1368   1367   1379   1380     1  0.0000000  0.6508444  3
   1368   1367   1379   1381     1  0.0000000  0.6508444  3
   1369   1367   1363   1370     1  0.0000000  1.2552000  3
   1369   1367   1379   1385     1  0.0000000  0.6508444  3
   1369   1367   1379   1380     1  0.0000000  0.6508444  3
   1369   1367   1379   1381     1  0.0000000  0.6508444  3
   1370   1373   1382   1383     1  0.0000000  0.6508444  3
   1370   1373   1382   1384     1  0.0000000  0.6508444  3
   1371   1370   1373   1382     1  0.0000000  0.6508444  3
   1371   1370   1373   1374     1  0.0000000  0.6508444  3
   1371   1370   1373   1375     1  0.0000000  0.6508444  3
   1372   1370   1373   1382     1  0.0000000  0.6508444  3
   1372   1370   1373   1374     1  0.0000000  0.6508444  3
   1372   1370   1373   1375     1  0.0000000  0.6508444  3
   1374   1373   1382   1391     1  0.0000000  1.0460000  1
   1374   1373   1382   1391     1  0.0000000  0.0000000  3
   1374   1373   1382   1383     1  0.0000000  0.6508444  3
   1374   1373   1382   1384     1  0.0000000  0.6508444  3
   1375   1373   1382   1391     1  0.0000000  1.0460000  1
   1375   1373   1382   1391     1  0.0000000  0.0000000  3
   1375   1373   1382   1383     1  0.0000000  0.6508444  3
   1375   1373   1382   1384     1  0.0000000  0.6508444  3
   1377   1376   1388   2841     1  0.0000000  1.0460000  1
   1377   1376   1388   2841     1  0.0000000  0.0000000  3
   1377   1376   1388   1389     1  0.0000000  0.6508444  3
   1377   1376   1388   1390     1  0.0000000  0.6508444  3
   1378   1376   1388   2841     1  0.0000000  1.0460000  1
   1378   1376   1388   2841     1  0.0000000  0.0000000  3
   1378   1376   1388   1389     1  0.0000000  0.6508444  3
   1378   1376   1388   1390     1  0.0000000  0.6508444  3
   1380   1379   1385   2812     1  0.0000000  1.0460000  1
   1380   1379   1385   2812     1  0.0000000  0.0000000  3
   1380   1379   1385   1386     1  0.0000000  0.6508444  3
   1380   1379   1385   1387     1  0.0000000  0.6508444  3
   1381   1379   1385   2812     1  0.0000000  1.0460000  1
   1381   1379   1385   2812     1  0.0000000  0.0000000  3
   1381   1379   1385   1386     1  0.0000000  0.6508444  3
   1381   1379   1385   1387     1  0.0000000  0.6508444  3
   1385   2812   2803   2804     1  0.0000000  1.6038667  3
   1385   2812   2803   2805     1  0.0000000  1.6038667  3
   1386   1385   2812   2803     1  0.0000000  1.6038667  3
   1387   1385   2812   2803     1  0.0000000  1.6038667  3
   1388   2841   2832   2833     1  0.0000000  1.6038667  3
   1388   2841   2832   2834     1  0.0000000  1.6038667  3
   1389   1388   2841   2832     1  0.0000000  1.6038667  3
   1390   1388   2841   2832     1  0.0000000  1.6038667  3
   1392   1393   1405   1406     1  0.0000000  0.6508444  3
   1392   1393   1405   1407     1  0.0000000  0.6508444  3
   1392   1396   1408   1409     1  0.0000000  0.6508444  3
   1392   1396   1408   1410     1  0.0000000  0.6508444  3
   1392   1399   1402   1403     1  0.0000000  0.6508444  3
   1392   1399   1402   1404     1  0.0000000  0.6508444  3
   1393   1392   1396   1397     1  0.0000000  1.2552000  3
   1393   1392   1396   1398     1  0.0000000  1.2552000  3
   1393   1392   1399   1400     1  0.0000000  1.2552000  3
   1393   1392   1399   1401     1  0.0000000  1.2552000  3
   1393   1405   1417   1418     1  0.0000000  0.6508444  3
   1393   1405   1417   1419     1  0.0000000  0.6508444  3
   1394   1393   1392   1396     1  0.0000000  1.2552000  3
   1394   1393   1392   1399     1  0.0000000  1.2552000  3
   1394   1393   1405   1417     1  0.0000000  0.6508444  3
   1394   1393   1405   1406     1  0.0000000  0.6508444  3
   1394   1393   1405   1407     1  0.0000000  0.6508444  3
   1395   1393   1392   1396     1  0.0000000  1.2552000  3
   1395   1393   1392   1399     1  0.0000000  1.2552000  3
   1395   1393   1405   1417     1  0.0000000  0.6508444  3
   1395   1393   1405   1406     1  0.0000000  0.6508444  3
   1395   1393   1405   1407     1  0.0000000  0.6508444  3
   1396   1392   1399   1400     1  0.0000000  1.2552000  3
   1396   1392   1399   1401     1  0.0000000  1.2552000  3
   1396   1408   1414   1415     1  0.0000000  0.6508444  3
   1396   1408   1414   1416     1  0.0000000  0.6508444  3
   1397   1396   1392   1399     1  0.0000000  1.2552000  3
   1397   1396   1408   1414     1  0.0000000  0.6508444  3
   1397   1396   1408   1409     1  0.0000000  0.6508444  3
   1397   1396   1408   1410     1  0.0000000  0.6508444  3
   1398   1396   1392   1399     1  0.0000000  1.2552000  3
   1398   1396   1408   1414     1  0.0000000  0.6508444  3
   1398   1396   1408   1409     1  0.0000000  0.6508444  3
   1398   1396   1408   1410     1  0.0000000  0.6508444  3
   1399   1402   1411   1412     1  0.0000000  0.6508444  3
   1399   1402   1411   1413     1  0.0000000  0.6508444  3
   1400   1399   1402   1411     1  0.0000000  0.6508444  3
   1400   1399   1402   1403     1  0.0000000  0.6508444  3
   1400   1399   1402   1404     1  0.0000000  0.6508444  3
   1401   1399   1402   1411     1  0.0000000  0.6508444  3
   1401   1399   1402   1403     1  0.0000000  0.6508444  3
   1401   1399   1402   1404     1  0.0000000  0.6508444  3
   1403   1402   1411   1420     1  0.0000000  1.0460000  1
   1403   1402   1411   1420     1  0.0000000  0.0000000  3
   1403   1402   1411   1412     1  0.0000000  0.6508444  3
   1403   1402   1411   1413     1  0.0000000  0.6508444  3
   1404   1402   1411   1420     1  0.0000000  1.0460000  1
   1404   1402   1411   1420     1  0.0000000  0.0000000  3
   1404   1402   1411   1412     1  0.0000000  0.6508444  3
   1404   1402   1411   1413     1  0.0000000  0.6508444  3
   1406   1405   1417   2899     1  0.0000000  1.0460000  1
   1406   1405   1417   2899     1  0.0000000  0.0000000  3
   1406   1405   1417   1418     1  0.0000000  0.6508444  3
   1406   1405   1417   1419     1  0.0000000  0.6508444  3
   1407   1405   1417   2899     1  0.0000000  1.0460000  1
   1407   1405   1417   2899     1  0.0000000  0.0000000  3
   1407   1405   1417   1418     1  0.0000000  0.6508444  3
   1407   1405   1417   1419     1  0.0000000  0.6508444  3
   1409   1408   1414   2870     1  0.0000000  1.0460000  1
   1409   1408   1414   2870     1  0.0000000  0.0000000  3
   1409   1408   1414   1415     1  0.0000000  0.6508444  3
   1409   1408   1414   1416     1  0.0000000  0.6508444  3
   1410   1408   1414   2870     1  0.0000000  1.0460000  1
   1410   1408   1414   2870     1  0.0000000  0.0000000  3
   1410   1408   1414   1415     1  0.0000000  0.6508444  3
   1410   1408   1414   1416     1  0.0000000  0.6508444  3
   1414   2870   2861   2862     1  0.0000000  1.6038667  3
   1414   2870   2861   2863     1  0.0000000  1.6038667  3
   1415   1414   2870   2861     1  0.0000000  1.6038667  3
   1416   1414   2870   2861     1  0.0000000  1.6038667  3
   1417   2899   2890   2891     1  0.0000000  1.6038667  3
   1417   2899   2890   2892     1  0.0000000  1.6038667  3
   1418   1417   2899   2890     1  0.0000000  1.6038667  3
   1419   1417   2899   2890     1  0.0000000  1.6038667  3
   1421   1422   1434   1435     1  0.0000000  0.6508444  3
   1421   1422   1434   1436     1  0.0000000  0.6508444  3
   1421   1425   1437   1438     1  0.0000000  0.6508444  3
   1421   1425   1437   1439     1  0.0000000  0.6508444  3
   1421   1428   1431   1432     1  0.0000000  0.6508444  3
   1421   1428   1431   1433     1  0.0000000  0.6508444  3
   1422   1421   1425   1426     1  0.0000000  1.2552000  3
   1422   1421   1425   1427     1  0.0000000  1.2552000  3
   1422   1421   1428   1429     1  0.0000000  1.2552000  3
   1422   1421   1428   1430     1  0.0000000  1.2552000  3
   1422   1434   1446   1447     1  0.0000000  0.6508444  3
   1422   1434   1446   1448     1  0.0000000  0.6508444  3
   1423   1422   1421   1425     1  0.0000000  1.2552000  3
   1423   1422   1421   1428     1  0.0000000  1.2552000  3
   1423   1422   1434   1446     1  0.0000000  0.6508444  3
   1423   1422   1434   1435     1  0.0000000  0.6508444  3
   1423   1422   1434   1436     1  0.0000000  0.6508444  3
   1424   1422   1421   1425     1  0.0000000  1.2552000  3
   1424   1422   1421   1428     1  0.0000000  1.2552000  3
   1424   1422   1434   1446     1  0.0000000  0.6508444  3
   1424   1422   1434   1435     1  0.0000000  0.6508444  3
   1424   1422   1434   1436     1  0.0000000  0.6508444  3
   1425   1421   1428   1429     1  0.0000000  1.2552000  3
   1425   1421   1428   1430     1  0.0000000  1.2552000  3
   1425   1437   1443   1444     1  0.0000000  0.6508444  3
   1425   1437   1443   1445     1  0.0000000  0.6508444  3
   1426   1425   1421   1428     1  0.0000000  1.2552000  3
   1426   1425   1437   1443     1  0.0000000  0.6508444  3
   1426   1425   1437   1438     1  0.0000000  0.6508444  3
   1426   1425   1437   1439     1  0.0000000  0.6508444  3
   1427   1425   1421   1428     1  0.0000000  1.2552000  3
   1427   1425   1437   1443     1  0.0000000  0.6508444  3
   1427   1425   1437   1438     1  0.0000000  0.6508444  3
   1427   1425   1437   1439     1  0.0000000  0.6508444  3
   1428   1431   1440   1441     1  0.0000000  0.6508444  3
   1428   1431   1440   1442     1  0.0000000  0.6508444  3
   1429   1428   1431   1440     1  0.0000000  0.6508444  3
   1429   1428   1431   1432     1  0.0000000  0.6508444  3
   1429   1428   1431   1433     1  0.0000000  0.6508444  3
   1430   1428   1431   1440     1  0.0000000  0.6508444  3
   1430   1428   1431   1432     1  0.0000000  0.6508444  3
   1430   1428   1431   1433     1  0.0000000  0.6508444  3
   1432   1431   1440   1449     1  0.0000000  1.0460000  1
   1432   1431   1440   1449     1  0.0000000  0.0000000  3
   1432   1431   1440   1441     1  0.0000000  0.6508444  3
   1432   1431   1440   1442     1  0.0000000  0.6508444  3
   1433   1431   1440   1449     1  0.0000000  1.0460000  1
   1433   1431   1440   1449     1  0.0000000  0.0000000  3
   1433   1431   1440   1441     1  0.0000000  0.6508444  3
   1433   1431   1440   1442     1  0.0000000  0.6508444  3
   1435   1434   1446   2957     1  0.0000000  1.0460000  1
   1435   1434   1446   2957     1  0.0000000  0.0000000  3
   1435   1434   1446   1447     1  0.0000000  0.6508444  3
   1435   1434   1446   1448     1  0.0000000  0.6508444  3
   1436   1434   1446   2957     1  0.0000000  1.0460000  1
   1436   1434   1446   2957     1  0.0000000  0.0000000  3
   1436   1434   1446   1447     1  0.0000000  0.6508444  3
   1436   1434   1446   1448     1  0.0000000  0.6508444  3
   1438   1437   1443   2928     1  0.0000000  1.0460000  1
   1438   1437   1443   2928     1  0.0000000  0.0000000  3
   1438   1437   1443   1444     1  0.0000000  0.6508444  3
   1438   1437   1443   1445     1  0.0000000  0.6508444  3
   1439   1437   1443   2928     1  0.0000000  1.0460000  1
   1439   1437   1443   2928     1  0.0000000  0.0000000  3
   1439   1437   1443   1444     1  0.0000000  0.6508444  3
   1439   1437   1443   1445     1  0.0000000  0.6508444  3
   1443   2928   2919   2920     1  0.0000000  1.6038667  3
   1443   2928   2919   2921     1  0.0000000  1.6038667  3
   1444   1443   2928   2919     1  0.0000000  1.6038667  3
   1445   1443   2928   2919     1  0.0000000  1.6038667  3
   1446   2957   2948   2949     1  0.0000000  1.6038667  3
   1446   2957   2948   2950     1  0.0000000  1.6038667  3
   1447   1446   2957   2948     1  0.0000000  1.6038667  3
   1448   1446   2957   2948     1  0.0000000  1.6038667  3
   1450   1451   1463   1464     1  0.0000000  0.6508444  3
   1450   1451   1463   1465     1  0.0000000  0.6508444  3
   1450   1454   1466   1467     1  0.0000000  0.6508444  3
   1450   1454   1466   1468     1  0.0000000  0.6508444  3
   1450   1457   1460   1461     1  0.0000000  0.6508444  3
   1450   1457   1460   1462     1  0.0000000  0.6508444  3
   1451   1450   1454   1455     1  0.0000000  1.2552000  3
   1451   1450   1454   1456     1  0.0000000  1.2552000  3
   1451   1450   1457   1458     1  0.0000000  1.2552000  3
   1451   1450   1457   1459     1  0.0000000  1.2552000  3
   1451   1463   1475   1476     1  0.0000000  0.6508444  3
   1451   1463   1475   1477     1  0.0000000  0.6508444  3
   1452   1451   1450   1454     1  0.0000000  1.2552000  3
   1452   1451   1450   1457     1  0.0000000  1.2552000  3
   1452   1451   1463   1475     1  0.0000000  0.6508444  3
   1452   1451   1463   1464     1  0.0000000  0.6508444  3
   1452   1451   1463   1465     1  0.0000000  0.6508444  3
   1453   1451   1450   1454     1  0.0000000  1.2552000  3
   1453   1451   1450   1457     1  0.0000000  1.2552000  3
   1453   1451   1463   1475     1  0.0000000  0.6508444  3
   1453   1451   1463   1464     1  0.0000000  0.6508444  3
   1453   1451   1463   1465     1  0.0000000  0.6508444  3
   1454   1450   1457   1458     1  0.0000000  1.2552000  3
   1454   1450   1457   1459     1  0.0000000  1.2552000  3
   1454   1466   1472   1473     1  0.0000000  0.6508444  3
   1454   1466   1472   1474     1  0.0000000  0.6508444  3
   1455   1454   1450   1457     1  0.0000000  1.2552000  3
   1455   1454   1466   1472     1  0.0000000  0.6508444  3
   1455   1454   1466   1467     1  0.0000000  0.6508444  3
   1455   1454   1466   1468     1  0.0000000  0.6508444  3
   1456   1454   1450   1457     1  0.0000000  1.2552000  3
   1456   1454   1466   1472     1  0.0000000  0.6508444  3
   1456   1454   1466   1467     1  0.0000000  0.6508444  3
   1456   1454   1466   1468     1  0.0000000  0.6508444  3
   1457   1460   1469   1470     1  0.0000000  0.6508444  3
   1457   1460   1469   1471     1  0.0000000  0.6508444  3
   1458   1457   1460   1469     1  0.0000000  0.6508444  3
   1458   1457   1460   1461     1  0.0000000  0.6508444  3
   1458   1457   1460   1462     1  0.0000000  0.6508444  3
   1459   1457   1460   1469     1  0.0000000  0.6508444  3
   1459   1457   1460   1461     1  0.0000000  0.6508444  3
   1459   1457   1460   1462     1  0.0000000  0.6508444  3
   1461   1460   1469   1478     1  0.0000000  1.0460000  1
   1461   1460   1469   1478     1  0.0000000  0.0000000  3
   1461   1460   1469   1470     1  0.0000000  0.6508444  3
   1461   1460   1469   1471     1  0.0000000  0.6508444  3
   1462   1460   1469   1478     1  0.0000000  1.0460000  1
   1462   1460   1469   1478     1  0.0000000  0.0000000  3
   1462   1460   1469   1470     1  0.0000000  0.6508444  3
   1462   1460   1469   1471     1  0.0000000  0.6508444  3
   1464   1463   1475   3015     1  0.0000000  1.0460000  1
   1464   1463   1475   3015     1  0.0000000  0.0000000  3
   1464   1463   1475   1476     1  0.0000000  0.6508444  3
   1464   1463   1475   1477     1  0.0000000  0.6508444  3
   1465   1463   1475   3015     1  0.0000000  1.0460000  1
   1465   1463   1475   3015     1  0.0000000  0.0000000  3
   1465   1463   1475   1476     1  0.0000000  0.6508444  3
   1465   1463   1475   1477     1  0.0000000  0.6508444  3
   1467   1466   1472   2986     1  0.0000000  1.0460000  1
   1467   1466   1472   2986     1  0.0000000  0.0000000  3
   1467   1466   1472   1473     1  0.0000000  0.6508444  3
   1467   1466   1472   1474     1  0.0000000  0.6508444  3
   1468   1466   1472   2986     1  0.0000000  1.0460000  1
   1468   1466   1472   2986     1  0.0000000  0.0000000  3
   1468   1466   1472   1473     1  0.0000000  0.6508444  3
   1468   1466   1472   1474     1  0.0000000  0.6508444  3
   1472   2986   2977   2978     1  0.0000000  1.6038667  3
   1472   2986   2977   2979     1  0.0000000  1.6038667  3
   1473   1472   2986   2977     1  0.0000000  1.6038667  3
   1474   1472   2986   2977     1  0.0000000  1.6038667  3
   1475   3015   3006   3007     1  0.0000000  1.6038667  3
   1475   3015   3006   3008     1  0.0000000  1.6038667  3
   1476   1475   3015   3006     1  0.0000000  1.6038667  3
   1477   1475   3015   3006     1  0.0000000  1.6038667  3
   1479   1480   1492   1493     1  0.0000000  0.6508444  3
   1479   1480   1492   1494     1  0.0000000  0.6508444  3
   1479   1483   1495   1496     1  0.0000000  0.6508444  3
   1479   1483   1495   1497     1  0.0000000  0.6508444  3
   1479   1486   1489   1490     1  0.0000000  0.6508444  3
   1479   1486   1489   1491     1  0.0000000  0.6508444  3
   1480   1479   1483   1484     1  0.0000000  1.2552000  3
   1480   1479   1483   1485     1  0.0000000  1.2552000  3
   1480   1479   1486   1487     1  0.0000000  1.2552000  3
   1480   1479   1486   1488     1  0.0000000  1.2552000  3
   1480   1492   1504   1505     1  0.0000000  0.6508444  3
   1480   1492   1504   1506     1  0.0000000  0.6508444  3
   1481   1480   1479   1483     1  0.0000000  1.2552000  3
   1481   1480   1479   1486     1  0.0000000  1.2552000  3
   1481   1480   1492   1504     1  0.0000000  0.6508444  3
   1481   1480   1492   1493     1  0.0000000  0.6508444  3
   1481   1480   1492   1494     1  0.0000000  0.6508444  3
   1482   1480   1479   1483     1  0.0000000  1.2552000  3
   1482   1480   1479   1486     1  0.0000000  1.2552000  3
   1482   1480   1492   1504     1  0.0000000  0.6508444  3
   1482   1480   1492   1493     1  0.0000000  0.6508444  3
   1482   1480   1492   1494     1  0.0000000  0.6508444  3
   1483   1479   1486   1487     1  0.0000000  1.2552000  3
   1483   1479   1486   1488     1  0.0000000  1.2552000  3
   1483   1495   1501   1502     1  0.0000000  0.6508444  3
   1483   1495   1501   1503     1  0.0000000  0.6508444  3
   1484   1483   1479   1486     1  0.0000000  1.2552000  3
   1484   1483   1495   1501     1  0.0000000  0.6508444  3
   1484   1483   1495   1496     1  0.0000000  0.6508444  3
   1484   1483   1495   1497     1  0.0000000  0.6508444  3
   1485   1483   1479   1486     1  0.0000000  1.2552000  3
   1485   1483   1495   1501     1  0.0000000  0.6508444  3
   1485   1483   1495   1496     1  0.0000000  0.6508444  3
   1485   1483   1495   1497     1  0.0000000  0.6508444  3
   1486   1489   1498   1499     1  0.0000000  0.6508444  3
   1486   1489   1498   1500     1  0.0000000  0.6508444  3
   1487   1486   1489   1498     1  0.0000000  0.6508444  3
   1487   1486   1489   1490     1  0.0000000  0.6508444  3
   1487   1486   1489   1491     1  0.0000000  0.6508444  3
   1488   1486   1489   1498     1  0.0000000  0.6508444  3
   1488   1486   1489   1490     1  0.0000000  0.6508444  3
   1488   1486   1489   1491     1  0.0000000  0.6508444  3
   1490   1489   1498   1507     1  0.0000000  1.0460000  1
   1490   1489   1498   1507     1  0.0000000  0.0000000  3
   1490   1489   1498   1499     1  0.0000000  0.6508444  3
   1490   1489   1498   1500     1  0.0000000  0.6508444  3
   1491   1489   1498   1507     1  0.0000000  1.0460000  1
   1491   1489   1498   1507     1  0.0000000  0.0000000  3
   1491   1489   1498   1499     1  0.0000000  0.6508444  3
   1491   1489   1498   1500     1  0.0000000  0.6508444  3
   1493   1492   1504   3073     1  0.0000000  1.0460000  1
   1493   1492   1504   3073     1  0.0000000  0.0000000  3
   1493   1492   1504   1505     1  0.0000000  0.6508444  3
   1493   1492   1504   1506     1  0.0000000  0.6508444  3
   1494   1492   1504   3073     1  0.0000000  1.0460000  1
   1494   1492   1504   3073     1  0.0000000  0.0000000  3
   1494   1492   1504   1505     1  0.0000000  0.6508444  3
   1494   1492   1504   1506     1  0.0000000  0.6508444  3
   1496   1495   1501   3044     1  0.0000000  1.0460000  1
   1496   1495   1501   3044     1  0.0000000  0.0000000  3
   1496   1495   1501   1502     1  0.0000000  0.6508444  3
   1496   1495   1501   1503     1  0.0000000  0.6508444  3
   1497   1495   1501   3044     1  0.0000000  1.0460000  1
   1497   1495   1501   3044     1  0.0000000  0.0000000  3
   1497   1495   1501   1502     1  0.0000000  0.6508444  3
   1497   1495   1501   1503     1  0.0000000  0.6508444  3
   1501   3044   3035   3036     1  0.0000000  1.6038667  3
   1501   3044   3035   3037     1  0.0000000  1.6038667  3
   1502   1501   3044   3035     1  0.0000000  1.6038667  3
   1503   1501   3044   3035     1  0.0000000  1.6038667  3
   1504   3073   3064   3065     1  0.0000000  1.6038667  3
   1504   3073   3064   3066     1  0.0000000  1.6038667  3
   1505   1504   3073   3064     1  0.0000000  1.6038667  3
   1506   1504   3073   3064     1  0.0000000  1.6038667  3
   1508   1509   1521   1522     1  0.0000000  0.6508444  3
   1508   1509   1521   1523     1  0.0000000  0.6508444  3
   1508   1512   1524   1525     1  0.0000000  0.6508444  3
   1508   1512   1524   1526     1  0.0000000  0.6508444  3
   1508   1515   1518   1519     1  0.0000000  0.6508444  3
   1508   1515   1518   1520     1  0.0000000  0.6508444  3
   1509   1508   1512   1513     1  0.0000000  1.2552000  3
   1509   1508   1512   1514     1  0.0000000  1.2552000  3
   1509   1508   1515   1516     1  0.0000000  1.2552000  3
   1509   1508   1515   1517     1  0.0000000  1.2552000  3
   1509   1521   1533   1534     1  0.0000000  0.6508444  3
   1509   1521   1533   1535     1  0.0000000  0.6508444  3
   1510   1509   1508   1512     1  0.0000000  1.2552000  3
   1510   1509   1508   1515     1  0.0000000  1.2552000  3
   1510   1509   1521   1533     1  0.0000000  0.6508444  3
   1510   1509   1521   1522     1  0.0000000  0.6508444  3
   1510   1509   1521   1523     1  0.0000000  0.6508444  3
   1511   1509   1508   1512     1  0.0000000  1.2552000  3
   1511   1509   1508   1515     1  0.0000000  1.2552000  3
   1511   1509   1521   1533     1  0.0000000  0.6508444  3
   1511   1509   1521   1522     1  0.0000000  0.6508444  3
   1511   1509   1521   1523     1  0.0000000  0.6508444  3
   1512   1508   1515   1516     1  0.0000000  1.2552000  3
   1512   1508   1515   1517     1  0.0000000  1.2552000  3
   1512   1524   1530   1531     1  0.0000000  0.6508444  3
   1512   1524   1530   1532     1  0.0000000  0.6508444  3
   1513   1512   1508   1515     1  0.0000000  1.2552000  3
   1513   1512   1524   1530     1  0.0000000  0.6508444  3
   1513   1512   1524   1525     1  0.0000000  0.6508444  3
   1513   1512   1524   1526     1  0.0000000  0.6508444  3
   1514   1512   1508   1515     1  0.0000000  1.2552000  3
   1514   1512   1524   1530     1  0.0000000  0.6508444  3
   1514   1512   1524   1525     1  0.0000000  0.6508444  3
   1514   1512   1524   1526     1  0.0000000  0.6508444  3
   1515   1518   1527   1528     1  0.0000000  0.6508444  3
   1515   1518   1527   1529     1  0.0000000  0.6508444  3
   1516   1515   1518   1527     1  0.0000000  0.6508444  3
   1516   1515   1518   1519     1  0.0000000  0.6508444  3
   1516   1515   1518   1520     1  0.0000000  0.6508444  3
   1517   1515   1518   1527     1  0.0000000  0.6508444  3
   1517   1515   1518   1519     1  0.0000000  0.6508444  3
   1517   1515   1518   1520     1  0.0000000  0.6508444  3
   1519   1518   1527   1536     1  0.0000000  1.0460000  1
   1519   1518   1527   1536     1  0.0000000  0.0000000  3
   1519   1518   1527   1528     1  0.0000000  0.6508444  3
   1519   1518   1527   1529     1  0.0000000  0.6508444  3
   1520   1518   1527   1536     1  0.0000000  1.0460000  1
   1520   1518   1527   1536     1  0.0000000  0.0000000  3
   1520   1518   1527   1528     1  0.0000000  0.6508444  3
   1520   1518   1527   1529     1  0.0000000  0.6508444  3
   1522   1521   1533   3131     1  0.0000000  1.0460000  1
   1522   1521   1533   3131     1  0.0000000  0.0000000  3
   1522   1521   1533   1534     1  0.0000000  0.6508444  3
   1522   1521   1533   1535     1  0.0000000  0.6508444  3
   1523   1521   1533   3131     1  0.0000000  1.0460000  1
   1523   1521   1533   3131     1  0.0000000  0.0000000  3
   1523   1521   1533   1534     1  0.0000000  0.6508444  3
   1523   1521   1533   1535     1  0.0000000  0.6508444  3
   1525   1524   1530   3102     1  0.0000000  1.0460000  1
   1525   1524   1530   3102     1  0.0000000  0.0000000  3
   1525   1524   1530   1531     1  0.0000000  0.6508444  3
   1525   1524   1530   1532     1  0.0000000  0.6508444  3
   1526   1524   1530   3102     1  0.0000000  1.0460000  1
   1526   1524   1530   3102     1  0.0000000  0.0000000  3
   1526   1524   1530   1531     1  0.0000000  0.6508444  3
   1526   1524   1530   1532     1  0.0000000  0.6508444  3
   1530   3102   3093   3094     1  0.0000000  1.6038667  3
   1530   3102   3093   3095     1  0.0000000  1.6038667  3
   1531   1530   3102   3093     1  0.0000000  1.6038667  3
   1532   1530   3102   3093     1  0.0000000  1.6038667  3
   1533   3131   3122   3123     1  0.0000000  1.6038667  3
   1533   3131   3122   3124     1  0.0000000  1.6038667  3
   1534   1533   3131   3122     1  0.0000000  1.6038667  3
   1535   1533   3131   3122     1  0.0000000  1.6038667  3
   1537   1538   1550   1551     1  0.0000000  0.6508444  3
   1537   1538   1550   1552     1  0.0000000  0.6508444  3
   1537   1541   1553   1554     1  0.0000000  0.6508444  3
   1537   1541   1553   1555     1  0.0000000  0.6508444  3
   1537   1544   1547   1548     1  0.0000000  0.6508444  3
   1537   1544   1547   1549     1  0.0000000  0.6508444  3
   1538   1537   1541   1542     1  0.0000000  1.2552000  3
   1538   1537   1541   1543     1  0.0000000  1.2552000  3
   1538   1537   1544   1545     1  0.0000000  1.2552000  3
   1538   1537   1544   1546     1  0.0000000  1.2552000  3
   1538   1550   1562   1563     1  0.0000000  0.6508444  3
   1538   1550   1562   1564     1  0.0000000  0.6508444  3
   1539   1538   1537   1541     1  0.0000000  1.2552000  3
   1539   1538   1537   1544     1  0.0000000  1.2552000  3
   1539   1538   1550   1562     1  0.0000000  0.6508444  3
   1539   1538   1550   1551     1  0.0000000  0.6508444  3
   1539   1538   1550   1552     1  0.0000000  0.6508444  3
   1540   1538   1537   1541     1  0.0000000  1.2552000  3
   1540   1538   1537   1544     1  0.0000000  1.2552000  3
   1540   1538   1550   1562     1  0.0000000  0.6508444  3
   1540   1538   1550   1551     1  0.0000000  0.6508444  3
   1540   1538   1550   1552     1  0.0000000  0.6508444  3
   1541   1537   1544   1545     1  0.0000000  1.2552000  3
   1541   1537   1544   1546     1  0.0000000  1.2552000  3
   1541   1553   1559   1560     1  0.0000000  0.6508444  3
   1541   1553   1559   1561     1  0.0000000  0.6508444  3
   1542   1541   1537   1544     1  0.0000000  1.2552000  3
   1542   1541   1553   1559     1  0.0000000  0.6508444  3
   1542   1541   1553   1554     1  0.0000000  0.6508444  3
   1542   1541   1553   1555     1  0.0000000  0.6508444  3
   1543   1541   1537   1544     1  0.0000000  1.2552000  3
   1543   1541   1553   1559     1  0.0000000  0.6508444  3
   1543   1541   1553   1554     1  0.0000000  0.6508444  3
   1543   1541   1553   1555     1  0.0000000  0.6508444  3
   1544   1547   1556   1557     1  0.0000000  0.6508444  3
   1544   1547   1556   1558     1  0.0000000  0.6508444  3
   1545   1544   1547   1556     1  0.0000000  0.6508444  3
   1545   1544   1547   1548     1  0.0000000  0.6508444  3
   1545   1544   1547   1549     1  0.0000000  0.6508444  3
   1546   1544   1547   1556     1  0.0000000  0.6508444  3
   1546   1544   1547   1548     1  0.0000000  0.6508444  3
   1546   1544   1547   1549     1  0.0000000  0.6508444  3
   1548   1547   1556   1565     1  0.0000000  1.0460000  1
   1548   1547   1556   1565     1  0.0000000  0.0000000  3
   1548   1547   1556   1557     1  0.0000000  0.6508444  3
   1548   1547   1556   1558     1  0.0000000  0.6508444  3
   1549   1547   1556   1565     1  0.0000000  1.0460000  1
   1549   1547   1556   1565     1  0.0000000  0.0000000  3
   1549   1547   1556   1557     1  0.0000000  0.6508444  3
   1549   1547   1556   1558     1  0.0000000  0.6508444  3
   1551   1550   1562   3189     1  0.0000000  1.0460000  1
   1551   1550   1562   3189     1  0.0000000  0.0000000  3
   1551   1550   1562   1563     1  0.0000000  0.6508444  3
   1551   1550   1562   1564     1  0.0000000  0.6508444  3
   1552   1550   1562   3189     1  0.0000000  1.0460000  1
   1552   1550   1562   3189     1  0.0000000  0.0000000  3
   1552   1550   1562   1563     1  0.0000000  0.6508444  3
   1552   1550   1562   1564     1  0.0000000  0.6508444  3
   1554   1553   1559   3160     1  0.0000000  1.0460000  1
   1554   1553   1559   3160     1  0.0000000  0.0000000  3
   1554   1553   1559   1560     1  0.0000000  0.6508444  3
   1554   1553   1559   1561     1  0.0000000  0.6508444  3
   1555   1553   1559   3160     1  0.0000000  1.0460000  1
   1555   1553   1559   3160     1  0.0000000  0.0000000  3
   1555   1553   1559   1560     1  0.0000000  0.6508444  3
   1555   1553   1559   1561     1  0.0000000  0.6508444  3
   1559   3160   3151   3152     1  0.0000000  1.6038667  3
   1559   3160   3151   3153     1  0.0000000  1.6038667  3
   1560   1559   3160   3151     1  0.0000000  1.6038667  3
   1561   1559   3160   3151     1  0.0000000  1.6038667  3
   1562   3189   3180   3181     1  0.0000000  1.6038667  3
   1562   3189   3180   3182     1  0.0000000  1.6038667  3
   1563   1562   3189   3180     1  0.0000000  1.6038667  3
   1564   1562   3189   3180     1  0.0000000  1.6038667  3
   1566   1567   1579   1580     1  0.0000000  0.6508444  3
   1566   1567   1579   1581     1  0.0000000  0.6508444  3
   1566   1570   1582   1583     1  0.0000000  0.6508444  3
   1566   1570   1582   1584     1  0.0000000  0.6508444  3
   1566   1573   1576   1577     1  0.0000000  0.6508444  3
   1566   1573   1576   1578     1  0.0000000  0.6508444  3
   1567   1566   1570   1571     1  0.0000000  1.2552000  3
   1567   1566   1570   1572     1  0.0000000  1.2552000  3
   1567   1566   1573   1574     1  0.0000000  1.2552000  3
   1567   1566   1573   1575     1  0.0000000  1.2552000  3
   1567   1579   1591   1592     1  0.0000000  0.6508444  3
   1567   1579   1591   1593     1  0.0000000  0.6508444  3
   1568   1567   1566   1570     1  0.0000000  1.2552000  3
   1568   1567   1566   1573     1  0.0000000  1.2552000  3
   1568   1567   1579   1591     1  0.0000000  0.6508444  3
   1568   1567   1579   1580     1  0.0000000  0.6508444  3
   1568   1567   1579   1581     1  0.0000000  0.6508444  3
   1569   1567   1566   1570     1  0.0000000  1.2552000  3
   1569   1567   1566   1573     1  0.0000000  1.2552000  3
   1569   1567   1579   1591     1  0.0000000  0.6508444  3
   1569   1567   1579   1580     1  0.0000000  0.6508444  3
   1569   1567   1579   1581     1  0.0000000  0.6508444  3
   1570   1566   1573   1574     1  0.0000000  1.2552000  3
   1570   1566   1573   1575     1  0.0000000  1.2552000  3
   1570   1582   1588   1589     1  0.0000000  0.6508444  3
   1570   1582   1588   1590     1  0.0000000  0.6508444  3
   1571   1570   1566   1573     1  0.0000000  1.2552000  3
   1571   1570   1582   1588     1  0.0000000  0.6508444  3
   1571   1570   1582   1583     1  0.0000000  0.6508444  3
   1571   1570   1582   1584     1  0.0000000  0.6508444  3
   1572   1570   1566   1573     1  0.0000000  1.2552000  3
   1572   1570   1582   1588     1  0.0000000  0.6508444  3
   1572   1570   1582   1583     1  0.0000000  0.6508444  3
   1572   1570   1582   1584     1  0.0000000  0.6508444  3
   1573   1576   1585   1586     1  0.0000000  0.6508444  3
   1573   1576   1585   1587     1  0.0000000  0.6508444  3
   1574   1573   1576   1585     1  0.0000000  0.6508444  3
   1574   1573   1576   1577     1  0.0000000  0.6508444  3
   1574   1573   1576   1578     1  0.0000000  0.6508444  3
   1575   1573   1576   1585     1  0.0000000  0.6508444  3
   1575   1573   1576   1577     1  0.0000000  0.6508444  3
   1575   1573   1576   1578     1  0.0000000  0.6508444  3
   1577   1576   1585   1594     1  0.0000000  1.0460000  1
   1577   1576   1585   1594     1  0.0000000  0.0000000  3
   1577   1576   1585   1586     1  0.0000000  0.6508444  3
   1577   1576   1585   1587     1  0.0000000  0.6508444  3
   1578   1576   1585   1594     1  0.0000000  1.0460000  1
   1578   1576   1585   1594     1  0.0000000  0.0000000  3
   1578   1576   1585   1586     1  0.0000000  0.6508444  3
   1578   1576   1585   1587     1  0.0000000  0.6508444  3
   1580   1579   1591   3247     1  0.0000000  1.0460000  1
   1580   1579   1591   3247     1  0.0000000  0.0000000  3
   1580   1579   1591   1592     1  0.0000000  0.6508444  3
   1580   1579   1591   1593     1  0.0000000  0.6508444  3
   1581   1579   1591   3247     1  0.0000000  1.0460000  1
   1581   1579   1591   3247     1  0.0000000  0.0000000  3
   1581   1579   1591   1592     1  0.0000000  0.6508444  3
   1581   1579   1591   1593     1  0.0000000  0.6508444  3
   1583   1582   1588   3218     1  0.0000000  1.0460000  1
   1583   1582   1588   3218     1  0.0000000  0.0000000  3
   1583   1582   1588   1589     1  0.0000000  0.6508444  3
   1583   1582   1588   1590     1  0.0000000  0.6508444  3
   1584   1582   1588   3218     1  0.0000000  1.0460000  1
   1584   1582   1588   3218     1  0.0000000  0.0000000  3
   1584   1582   1588   1589     1  0.0000000  0.6508444  3
   1584   1582   1588   1590     1  0.0000000  0.6508444  3
   1588   3218   3209   3210     1  0.0000000  1.6038667  3
   1588   3218   3209   3211     1  0.0000000  1.6038667  3
   1589   1588   3218   3209     1  0.0000000  1.6038667  3
   1590   1588   3218   3209     1  0.0000000  1.6038667  3
   1591   3247   3238   3239     1  0.0000000  1.6038667  3
   1591   3247   3238   3240     1  0.0000000  1.6038667  3
   1592   1591   3247   3238     1  0.0000000  1.6038667  3
   1593   1591   3247   3238     1  0.0000000  1.6038667  3
   1595   1596   1608   1609     1  0.0000000  0.6508444  3
   1595   1596   1608   1610     1  0.0000000  0.6508444  3
   1595   1599   1611   1612     1  0.0000000  0.6508444  3
   1595   1599   1611   1613     1  0.0000000  0.6508444  3
   1595   1602   1605   1606     1  0.0000000  0.6508444  3
   1595   1602   1605   1607     1  0.0000000  0.6508444  3
   1596   1595   1599   1600     1  0.0000000  1.2552000  3
   1596   1595   1599   1601     1  0.0000000  1.2552000  3
   1596   1595   1602   1603     1  0.0000000  1.2552000  3
   1596   1595   1602   1604     1  0.0000000  1.2552000  3
   1596   1608   1620   1621     1  0.0000000  0.6508444  3
   1596   1608   1620   1622     1  0.0000000  0.6508444  3
   1597   1596   1595   1599     1  0.0000000  1.2552000  3
   1597   1596   1595   1602     1  0.0000000  1.2552000  3
   1597   1596   1608   1620     1  0.0000000  0.6508444  3
   1597   1596   1608   1609     1  0.0000000  0.6508444  3
   1597   1596   1608   1610     1  0.0000000  0.6508444  3
   1598   1596   1595   1599     1  0.0000000  1.2552000  3
   1598   1596   1595   1602     1  0.0000000  1.2552000  3
   1598   1596   1608   1620     1  0.0000000  0.6508444  3
   1598   1596   1608   1609     1  0.0000000  0.6508444  3
   1598   1596   1608   1610     1  0.0000000  0.6508444  3
   1599   1595   1602   1603     1  0.0000000  1.2552000  3
   1599   1595   1602   1604     1  0.0000000  1.2552000  3
   1599   1611   1617   1618     1  0.0000000  0.6508444  3
   1599   1611   1617   1619     1  0.0000000  0.6508444  3
   1600   1599   1595   1602     1  0.0000000  1.2552000  3
   1600   1599   1611   1617     1  0.0000000  0.6508444  3
   1600   1599   1611   1612     1  0.0000000  0.6508444  3
   1600   1599   1611   1613     1  0.0000000  0.6508444  3
   1601   1599   1595   1602     1  0.0000000  1.2552000  3
   1601   1599   1611   1617     1  0.0000000  0.6508444  3
   1601   1599   1611   1612     1  0.0000000  0.6508444  3
   1601   1599   1611   1613     1  0.0000000  0.6508444  3
   1602   1605   1614   1615     1  0.0000000  0.6508444  3
   1602   1605   1614   1616     1  0.0000000  0.6508444  3
   1603   1602   1605   1614     1  0.0000000  0.6508444  3
   1603   1602   1605   1606     1  0.0000000  0.6508444  3
   1603   1602   1605   1607     1  0.0000000  0.6508444  3
   1604   1602   1605   1614     1  0.0000000  0.6508444  3
   1604   1602   1605   1606     1  0.0000000  0.6508444  3
   1604   1602   1605   1607     1  0.0000000  0.6508444  3
   1606   1605   1614   1623     1  0.0000000  1.0460000  1
   1606   1605   1614   1623     1  0.0000000  0.0000000  3
   1606   1605   1614   1615     1  0.0000000  0.6508444  3
   1606   1605   1614   1616     1  0.0000000  0.6508444  3
   1607   1605   1614   1623     1  0.0000000  1.0460000  1
   1607   1605   1614   1623     1  0.0000000  0.0000000  3
   1607   1605   1614   1615     1  0.0000000  0.6508444  3
   1607   1605   1614   1616     1  0.0000000  0.6508444  3
   1609   1608   1620   3305     1  0.0000000  1.0460000  1
   1609   1608   1620   3305     1  0.0000000  0.0000000  3
   1609   1608   1620   1621     1  0.0000000  0.6508444  3
   1609   1608   1620   1622     1  0.0000000  0.6508444  3
   1610   1608   1620   3305     1  0.0000000  1.0460000  1
   1610   1608   1620   3305     1  0.0000000  0.0000000  3
   1610   1608   1620   1621     1  0.0000000  0.6508444  3
   1610   1608   1620   1622     1  0.0000000  0.6508444  3
   1612   1611   1617   3276     1  0.0000000  1.0460000  1
   1612   1611   1617   3276     1  0.0000000  0.0000000  3
   1612   1611   1617   1618     1  0.0000000  0.6508444  3
   1612   1611   1617   1619     1  0.0000000  0.6508444  3
   1613   1611   1617   3276     1  0.0000000  1.0460000  1
   1613   1611   1617   3276     1  0.0000000  0.0000000  3
   1613   1611   1617   1618     1  0.0000000  0.6508444  3
   1613   1611   1617   1619     1  0.0000000  0.6508444  3
   1617   3276   3267   3268     1  0.0000000  1.6038667  3
   1617   3276   3267   3269     1  0.0000000  1.6038667  3
   1618   1617   3276   3267     1  0.0000000  1.6038667  3
   1619   1617   3276   3267     1  0.0000000  1.6038667  3
   1620   3305   3296   3297     1  0.0000000  1.6038667  3
   1620   3305   3296   3298     1  0.0000000  1.6038667  3
   1621   1620   3305   3296     1  0.0000000  1.6038667  3
   1622   1620   3305   3296     1  0.0000000  1.6038667  3
   1624   1625   1637   1638     1  0.0000000  0.6508444  3
   1624   1625   1637   1639     1  0.0000000  0.6508444  3
   1624   1628   1640   1641     1  0.0000000  0.6508444  3
   1624   1628   1640   1642     1  0.0000000  0.6508444  3
   1624   1631   1634   1635     1  0.0000000  0.6508444  3
   1624   1631   1634   1636     1  0.0000000  0.6508444  3
   1625   1624   1628   1629     1  0.0000000  1.2552000  3
   1625   1624   1628   1630     1  0.0000000  1.2552000  3
   1625   1624   1631   1632     1  0.0000000  1.2552000  3
   1625   1624   1631   1633     1  0.0000000  1.2552000  3
   1625   1637   1649   1650     1  0.0000000  0.6508444  3
   1625   1637   1649   1651     1  0.0000000  0.6508444  3
   1626   1625   1624   1628     1  0.0000000  1.2552000  3
   1626   1625   1624   1631     1  0.0000000  1.2552000  3
   1626   1625   1637   1649     1  0.0000000  0.6508444  3
   1626   1625   1637   1638     1  0.0000000  0.6508444  3
   1626   1625   1637   1639     1  0.0000000  0.6508444  3
   1627   1625   1624   1628     1  0.0000000  1.2552000  3
   1627   1625   1624   1631     1  0.0000000  1.2552000  3
   1627   1625   1637   1649     1  0.0000000  0.6508444  3
   1627   1625   1637   1638     1  0.0000000  0.6508444  3
   1627   1625   1637   1639     1  0.0000000  0.6508444  3
   1628   1624   1631   1632     1  0.0000000  1.2552000  3
   1628   1624   1631   1633     1  0.0000000  1.2552000  3
   1628   1640   1646   1647     1  0.0000000  0.6508444  3
   1628   1640   1646   1648     1  0.0000000  0.6508444  3
   1629   1628   1624   1631     1  0.0000000  1.2552000  3
   1629   1628   1640   1646     1  0.0000000  0.6508444  3
   1629   1628   1640   1641     1  0.0000000  0.6508444  3
   1629   1628   1640   1642     1  0.0000000  0.6508444  3
   1630   1628   1624   1631     1  0.0000000  1.2552000  3
   1630   1628   1640   1646     1  0.0000000  0.6508444  3
   1630   1628   1640   1641     1  0.0000000  0.6508444  3
   1630   1628   1640   1642     1  0.0000000  0.6508444  3
   1631   1634   1643   1644     1  0.0000000  0.6508444  3
   1631   1634   1643   1645     1  0.0000000  0.6508444  3
   1632   1631   1634   1643     1  0.0000000  0.6508444  3
   1632   1631   1634   1635     1  0.0000000  0.6508444  3
   1632   1631   1634   1636     1  0.0000000  0.6508444  3
   1633   1631   1634   1643     1  0.0000000  0.6508444  3
   1633   1631   1634   1635     1  0.0000000  0.6508444  3
   1633   1631   1634   1636     1  0.0000000  0.6508444  3
   1635   1634   1643   1652     1  0.0000000  1.0460000  1
   1635   1634   1643   1652     1  0.0000000  0.0000000  3
   1635   1634   1643   1644     1  0.0000000  0.6508444  3
   1635   1634   1643   1645     1  0.0000000  0.6508444  3
   1636   1634   1643   1652     1  0.0000000  1.0460000  1
   1636   1634   1643   1652     1  0.0000000  0.0000000  3
   1636   1634   1643   1644     1  0.0000000  0.6508444  3
   1636   1634   1643   1645     1  0.0000000  0.6508444  3
   1638   1637   1649   3363     1  0.0000000  1.0460000  1
   1638   1637   1649   3363     1  0.0000000  0.0000000  3
   1638   1637   1649   1650     1  0.0000000  0.6508444  3
   1638   1637   1649   1651     1  0.0000000  0.6508444  3
   1639   1637   1649   3363     1  0.0000000  1.0460000  1
   1639   1637   1649   3363     1  0.0000000  0.0000000  3
   1639   1637   1649   1650     1  0.0000000  0.6508444  3
   1639   1637   1649   1651     1  0.0000000  0.6508444  3
   1641   1640   1646   3334     1  0.0000000  1.0460000  1
   1641   1640   1646   3334     1  0.0000000  0.0000000  3
   1641   1640   1646   1647     1  0.0000000  0.6508444  3
   1641   1640   1646   1648     1  0.0000000  0.6508444  3
   1642   1640   1646   3334     1  0.0000000  1.0460000  1
   1642   1640   1646   3334     1  0.0000000  0.0000000  3
   1642   1640   1646   1647     1  0.0000000  0.6508444  3
   1642   1640   1646   1648     1  0.0000000  0.6508444  3
   1646   3334   3325   3326     1  0.0000000  1.6038667  3
   1646   3334   3325   3327     1  0.0000000  1.6038667  3
   1647   1646   3334   3325     1  0.0000000  1.6038667  3
   1648   1646   3334   3325     1  0.0000000  1.6038667  3
   1649   3363   3354   3355     1  0.0000000  1.6038667  3
   1649   3363   3354   3356     1  0.0000000  1.6038667  3
   1650   1649   3363   3354     1  0.0000000  1.6038667  3
   1651   1649   3363   3354     1  0.0000000  1.6038667  3
   1653   1654   1666   1667     1  0.0000000  0.6508444  3
   1653   1654   1666   1668     1  0.0000000  0.6508444  3
   1653   1657   1669   1670     1  0.0000000  0.6508444  3
   1653   1657   1669   1671     1  0.0000000  0.6508444  3
   1653   1660   1663   1664     1  0.0000000  0.6508444  3
   1653   1660   1663   1665     1  0.0000000  0.6508444  3
   1654   1653   1657   1658     1  0.0000000  1.2552000  3
   1654   1653   1657   1659     1  0.0000000  1.2552000  3
   1654   1653   1660   1661     1  0.0000000  1.2552000  3
   1654   1653   1660   1662     1  0.0000000  1.2552000  3
   1654   1666   1678   1679     1  0.0000000  0.6508444  3
   1654   1666   1678   1680     1  0.0000000  0.6508444  3
   1655   1654   1653   1657     1  0.0000000  1.2552000  3
   1655   1654   1653   1660     1  0.0000000  1.2552000  3
   1655   1654   1666   1678     1  0.0000000  0.6508444  3
   1655   1654   1666   1667     1  0.0000000  0.6508444  3
   1655   1654   1666   1668     1  0.0000000  0.6508444  3
   1656   1654   1653   1657     1  0.0000000  1.2552000  3
   1656   1654   1653   1660     1  0.0000000  1.2552000  3
   1656   1654   1666   1678     1  0.0000000  0.6508444  3
   1656   1654   1666   1667     1  0.0000000  0.6508444  3
   1656   1654   1666   1668     1  0.0000000  0.6508444  3
   1657   1653   1660   1661     1  0.0000000  1.2552000  3
   1657   1653   1660   1662     1  0.0000000  1.2552000  3
   1657   1669   1675   1676     1  0.0000000  0.6508444  3
   1657   1669   1675   1677     1  0.0000000  0.6508444  3
   1658   1657   1653   1660     1  0.0000000  1.2552000  3
   1658   1657   1669   1675     1  0.0000000  0.6508444  3
   1658   1657   1669   1670     1  0.0000000  0.6508444  3
   1658   1657   1669   1671     1  0.0000000  0.6508444  3
   1659   1657   1653   1660     1  0.0000000  1.2552000  3
   1659   1657   1669   1675     1  0.0000000  0.6508444  3
   1659   1657   1669   1670     1  0.0000000  0.6508444  3
   1659   1657   1669   1671     1  0.0000000  0.6508444  3
   1660   1663   1672   1673     1  0.0000000  0.6508444  3
   1660   1663   1672   1674     1  0.0000000  0.6508444  3
   1661   1660   1663   1672     1  0.0000000  0.6508444  3
   1661   1660   1663   1664     1  0.0000000  0.6508444  3
   1661   1660   1663   1665     1  0.0000000  0.6508444  3
   1662   1660   1663   1672     1  0.0000000  0.6508444  3
   1662   1660   1663   1664     1  0.0000000  0.6508444  3
   1662   1660   1663   1665     1  0.0000000  0.6508444  3
   1664   1663   1672   1681     1  0.0000000  1.0460000  1
   1664   1663   1672   1681     1  0.0000000  0.0000000  3
   1664   1663   1672   1673     1  0.0000000  0.6508444  3
   1664   1663   1672   1674     1  0.0000000  0.6508444  3
   1665   1663   1672   1681     1  0.0000000  1.0460000  1
   1665   1663   1672   1681     1  0.0000000  0.0000000  3
   1665   1663   1672   1673     1  0.0000000  0.6508444  3
   1665   1663   1672   1674     1  0.0000000  0.6508444  3
   1667   1666   1678   3421     1  0.0000000  1.0460000  1
   1667   1666   1678   3421     1  0.0000000  0.0000000  3
   1667   1666   1678   1679     1  0.0000000  0.6508444  3
   1667   1666   1678   1680     1  0.0000000  0.6508444  3
   1668   1666   1678   3421     1  0.0000000  1.0460000  1
   1668   1666   1678   3421     1  0.0000000  0.0000000  3
   1668   1666   1678   1679     1  0.0000000  0.6508444  3
   1668   1666   1678   1680     1  0.0000000  0.6508444  3
   1670   1669   1675   3392     1  0.0000000  1.0460000  1
   1670   1669   1675   3392     1  0.0000000  0.0000000  3
   1670   1669   1675   1676     1  0.0000000  0.6508444  3
   1670   1669   1675   1677     1  0.0000000  0.6508444  3
   1671   1669   1675   3392     1  0.0000000  1.0460000  1
   1671   1669   1675   3392     1  0.0000000  0.0000000  3
   1671   1669   1675   1676     1  0.0000000  0.6508444  3
   1671   1669   1675   1677     1  0.0000000  0.6508444  3
   1675   3392   3383   3384     1  0.0000000  1.6038667  3
   1675   3392   3383   3385     1  0.0000000  1.6038667  3
   1676   1675   3392   3383     1  0.0000000  1.6038667  3
   1677   1675   3392   3383     1  0.0000000  1.6038667  3
   1678   3421   3412   3413     1  0.0000000  1.6038667  3
   1678   3421   3412   3414     1  0.0000000  1.6038667  3
   1679   1678   3421   3412     1  0.0000000  1.6038667  3
   1680   1678   3421   3412     1  0.0000000  1.6038667  3
   1682   1683   1695   1696     1  0.0000000  0.6508444  3
   1682   1683   1695   1697     1  0.0000000  0.6508444  3
   1682   1686   1698   1699     1  0.0000000  0.6508444  3
   1682   1686   1698   1700     1  0.0000000  0.6508444  3
   1682   1689   1692   1693     1  0.0000000  0.6508444  3
   1682   1689   1692   1694     1  0.0000000  0.6508444  3
   1683   1682   1686   1687     1  0.0000000  1.2552000  3
   1683   1682   1686   1688     1  0.0000000  1.2552000  3
   1683   1682   1689   1690     1  0.0000000  1.2552000  3
   1683   1682   1689   1691     1  0.0000000  1.2552000  3
   1683   1695   1707   1708     1  0.0000000  0.6508444  3
   1683   1695   1707   1709     1  0.0000000  0.6508444  3
   1684   1683   1682   1686     1  0.0000000  1.2552000  3
   1684   1683   1682   1689     1  0.0000000  1.2552000  3
   1684   1683   1695   1707     1  0.0000000  0.6508444  3
   1684   1683   1695   1696     1  0.0000000  0.6508444  3
   1684   1683   1695   1697     1  0.0000000  0.6508444  3
   1685   1683   1682   1686     1  0.0000000  1.2552000  3
   1685   1683   1682   1689     1  0.0000000  1.2552000  3
   1685   1683   1695   1707     1  0.0000000  0.6508444  3
   1685   1683   1695   1696     1  0.0000000  0.6508444  3
   1685   1683   1695   1697     1  0.0000000  0.6508444  3
   1686   1682   1689   1690     1  0.0000000  1.2552000  3
   1686   1682   1689   1691     1  0.0000000  1.2552000  3
   1686   1698   1704   1705     1  0.0000000  0.6508444  3
   1686   1698   1704   1706     1  0.0000000  0.6508444  3
   1687   1686   1682   1689     1  0.0000000  1.2552000  3
   1687   1686   1698   1704     1  0.0000000  0.6508444  3
   1687   1686   1698   1699     1  0.0000000  0.6508444  3
   1687   1686   1698   1700     1  0.0000000  0.6508444  3
   1688   1686   1682   1689     1  0.0000000  1.2552000  3
   1688   1686   1698   1704     1  0.0000000  0.6508444  3
   1688   1686   1698   1699     1  0.0000000  0.6508444  3
   1688   1686   1698   1700     1  0.0000000  0.6508444  3
   1689   1692   1701   1702     1  0.0000000  0.6508444  3
   1689   1692   1701   1703     1  0.0000000  0.6508444  3
   1690   1689   1692   1701     1  0.0000000  0.6508444  3
   1690   1689   1692   1693     1  0.0000000  0.6508444  3
   1690   1689   1692   1694     1  0.0000000  0.6508444  3
   1691   1689   1692   1701     1  0.0000000  0.6508444  3
   1691   1689   1692   1693     1  0.0000000  0.6508444  3
   1691   1689   1692   1694     1  0.0000000  0.6508444  3
   1693   1692   1701   1710     1  0.0000000  1.0460000  1
   1693   1692   1701   1710     1  0.0000000  0.0000000  3
   1693   1692   1701   1702     1  0.0000000  0.6508444  3
   1693   1692   1701   1703     1  0.0000000  0.6508444  3
   1694   1692   1701   1710     1  0.0000000  1.0460000  1
   1694   1692   1701   1710     1  0.0000000  0.0000000  3
   1694   1692   1701   1702     1  0.0000000  0.6508444  3
   1694   1692   1701   1703     1  0.0000000  0.6508444  3
   1696   1695   1707   3479     1  0.0000000  1.0460000  1
   1696   1695   1707   3479     1  0.0000000  0.0000000  3
   1696   1695   1707   1708     1  0.0000000  0.6508444  3
   1696   1695   1707   1709     1  0.0000000  0.6508444  3
   1697   1695   1707   3479     1  0.0000000  1.0460000  1
   1697   1695   1707   3479     1  0.0000000  0.0000000  3
   1697   1695   1707   1708     1  0.0000000  0.6508444  3
   1697   1695   1707   1709     1  0.0000000  0.6508444  3
   1699   1698   1704   3450     1  0.0000000  1.0460000  1
   1699   1698   1704   3450     1  0.0000000  0.0000000  3
   1699   1698   1704   1705     1  0.0000000  0.6508444  3
   1699   1698   1704   1706     1  0.0000000  0.6508444  3
   1700   1698   1704   3450     1  0.0000000  1.0460000  1
   1700   1698   1704   3450     1  0.0000000  0.0000000  3
   1700   1698   1704   1705     1  0.0000000  0.6508444  3
   1700   1698   1704   1706     1  0.0000000  0.6508444  3
   1704   3450   3441   3442     1  0.0000000  1.6038667  3
   1704   3450   3441   3443     1  0.0000000  1.6038667  3
   1705   1704   3450   3441     1  0.0000000  1.6038667  3
   1706   1704   3450   3441     1  0.0000000  1.6038667  3
   1707   3479   3470   3471     1  0.0000000  1.6038667  3
   1707   3479   3470   3472     1  0.0000000  1.6038667  3
   1708   1707   3479   3470     1  0.0000000  1.6038667  3
   1709   1707   3479   3470     1  0.0000000  1.6038667  3
   1711   1712   1724   1725     1  0.0000000  0.6508444  3
   1711   1712   1724   1726     1  0.0000000  0.6508444  3
   1711   1715   1727   1728     1  0.0000000  0.6508444  3
   1711   1715   1727   1729     1  0.0000000  0.6508444  3
   1711   1718   1721   1722     1  0.0000000  0.6508444  3
   1711   1718   1721   1723     1  0.0000000  0.6508444  3
   1712   1711   1715   1716     1  0.0000000  1.2552000  3
   1712   1711   1715   1717     1  0.0000000  1.2552000  3
   1712   1711   1718   1719     1  0.0000000  1.2552000  3
   1712   1711   1718   1720     1  0.0000000  1.2552000  3
   1712   1724   1736   1737     1  0.0000000  0.6508444  3
   1712   1724   1736   1738     1  0.0000000  0.6508444  3
   1713   1712   1711   1715     1  0.0000000  1.2552000  3
   1713   1712   1711   1718     1  0.0000000  1.2552000  3
   1713   1712   1724   1736     1  0.0000000  0.6508444  3
   1713   1712   1724   1725     1  0.0000000  0.6508444  3
   1713   1712   1724   1726     1  0.0000000  0.6508444  3
   1714   1712   1711   1715     1  0.0000000  1.2552000  3
   1714   1712   1711   1718     1  0.0000000  1.2552000  3
   1714   1712   1724   1736     1  0.0000000  0.6508444  3
   1714   1712   1724   1725     1  0.0000000  0.6508444  3
   1714   1712   1724   1726     1  0.0000000  0.6508444  3
   1715   1711   1718   1719     1  0.0000000  1.2552000  3
   1715   1711   1718   1720     1  0.0000000  1.2552000  3
   1715   1727   1733   1734     1  0.0000000  0.6508444  3
   1715   1727   1733   1735     1  0.0000000  0.6508444  3
   1716   1715   1711   1718     1  0.0000000  1.2552000  3
   1716   1715   1727   1733     1  0.0000000  0.6508444  3
   1716   1715   1727   1728     1  0.0000000  0.6508444  3
   1716   1715   1727   1729     1  0.0000000  0.6508444  3
   1717   1715   1711   1718     1  0.0000000  1.2552000  3
   1717   1715   1727   1733     1  0.0000000  0.6508444  3
   1717   1715   1727   1728     1  0.0000000  0.6508444  3
   1717   1715   1727   1729     1  0.0000000  0.6508444  3
   1718   1721   1730   1731     1  0.0000000  0.6508444  3
   1718   1721   1730   1732     1  0.0000000  0.6508444  3
   1719   1718   1721   1730     1  0.0000000  0.6508444  3
   1719   1718   1721   1722     1  0.0000000  0.6508444  3
   1719   1718   1721   1723     1  0.0000000  0.6508444  3
   1720   1718   1721   1730     1  0.0000000  0.6508444  3
   1720   1718   1721   1722     1  0.0000000  0.6508444  3
   1720   1718   1721   1723     1  0.0000000  0.6508444  3
   1722   1721   1730   1739     1  0.0000000  1.0460000  1
   1722   1721   1730   1739     1  0.0000000  0.0000000  3
   1722   1721   1730   1731     1  0.0000000  0.6508444  3
   1722   1721   1730   1732     1  0.0000000  0.6508444  3
   1723   1721   1730   1739     1  0.0000000  1.0460000  1
   1723   1721   1730   1739     1  0.0000000  0.0000000  3
   1723   1721   1730   1731     1  0.0000000  0.6508444  3
   1723   1721   1730   1732     1  0.0000000  0.6508444  3
   1725   1724   1736   3537     1  0.0000000  1.0460000  1
   1725   1724   1736   3537     1  0.0000000  0.0000000  3
   1725   1724   1736   1737     1  0.0000000  0.6508444  3
   1725   1724   1736   1738     1  0.0000000  0.6508444  3
   1726   1724   1736   3537     1  0.0000000  1.0460000  1
   1726   1724   1736   3537     1  0.0000000  0.0000000  3
   1726   1724   1736   1737     1  0.0000000  0.6508444  3
   1726   1724   1736   1738     1  0.0000000  0.6508444  3
   1728   1727   1733   3508     1  0.0000000  1.0460000  1
   1728   1727   1733   3508     1  0.0000000  0.0000000  3
   1728   1727   1733   1734     1  0.0000000  0.6508444  3
   1728   1727   1733   1735     1  0.0000000  0.6508444  3
   1729   1727   1733   3508     1  0.0000000  1.0460000  1
   1729   1727   1733   3508     1  0.0000000  0.0000000  3
   1729   1727   1733   1734     1  0.0000000  0.6508444  3
   1729   1727   1733   1735     1  0.0000000  0.6508444  3
   1733   3508   3499   3500     1  0.0000000  1.6038667  3
   1733   3508   3499   3501     1  0.0000000  1.6038667  3
   1734   1733   3508   3499     1  0.0000000  1.6038667  3
   1735   1733   3508   3499     1  0.0000000  1.6038667  3
   1736   3537   3528   3529     1  0.0000000  1.6038667  3
   1736   3537   3528   3530     1  0.0000000  1.6038667  3
   1737   1736   3537   3528     1  0.0000000  1.6038667  3
   1738   1736   3537   3528     1  0.0000000  1.6038667  3
   1740   1741   1753   1754     1  0.0000000  0.6508444  3
   1740   1741   1753   1755     1  0.0000000  0.6508444  3
   1740   1744   1756   1757     1  0.0000000  0.6508444  3
   1740   1744   1756   1758     1  0.0000000  0.6508444  3
   1740   1747   1750   1751     1  0.0000000  0.6508444  3
   1740   1747   1750   1752     1  0.0000000  0.6508444  3
   1741   1740   1744   1745     1  0.0000000  1.2552000  3
   1741   1740   1744   1746     1  0.0000000  1.2552000  3
   1741   1740   1747   1748     1  0.0000000  1.2552000  3
   1741   1740   1747   1749     1  0.0000000  1.2552000  3
   1741   1753   1765   1766     1  0.0000000  0.6508444  3
   1741   1753   1765   1767     1  0.0000000  0.6508444  3
   1742   1741   1740   1744     1  0.0000000  1.2552000  3
   1742   1741   1740   1747     1  0.0000000  1.2552000  3
   1742   1741   1753   1765     1  0.0000000  0.6508444  3
   1742   1741   1753   1754     1  0.0000000  0.6508444  3
   1742   1741   1753   1755     1  0.0000000  0.6508444  3
   1743   1741   1740   1744     1  0.0000000  1.2552000  3
   1743   1741   1740   1747     1  0.0000000  1.2552000  3
   1743   1741   1753   1765     1  0.0000000  0.6508444  3
   1743   1741   1753   1754     1  0.0000000  0.6508444  3
   1743   1741   1753   1755     1  0.0000000  0.6508444  3
   1744   1740   1747   1748     1  0.0000000  1.2552000  3
   1744   1740   1747   1749     1  0.0000000  1.2552000  3
   1744   1756   1762   1763     1  0.0000000  0.6508444  3
   1744   1756   1762   1764     1  0.0000000  0.6508444  3
   1745   1744   1740   1747     1  0.0000000  1.2552000  3
   1745   1744   1756   1762     1  0.0000000  0.6508444  3
   1745   1744   1756   1757     1  0.0000000  0.6508444  3
   1745   1744   1756   1758     1  0.0000000  0.6508444  3
   1746   1744   1740   1747     1  0.0000000  1.2552000  3
   1746   1744   1756   1762     1  0.0000000  0.6508444  3
   1746   1744   1756   1757     1  0.0000000  0.6508444  3
   1746   1744   1756   1758     1  0.0000000  0.6508444  3
   1747   1750   1759   1760     1  0.0000000  0.6508444  3
   1747   1750   1759   1761     1  0.0000000  0.6508444  3
   1748   1747   1750   1759     1  0.0000000  0.6508444  3
   1748   1747   1750   1751     1  0.0000000  0.6508444  3
   1748   1747   1750   1752     1  0.0000000  0.6508444  3
   1749   1747   1750   1759     1  0.0000000  0.6508444  3
   1749   1747   1750   1751     1  0.0000000  0.6508444  3
   1749   1747   1750   1752     1  0.0000000  0.6508444  3
   1751   1750   1759   1768     1  0.0000000  1.0460000  1
   1751   1750   1759   1768     1  0.0000000  0.0000000  3
   1751   1750   1759   1760     1  0.0000000  0.6508444  3
   1751   1750   1759   1761     1  0.0000000  0.6508444  3
   1752   1750   1759   1768     1  0.0000000  1.0460000  1
   1752   1750   1759   1768     1  0.0000000  0.0000000  3
   1752   1750   1759   1760     1  0.0000000  0.6508444  3
   1752   1750   1759   1761     1  0.0000000  0.6508444  3
   1754   1753   1765   3595     1  0.0000000  1.0460000  1
   1754   1753   1765   3595     1  0.0000000  0.0000000  3
   1754   1753   1765   1766     1  0.0000000  0.6508444  3
   1754   1753   1765   1767     1  0.0000000  0.6508444  3
   1755   1753   1765   3595     1  0.0000000  1.0460000  1
   1755   1753   1765   3595     1  0.0000000  0.0000000  3
   1755   1753   1765   1766     1  0.0000000  0.6508444  3
   1755   1753   1765   1767     1  0.0000000  0.6508444  3
   1757   1756   1762   3566     1  0.0000000  1.0460000  1
   1757   1756   1762   3566     1  0.0000000  0.0000000  3
   1757   1756   1762   1763     1  0.0000000  0.6508444  3
   1757   1756   1762   1764     1  0.0000000  0.6508444  3
   1758   1756   1762   3566     1  0.0000000  1.0460000  1
   1758   1756   1762   3566     1  0.0000000  0.0000000  3
   1758   1756   1762   1763     1  0.0000000  0.6508444  3
   1758   1756   1762   1764     1  0.0000000  0.6508444  3
   1762   3566   3557   3558     1  0.0000000  1.6038667  3
   1762   3566   3557   3559     1  0.0000000  1.6038667  3
   1763   1762   3566   3557     1  0.0000000  1.6038667  3
   1764   1762   3566   3557     1  0.0000000  1.6038667  3
   1765   3595   3586   3587     1  0.0000000  1.6038667  3
   1765   3595   3586   3588     1  0.0000000  1.6038667  3
   1766   1765   3595   3586     1  0.0000000  1.6038667  3
   1767   1765   3595   3586     1  0.0000000  1.6038667  3
   1769   1770   1782   1783     1  0.0000000  0.6508444  3
   1769   1770   1782   1784     1  0.0000000  0.6508444  3
   1769   1773   1785   1786     1  0.0000000  0.6508444  3
   1769   1773   1785   1787     1  0.0000000  0.6508444  3
   1769   1776   1779   1780     1  0.0000000  0.6508444  3
   1769   1776   1779   1781     1  0.0000000  0.6508444  3
   1770   1769   1773   1774     1  0.0000000  1.2552000  3
   1770   1769   1773   1775     1  0.0000000  1.2552000  3
   1770   1769   1776   1777     1  0.0000000  1.2552000  3
   1770   1769   1776   1778     1  0.0000000  1.2552000  3
   1770   1782   1794   1795     1  0.0000000  0.6508444  3
   1770   1782   1794   1796     1  0.0000000  0.6508444  3
   1771   1770   1769   1773     1  0.0000000  1.2552000  3
   1771   1770   1769   1776     1  0.0000000  1.2552000  3
   1771   1770   1782   1794     1  0.0000000  0.6508444  3
   1771   1770   1782   1783     1  0.0000000  0.6508444  3
   1771   1770   1782   1784     1  0.0000000  0.6508444  3
   1772   1770   1769   1773     1  0.0000000  1.2552000  3
   1772   1770   1769   1776     1  0.0000000  1.2552000  3
   1772   1770   1782   1794     1  0.0000000  0.6508444  3
   1772   1770   1782   1783     1  0.0000000  0.6508444  3
   1772   1770   1782   1784     1  0.0000000  0.6508444  3
   1773   1769   1776   1777     1  0.0000000  1.2552000  3
   1773   1769   1776   1778     1  0.0000000  1.2552000  3
   1773   1785   1791   1792     1  0.0000000  0.6508444  3
   1773   1785   1791   1793     1  0.0000000  0.6508444  3
   1774   1773   1769   1776     1  0.0000000  1.2552000  3
   1774   1773   1785   1791     1  0.0000000  0.6508444  3
   1774   1773   1785   1786     1  0.0000000  0.6508444  3
   1774   1773   1785   1787     1  0.0000000  0.6508444  3
   1775   1773   1769   1776     1  0.0000000  1.2552000  3
   1775   1773   1785   1791     1  0.0000000  0.6508444  3
   1775   1773   1785   1786     1  0.0000000  0.6508444  3
   1775   1773   1785   1787     1  0.0000000  0.6508444  3
   1776   1779   1788   1789     1  0.0000000  0.6508444  3
   1776   1779   1788   1790     1  0.0000000  0.6508444  3
   1777   1776   1779   1788     1  0.0000000  0.6508444  3
   1777   1776   1779   1780     1  0.0000000  0.6508444  3
   1777   1776   1779   1781     1  0.0000000  0.6508444  3
   1778   1776   1779   1788     1  0.0000000  0.6508444  3
   1778   1776   1779   1780     1  0.0000000  0.6508444  3
   1778   1776   1779   1781     1  0.0000000  0.6508444  3
   1780   1779   1788   1797     1  0.0000000  1.0460000  1
   1780   1779   1788   1797     1  0.0000000  0.0000000  3
   1780   1779   1788   1789     1  0.0000000  0.6508444  3
   1780   1779   1788   1790     1  0.0000000  0.6508444  3
   1781   1779   1788   1797     1  0.0000000  1.0460000  1
   1781   1779   1788   1797     1  0.0000000  0.0000000  3
   1781   1779   1788   1789     1  0.0000000  0.6508444  3
   1781   1779   1788   1790     1  0.0000000  0.6508444  3
   1783   1782   1794   3653     1  0.0000000  1.0460000  1
   1783   1782   1794   3653     1  0.0000000  0.0000000  3
   1783   1782   1794   1795     1  0.0000000  0.6508444  3
   1783   1782   1794   1796     1  0.0000000  0.6508444  3
   1784   1782   1794   3653     1  0.0000000  1.0460000  1
   1784   1782   1794   3653     1  0.0000000  0.0000000  3
   1784   1782   1794   1795     1  0.0000000  0.6508444  3
   1784   1782   1794   1796     1  0.0000000  0.6508444  3
   1786   1785   1791   3624     1  0.0000000  1.0460000  1
   1786   1785   1791   3624     1  0.0000000  0.0000000  3
   1786   1785   1791   1792     1  0.0000000  0.6508444  3
   1786   1785   1791   1793     1  0.0000000  0.6508444  3
   1787   1785   1791   3624     1  0.0000000  1.0460000  1
   1787   1785   1791   3624     1  0.0000000  0.0000000  3
   1787   1785   1791   1792     1  0.0000000  0.6508444  3
   1787   1785   1791   1793     1  0.0000000  0.6508444  3
   1791   3624   3615   3616     1  0.0000000  1.6038667  3
   1791   3624   3615   3617     1  0.0000000  1.6038667  3
   1792   1791   3624   3615     1  0.0000000  1.6038667  3
   1793   1791   3624   3615     1  0.0000000  1.6038667  3
   1794   3653   3644   3645     1  0.0000000  1.6038667  3
   1794   3653   3644   3646     1  0.0000000  1.6038667  3
   1795   1794   3653   3644     1  0.0000000  1.6038667  3
   1796   1794   3653   3644     1  0.0000000  1.6038667  3
   1798   1799   1811   1812     1  0.0000000  0.6508444  3
   1798   1799   1811   1813     1  0.0000000  0.6508444  3
   1798   1802   1814   1815     1  0.0000000  0.6508444  3
   1798   1802   1814   1816     1  0.0000000  0.6508444  3
   1798   1805   1808   1809     1  0.0000000  0.6508444  3
   1798   1805   1808   1810     1  0.0000000  0.6508444  3
   1799   1798   1802   1803     1  0.0000000  1.2552000  3
   1799   1798   1802   1804     1  0.0000000  1.2552000  3
   1799   1798   1805   1806     1  0.0000000  1.2552000  3
   1799   1798   1805   1807     1  0.0000000  1.2552000  3
   1799   1811   1823   1824     1  0.0000000  0.6508444  3
   1799   1811   1823   1825     1  0.0000000  0.6508444  3
   1800   1799   1798   1802     1  0.0000000  1.2552000  3
   1800   1799   1798   1805     1  0.0000000  1.2552000  3
   1800   1799   1811   1823     1  0.0000000  0.6508444  3
   1800   1799   1811   1812     1  0.0000000  0.6508444  3
   1800   1799   1811   1813     1  0.0000000  0.6508444  3
   1801   1799   1798   1802     1  0.0000000  1.2552000  3
   1801   1799   1798   1805     1  0.0000000  1.2552000  3
   1801   1799   1811   1823     1  0.0000000  0.6508444  3
   1801   1799   1811   1812     1  0.0000000  0.6508444  3
   1801   1799   1811   1813     1  0.0000000  0.6508444  3
   1802   1798   1805   1806     1  0.0000000  1.2552000  3
   1802   1798   1805   1807     1  0.0000000  1.2552000  3
   1802   1814   1820   1821     1  0.0000000  0.6508444  3
   1802   1814   1820   1822     1  0.0000000  0.6508444  3
   1803   1802   1798   1805     1  0.0000000  1.2552000  3
   1803   1802   1814   1820     1  0.0000000  0.6508444  3
   1803   1802   1814   1815     1  0.0000000  0.6508444  3
   1803   1802   1814   1816     1  0.0000000  0.6508444  3
   1804   1802   1798   1805     1  0.0000000  1.2552000  3
   1804   1802   1814   1820     1  0.0000000  0.6508444  3
   1804   1802   1814   1815     1  0.0000000  0.6508444  3
   1804   1802   1814   1816     1  0.0000000  0.6508444  3
   1805   1808   1817   1818     1  0.0000000  0.6508444  3
   1805   1808   1817   1819     1  0.0000000  0.6508444  3
   1806   1805   1808   1817     1  0.0000000  0.6508444  3
   1806   1805   1808   1809     1  0.0000000  0.6508444  3
   1806   1805   1808   1810     1  0.0000000  0.6508444  3
   1807   1805   1808   1817     1  0.0000000  0.6508444  3
   1807   1805   1808   1809     1  0.0000000  0.6508444  3
   1807   1805   1808   1810     1  0.0000000  0.6508444  3
   1809   1808   1817   1826     1  0.0000000  1.0460000  1
   1809   1808   1817   1826     1  0.0000000  0.0000000  3
   1809   1808   1817   1818     1  0.0000000  0.6508444  3
   1809   1808   1817   1819     1  0.0000000  0.6508444  3
   1810   1808   1817   1826     1  0.0000000  1.0460000  1
   1810   1808   1817   1826     1  0.0000000  0.0000000  3
   1810   1808   1817   1818     1  0.0000000  0.6508444  3
   1810   1808   1817   1819     1  0.0000000  0.6508444  3
   1812   1811   1823   3711     1  0.0000000  1.0460000  1
   1812   1811   1823   3711     1  0.0000000  0.0000000  3
   1812   1811   1823   1824     1  0.0000000  0.6508444  3
   1812   1811   1823   1825     1  0.0000000  0.6508444  3
   1813   1811   1823   3711     1  0.0000000  1.0460000  1
   1813   1811   1823   3711     1  0.0000000  0.0000000  3
   1813   1811   1823   1824     1  0.0000000  0.6508444  3
   1813   1811   1823   1825     1  0.0000000  0.6508444  3
   1815   1814   1820   3682     1  0.0000000  1.0460000  1
   1815   1814   1820   3682     1  0.0000000  0.0000000  3
   1815   1814   1820   1821     1  0.0000000  0.6508444  3
   1815   1814   1820   1822     1  0.0000000  0.6508444  3
   1816   1814   1820   3682     1  0.0000000  1.0460000  1
   1816   1814   1820   3682     1  0.0000000  0.0000000  3
   1816   1814   1820   1821     1  0.0000000  0.6508444  3
   1816   1814   1820   1822     1  0.0000000  0.6508444  3
   1820   3682   3673   3674     1  0.0000000  1.6038667  3
   1820   3682   3673   3675     1  0.0000000  1.6038667  3
   1821   1820   3682   3673     1  0.0000000  1.6038667  3
   1822   1820   3682   3673     1  0.0000000  1.6038667  3
   1823   3711   3702   3703     1  0.0000000  1.6038667  3
   1823   3711   3702   3704     1  0.0000000  1.6038667  3
   1824   1823   3711   3702     1  0.0000000  1.6038667  3
   1825   1823   3711   3702     1  0.0000000  1.6038667  3
   1827   1828   1840   1841     1  0.0000000  0.6508444  3
   1827   1828   1840   1842     1  0.0000000  0.6508444  3
   1827   1831   1843   1844     1  0.0000000  0.6508444  3
   1827   1831   1843   1845     1  0.0000000  0.6508444  3
   1827   1834   1837   1838     1  0.0000000  0.6508444  3
   1827   1834   1837   1839     1  0.0000000  0.6508444  3
   1828   1827   1831   1832     1  0.0000000  1.2552000  3
   1828   1827   1831   1833     1  0.0000000  1.2552000  3
   1828   1827   1834   1835     1  0.0000000  1.2552000  3
   1828   1827   1834   1836     1  0.0000000  1.2552000  3
   1828   1840   1852   1853     1  0.0000000  0.6508444  3
   1828   1840   1852   1854     1  0.0000000  0.6508444  3
   1829   1828   1827   1831     1  0.0000000  1.2552000  3
   1829   1828   1827   1834     1  0.0000000  1.2552000  3
   1829   1828   1840   1852     1  0.0000000  0.6508444  3
   1829   1828   1840   1841     1  0.0000000  0.6508444  3
   1829   1828   1840   1842     1  0.0000000  0.6508444  3
   1830   1828   1827   1831     1  0.0000000  1.2552000  3
   1830   1828   1827   1834     1  0.0000000  1.2552000  3
   1830   1828   1840   1852     1  0.0000000  0.6508444  3
   1830   1828   1840   1841     1  0.0000000  0.6508444  3
   1830   1828   1840   1842     1  0.0000000  0.6508444  3
   1831   1827   1834   1835     1  0.0000000  1.2552000  3
   1831   1827   1834   1836     1  0.0000000  1.2552000  3
   1831   1843   1849   1850     1  0.0000000  0.6508444  3
   1831   1843   1849   1851     1  0.0000000  0.6508444  3
   1832   1831   1827   1834     1  0.0000000  1.2552000  3
   1832   1831   1843   1849     1  0.0000000  0.6508444  3
   1832   1831   1843   1844     1  0.0000000  0.6508444  3
   1832   1831   1843   1845     1  0.0000000  0.6508444  3
   1833   1831   1827   1834     1  0.0000000  1.2552000  3
   1833   1831   1843   1849     1  0.0000000  0.6508444  3
   1833   1831   1843   1844     1  0.0000000  0.6508444  3
   1833   1831   1843   1845     1  0.0000000  0.6508444  3
   1834   1837   1846   1847     1  0.0000000  0.6508444  3
   1834   1837   1846   1848     1  0.0000000  0.6508444  3
   1835   1834   1837   1846     1  0.0000000  0.6508444  3
   1835   1834   1837   1838     1  0.0000000  0.6508444  3
   1835   1834   1837   1839     1  0.0000000  0.6508444  3
   1836   1834   1837   1846     1  0.0000000  0.6508444  3
   1836   1834   1837   1838     1  0.0000000  0.6508444  3
   1836   1834   1837   1839     1  0.0000000  0.6508444  3
   1838   1837   1846   1855     1  0.0000000  1.0460000  1
   1838   1837   1846   1855     1  0.0000000  0.0000000  3
   1838   1837   1846   1847     1  0.0000000  0.6508444  3
   1838   1837   1846   1848     1  0.0000000  0.6508444  3
   1839   1837   1846   1855     1  0.0000000  1.0460000  1
   1839   1837   1846   1855     1  0.0000000  0.0000000  3
   1839   1837   1846   1847     1  0.0000000  0.6508444  3
   1839   1837   1846   1848     1  0.0000000  0.6508444  3
   1841   1840   1852   3769     1  0.0000000  1.0460000  1
   1841   1840   1852   3769     1  0.0000000  0.0000000  3
   1841   1840   1852   1853     1  0.0000000  0.6508444  3
   1841   1840   1852   1854     1  0.0000000  0.6508444  3
   1842   1840   1852   3769     1  0.0000000  1.0460000  1
   1842   1840   1852   3769     1  0.0000000  0.0000000  3
   1842   1840   1852   1853     1  0.0000000  0.6508444  3
   1842   1840   1852   1854     1  0.0000000  0.6508444  3
   1844   1843   1849   3740     1  0.0000000  1.0460000  1
   1844   1843   1849   3740     1  0.0000000  0.0000000  3
   1844   1843   1849   1850     1  0.0000000  0.6508444  3
   1844   1843   1849   1851     1  0.0000000  0.6508444  3
   1845   1843   1849   3740     1  0.0000000  1.0460000  1
   1845   1843   1849   3740     1  0.0000000  0.0000000  3
   1845   1843   1849   1850     1  0.0000000  0.6508444  3
   1845   1843   1849   1851     1  0.0000000  0.6508444  3
   1849   3740   3731   3732     1  0.0000000  1.6038667  3
   1849   3740   3731   3733     1  0.0000000  1.6038667  3
   1850   1849   3740   3731     1  0.0000000  1.6038667  3
   1851   1849   3740   3731     1  0.0000000  1.6038667  3
   1852   3769   3760   3761     1  0.0000000  1.6038667  3
   1852   3769   3760   3762     1  0.0000000  1.6038667  3
   1853   1852   3769   3760     1  0.0000000  1.6038667  3
   1854   1852   3769   3760     1  0.0000000  1.6038667  3
   1856   1857   1869   1870     1  0.0000000  0.6508444  3
   1856   1857   1869   1871     1  0.0000000  0.6508444  3
   1856   1860   1872   1873     1  0.0000000  0.6508444  3
   1856   1860   1872   1874     1  0.0000000  0.6508444  3
   1856   1863   1866   1867     1  0.0000000  0.6508444  3
   1856   1863   1866   1868     1  0.0000000  0.6508444  3
   1857   1856   1860   1861     1  0.0000000  1.2552000  3
   1857   1856   1860   1862     1  0.0000000  1.2552000  3
   1857   1856   1863   1864     1  0.0000000  1.2552000  3
   1857   1856   1863   1865     1  0.0000000  1.2552000  3
   1857   1869   1881   1882     1  0.0000000  0.6508444  3
   1857   1869   1881   1883     1  0.0000000  0.6508444  3
   1858   1857   1856   1860     1  0.0000000  1.2552000  3
   1858   1857   1856   1863     1  0.0000000  1.2552000  3
   1858   1857   1869   1881     1  0.0000000  0.6508444  3
   1858   1857   1869   1870     1  0.0000000  0.6508444  3
   1858   1857   1869   1871     1  0.0000000  0.6508444  3
   1859   1857   1856   1860     1  0.0000000  1.2552000  3
   1859   1857   1856   1863     1  0.0000000  1.2552000  3
   1859   1857   1869   1881     1  0.0000000  0.6508444  3
   1859   1857   1869   1870     1  0.0000000  0.6508444  3
   1859   1857   1869   1871     1  0.0000000  0.6508444  3
   1860   1856   1863   1864     1  0.0000000  1.2552000  3
   1860   1856   1863   1865     1  0.0000000  1.2552000  3
   1860   1872   1878   1879     1  0.0000000  0.6508444  3
   1860   1872   1878   1880     1  0.0000000  0.6508444  3
   1861   1860   1856   1863     1  0.0000000  1.2552000  3
   1861   1860   1872   1878     1  0.0000000  0.6508444  3
   1861   1860   1872   1873     1  0.0000000  0.6508444  3
   1861   1860   1872   1874     1  0.0000000  0.6508444  3
   1862   1860   1856   1863     1  0.0000000  1.2552000  3
   1862   1860   1872   1878     1  0.0000000  0.6508444  3
   1862   1860   1872   1873     1  0.0000000  0.6508444  3
   1862   1860   1872   1874     1  0.0000000  0.6508444  3
   1863   1866   1875   1876     1  0.0000000  0.6508444  3
   1863   1866   1875   1877     1  0.0000000  0.6508444  3
   1864   1863   1866   1875     1  0.0000000  0.6508444  3
   1864   1863   1866   1867     1  0.0000000  0.6508444  3
   1864   1863   1866   1868     1  0.0000000  0.6508444  3
   1865   1863   1866   1875     1  0.0000000  0.6508444  3
   1865   1863   1866   1867     1  0.0000000  0.6508444  3
   1865   1863   1866   1868     1  0.0000000  0.6508444  3
   1867   1866   1875   1884     1  0.0000000  1.0460000  1
   1867   1866   1875   1884     1  0.0000000  0.0000000  3
   1867   1866   1875   1876     1  0.0000000  0.6508444  3
   1867   1866   1875   1877     1  0.0000000  0.6508444  3
   1868   1866   1875   1884     1  0.0000000  1.0460000  1
   1868   1866   1875   1884     1  0.0000000  0.0000000  3
   1868   1866   1875   1876     1  0.0000000  0.6508444  3
   1868   1866   1875   1877     1  0.0000000  0.6508444  3
   1870   1869   1881   3827     1  0.0000000  1.0460000  1
   1870   1869   1881   3827     1  0.0000000  0.0000000  3
   1870   1869   1881   1882     1  0.0000000  0.6508444  3
   1870   1869   1881   1883     1  0.0000000  0.6508444  3
   1871   1869   1881   3827     1  0.0000000  1.0460000  1
   1871   1869   1881   3827     1  0.0000000  0.0000000  3
   1871   1869   1881   1882     1  0.0000000  0.6508444  3
   1871   1869   1881   1883     1  0.0000000  0.6508444  3
   1873   1872   1878   3798     1  0.0000000  1.0460000  1
   1873   1872   1878   3798     1  0.0000000  0.0000000  3
   1873   1872   1878   1879     1  0.0000000  0.6508444  3
   1873   1872   1878   1880     1  0.0000000  0.6508444  3
   1874   1872   1878   3798     1  0.0000000  1.0460000  1
   1874   1872   1878   3798     1  0.0000000  0.0000000  3
   1874   1872   1878   1879     1  0.0000000  0.6508444  3
   1874   1872   1878   1880     1  0.0000000  0.6508444  3
   1878   3798   3789   3790     1  0.0000000  1.6038667  3
   1878   3798   3789   3791     1  0.0000000  1.6038667  3
   1879   1878   3798   3789     1  0.0000000  1.6038667  3
   1880   1878   3798   3789     1  0.0000000  1.6038667  3
   1881   3827   3818   3819     1  0.0000000  1.6038667  3
   1881   3827   3818   3820     1  0.0000000  1.6038667  3
   1882   1881   3827   3818     1  0.0000000  1.6038667  3
   1883   1881   3827   3818     1  0.0000000  1.6038667  3
   1885   1886   1898   1899     1  0.0000000  0.6508444  3
   1885   1886   1898   1900     1  0.0000000  0.6508444  3
   1885   1889   1901   1902     1  0.0000000  0.6508444  3
   1885   1889   1901   1903     1  0.0000000  0.6508444  3
   1885   1892   1895   1896     1  0.0000000  0.6508444  3
   1885   1892   1895   1897     1  0.0000000  0.6508444  3
   1886   1885   1889   1890     1  0.0000000  1.2552000  3
   1886   1885   1889   1891     1  0.0000000  1.2552000  3
   1886   1885   1892   1893     1  0.0000000  1.2552000  3
   1886   1885   1892   1894     1  0.0000000  1.2552000  3
   1886   1898   1910   1911     1  0.0000000  0.6508444  3
   1886   1898   1910   1912     1  0.0000000  0.6508444  3
   1887   1886   1885   1889     1  0.0000000  1.2552000  3
   1887   1886   1885   1892     1  0.0000000  1.2552000  3
   1887   1886   1898   1910     1  0.0000000  0.6508444  3
   1887   1886   1898   1899     1  0.0000000  0.6508444  3
   1887   1886   1898   1900     1  0.0000000  0.6508444  3
   1888   1886   1885   1889     1  0.0000000  1.2552000  3
   1888   1886   1885   1892     1  0.0000000  1.2552000  3
   1888   1886   1898   1910     1  0.0000000  0.6508444  3
   1888   1886   1898   1899     1  0.0000000  0.6508444  3
   1888   1886   1898   1900     1  0.0000000  0.6508444  3
   1889   1885   1892   1893     1  0.0000000  1.2552000  3
   1889   1885   1892   1894     1  0.0000000  1.2552000  3
   1889   1901   1907   1908     1  0.0000000  0.6508444  3
   1889   1901   1907   1909     1  0.0000000  0.6508444  3
   1890   1889   1885   1892     1  0.0000000  1.2552000  3
   1890   1889   1901   1907     1  0.0000000  0.6508444  3
   1890   1889   1901   1902     1  0.0000000  0.6508444  3
   1890   1889   1901   1903     1  0.0000000  0.6508444  3
   1891   1889   1885   1892     1  0.0000000  1.2552000  3
   1891   1889   1901   1907     1  0.0000000  0.6508444  3
   1891   1889   1901   1902     1  0.0000000  0.6508444  3
   1891   1889   1901   1903     1  0.0000000  0.6508444  3
   1892   1895   1904   1905     1  0.0000000  0.6508444  3
   1892   1895   1904   1906     1  0.0000000  0.6508444  3
   1893   1892   1895   1904     1  0.0000000  0.6508444  3
   1893   1892   1895   1896     1  0.0000000  0.6508444  3
   1893   1892   1895   1897     1  0.0000000  0.6508444  3
   1894   1892   1895   1904     1  0.0000000  0.6508444  3
   1894   1892   1895   1896     1  0.0000000  0.6508444  3
   1894   1892   1895   1897     1  0.0000000  0.6508444  3
   1896   1895   1904   1913     1  0.0000000  1.0460000  1
   1896   1895   1904   1913     1  0.0000000  0.0000000  3
   1896   1895   1904   1905     1  0.0000000  0.6508444  3
   1896   1895   1904   1906     1  0.0000000  0.6508444  3
   1897   1895   1904   1913     1  0.0000000  1.0460000  1
   1897   1895   1904   1913     1  0.0000000  0.0000000  3
   1897   1895   1904   1905     1  0.0000000  0.6508444  3
   1897   1895   1904   1906     1  0.0000000  0.6508444  3
   1899   1898   1910   3885     1  0.0000000  1.0460000  1
   1899   1898   1910   3885     1  0.0000000  0.0000000  3
   1899   1898   1910   1911     1  0.0000000  0.6508444  3
   1899   1898   1910   1912     1  0.0000000  0.6508444  3
   1900   1898   1910   3885     1  0.0000000  1.0460000  1
   1900   1898   1910   3885     1  0.0000000  0.0000000  3
   1900   1898   1910   1911     1  0.0000000  0.6508444  3
   1900   1898   1910   1912     1  0.0000000  0.6508444  3
   1902   1901   1907   3856     1  0.0000000  1.0460000  1
   1902   1901   1907   3856     1  0.0000000  0.0000000  3
   1902   1901   1907   1908     1  0.0000000  0.6508444  3
   1902   1901   1907   1909     1  0.0000000  0.6508444  3
   1903   1901   1907   3856     1  0.0000000  1.0460000  1
   1903   1901   1907   3856     1  0.0000000  0.0000000  3
   1903   1901   1907   1908     1  0.0000000  0.6508444  3
   1903   1901   1907   1909     1  0.0000000  0.6508444  3
   1907   3856   3847   3848     1  0.0000000  1.6038667  3
   1907   3856   3847   3849     1  0.0000000  1.6038667  3
   1908   1907   3856   3847     1  0.0000000  1.6038667  3
   1909   1907   3856   3847     1  0.0000000  1.6038667  3
   1910   3885   3876   3877     1  0.0000000  1.6038667  3
   1910   3885   3876   3878     1  0.0000000  1.6038667  3
   1911   1910   3885   3876     1  0.0000000  1.6038667  3
   1912   1910   3885   3876     1  0.0000000  1.6038667  3
   1914   1915   1927   1928     1  0.0000000  0.6508444  3
   1914   1915   1927   1929     1  0.0000000  0.6508444  3
   1914   1918   1930   1931     1  0.0000000  0.6508444  3
   1914   1918   1930   1932     1  0.0000000  0.6508444  3
   1914   1921   1924   1925     1  0.0000000  0.6508444  3
   1914   1921   1924   1926     1  0.0000000  0.6508444  3
   1915   1914   1918   1919     1  0.0000000  1.2552000  3
   1915   1914   1918   1920     1  0.0000000  1.2552000  3
   1915   1914   1921   1922     1  0.0000000  1.2552000  3
   1915   1914   1921   1923     1  0.0000000  1.2552000  3
   1915   1927   1939   1940     1  0.0000000  0.6508444  3
   1915   1927   1939   1941     1  0.0000000  0.6508444  3
   1916   1915   1914   1918     1  0.0000000  1.2552000  3
   1916   1915   1914   1921     1  0.0000000  1.2552000  3
   1916   1915   1927   1939     1  0.0000000  0.6508444  3
   1916   1915   1927   1928     1  0.0000000  0.6508444  3
   1916   1915   1927   1929     1  0.0000000  0.6508444  3
   1917   1915   1914   1918     1  0.0000000  1.2552000  3
   1917   1915   1914   1921     1  0.0000000  1.2552000  3
   1917   1915   1927   1939     1  0.0000000  0.6508444  3
   1917   1915   1927   1928     1  0.0000000  0.6508444  3
   1917   1915   1927   1929     1  0.0000000  0.6508444  3
   1918   1914   1921   1922     1  0.0000000  1.2552000  3
   1918   1914   1921   1923     1  0.0000000  1.2552000  3
   1918   1930   1936   1937     1  0.0000000  0.6508444  3
   1918   1930   1936   1938     1  0.0000000  0.6508444  3
   1919   1918   1914   1921     1  0.0000000  1.2552000  3
   1919   1918   1930   1936     1  0.0000000  0.6508444  3
   1919   1918   1930   1931     1  0.0000000  0.6508444  3
   1919   1918   1930   1932     1  0.0000000  0.6508444  3
   1920   1918   1914   1921     1  0.0000000  1.2552000  3
   1920   1918   1930   1936     1  0.0000000  0.6508444  3
   1920   1918   1930   1931     1  0.0000000  0.6508444  3
   1920   1918   1930   1932     1  0.0000000  0.6508444  3
   1921   1924   1933   1934     1  0.0000000  0.6508444  3
   1921   1924   1933   1935     1  0.0000000  0.6508444  3
   1922   1921   1924   1933     1  0.0000000  0.6508444  3
   1922   1921   1924   1925     1  0.0000000  0.6508444  3
   1922   1921   1924   1926     1  0.0000000  0.6508444  3
   1923   1921   1924   1933     1  0.0000000  0.6508444  3
   1923   1921   1924   1925     1  0.0000000  0.6508444  3
   1923   1921   1924   1926     1  0.0000000  0.6508444  3
   1925   1924   1933   1942     1  0.0000000  1.0460000  1
   1925   1924   1933   1942     1  0.0000000  0.0000000  3
   1925   1924   1933   1934     1  0.0000000  0.6508444  3
   1925   1924   1933   1935     1  0.0000000  0.6508444  3
   1926   1924   1933   1942     1  0.0000000  1.0460000  1
   1926   1924   1933   1942     1  0.0000000  0.0000000  3
   1926   1924   1933   1934     1  0.0000000  0.6508444  3
   1926   1924   1933   1935     1  0.0000000  0.6508444  3
   1928   1927   1939   3943     1  0.0000000  1.0460000  1
   1928   1927   1939   3943     1  0.0000000  0.0000000  3
   1928   1927   1939   1940     1  0.0000000  0.6508444  3
   1928   1927   1939   1941     1  0.0000000  0.6508444  3
   1929   1927   1939   3943     1  0.0000000  1.0460000  1
   1929   1927   1939   3943     1  0.0000000  0.0000000  3
   1929   1927   1939   1940     1  0.0000000  0.6508444  3
   1929   1927   1939   1941     1  0.0000000  0.6508444  3
   1931   1930   1936   3914     1  0.0000000  1.0460000  1
   1931   1930   1936   3914     1  0.0000000  0.0000000  3
   1931   1930   1936   1937     1  0.0000000  0.6508444  3
   1931   1930   1936   1938     1  0.0000000  0.6508444  3
   1932   1930   1936   3914     1  0.0000000  1.0460000  1
   1932   1930   1936   3914     1  0.0000000  0.0000000  3
   1932   1930   1936   1937     1  0.0000000  0.6508444  3
   1932   1930   1936   1938     1  0.0000000  0.6508444  3
   1936   3914   3905   3906     1  0.0000000  1.6038667  3
   1936   3914   3905   3907     1  0.0000000  1.6038667  3
   1937   1936   3914   3905     1  0.0000000  1.6038667  3
   1938   1936   3914   3905     1  0.0000000  1.6038667  3
   1939   3943   3934   3935     1  0.0000000  1.6038667  3
   1939   3943   3934   3936     1  0.0000000  1.6038667  3
   1940   1939   3943   3934     1  0.0000000  1.6038667  3
   1941   1939   3943   3934     1  0.0000000  1.6038667  3
   1943   1944   1956   1957     1  0.0000000  0.6508444  3
   1943   1944   1956   1958     1  0.0000000  0.6508444  3
   1943   1947   1959   1960     1  0.0000000  0.6508444  3
   1943   1947   1959   1961     1  0.0000000  0.6508444  3
   1943   1950   1953   1954     1  0.0000000  0.6508444  3
   1943   1950   1953   1955     1  0.0000000  0.6508444  3
   1944   1943   1947   1948     1  0.0000000  1.2552000  3
   1944   1943   1947   1949     1  0.0000000  1.2552000  3
   1944   1943   1950   1951     1  0.0000000  1.2552000  3
   1944   1943   1950   1952     1  0.0000000  1.2552000  3
   1944   1956   1968   1969     1  0.0000000  0.6508444  3
   1944   1956   1968   1970     1  0.0000000  0.6508444  3
   1945   1944   1943   1947     1  0.0000000  1.2552000  3
   1945   1944   1943   1950     1  0.0000000  1.2552000  3
   1945   1944   1956   1968     1  0.0000000  0.6508444  3
   1945   1944   1956   1957     1  0.0000000  0.6508444  3
   1945   1944   1956   1958     1  0.0000000  0.6508444  3
   1946   1944   1943   1947     1  0.0000000  1.2552000  3
   1946   1944   1943   1950     1  0.0000000  1.2552000  3
   1946   1944   1956   1968     1  0.0000000  0.6508444  3
   1946   1944   1956   1957     1  0.0000000  0.6508444  3
   1946   1944   1956   1958     1  0.0000000  0.6508444  3
   1947   1943   1950   1951     1  0.0000000  1.2552000  3
   1947   1943   1950   1952     1  0.0000000  1.2552000  3
   1947   1959   1965   1966     1  0.0000000  0.6508444  3
   1947   1959   1965   1967     1  0.0000000  0.6508444  3
   1948   1947   1943   1950     1  0.0000000  1.2552000  3
   1948   1947   1959   1965     1  0.0000000  0.6508444  3
   1948   1947   1959   1960     1  0.0000000  0.6508444  3
   1948   1947   1959   1961     1  0.0000000  0.6508444  3
   1949   1947   1943   1950     1  0.0000000  1.2552000  3
   1949   1947   1959   1965     1  0.0000000  0.6508444  3
   1949   1947   1959   1960     1  0.0000000  0.6508444  3
   1949   1947   1959   1961     1  0.0000000  0.6508444  3
   1950   1953   1962   1963     1  0.0000000  0.6508444  3
   1950   1953   1962   1964     1  0.0000000  0.6508444  3
   1951   1950   1953   1962     1  0.0000000  0.6508444  3
   1951   1950   1953   1954     1  0.0000000  0.6508444  3
   1951   1950   1953   1955     1  0.0000000  0.6508444  3
   1952   1950   1953   1962     1  0.0000000  0.6508444  3
   1952   1950   1953   1954     1  0.0000000  0.6508444  3
   1952   1950   1953   1955     1  0.0000000  0.6508444  3
   1954   1953   1962   1971     1  0.0000000  1.0460000  1
   1954   1953   1962   1971     1  0.0000000  0.0000000  3
   1954   1953   1962   1963     1  0.0000000  0.6508444  3
   1954   1953   1962   1964     1  0.0000000  0.6508444  3
   1955   1953   1962   1971     1  0.0000000  1.0460000  1
   1955   1953   1962   1971     1  0.0000000  0.0000000  3
   1955   1953   1962   1963     1  0.0000000  0.6508444  3
   1955   1953   1962   1964     1  0.0000000  0.6508444  3
   1957   1956   1968   4001     1  0.0000000  1.0460000  1
   1957   1956   1968   4001     1  0.0000000  0.0000000  3
   1957   1956   1968   1969     1  0.0000000  0.6508444  3
   1957   1956   1968   1970     1  0.0000000  0.6508444  3
   1958   1956   1968   4001     1  0.0000000  1.0460000  1
   1958   1956   1968   4001     1  0.0000000  0.0000000  3
   1958   1956   1968   1969     1  0.0000000  0.6508444  3
   1958   1956   1968   1970     1  0.0000000  0.6508444  3
   1960   1959   1965   3972     1  0.0000000  1.0460000  1
   1960   1959   1965   3972     1  0.0000000  0.0000000  3
   1960   1959   1965   1966     1  0.0000000  0.6508444  3
   1960   1959   1965   1967     1  0.0000000  0.6508444  3
   1961   1959   1965   3972     1  0.0000000  1.0460000  1
   1961   1959   1965   3972     1  0.0000000  0.0000000  3
   1961   1959   1965   1966     1  0.0000000  0.6508444  3
   1961   1959   1965   1967     1  0.0000000  0.6508444  3
   1965   3972   3963   3964     1  0.0000000  1.6038667  3
   1965   3972   3963   3965     1  0.0000000  1.6038667  3
   1966   1965   3972   3963     1  0.0000000  1.6038667  3
   1967   1965   3972   3963     1  0.0000000  1.6038667  3
   1968   4001   3992   3993     1  0.0000000  1.6038667  3
   1968   4001   3992   3994     1  0.0000000  1.6038667  3
   1969   1968   4001   3992     1  0.0000000  1.6038667  3
   1970   1968   4001   3992     1  0.0000000  1.6038667  3
   1972   1973   1985   1986     1  0.0000000  0.6508444  3
   1972   1973   1985   1987     1  0.0000000  0.6508444  3
   1972   1976   1988   1989     1  0.0000000  0.6508444  3
   1972   1976   1988   1990     1  0.0000000  0.6508444  3
   1972   1979   1982   1983     1  0.0000000  0.6508444  3
   1972   1979   1982   1984     1  0.0000000  0.6508444  3
   1973   1972   1976   1977     1  0.0000000  1.2552000  3
   1973   1972   1976   1978     1  0.0000000  1.2552000  3
   1973   1972   1979   1980     1  0.0000000  1.2552000  3
   1973   1972   1979   1981     1  0.0000000  1.2552000  3
   1973   1985   1997   1998     1  0.0000000  0.6508444  3
   1973   1985   1997   1999     1  0.0000000  0.6508444  3
   1974   1973   1972   1976     1  0.0000000  1.2552000  3
   1974   1973   1972   1979     1  0.0000000  1.2552000  3
   1974   1973   1985   1997     1  0.0000000  0.6508444  3
   1974   1973   1985   1986     1  0.0000000  0.6508444  3
   1974   1973   1985   1987     1  0.0000000  0.6508444  3
   1975   1973   1972   1976     1  0.0000000  1.2552000  3
   1975   1973   1972   1979     1  0.0000000  1.2552000  3
   1975   1973   1985   1997     1  0.0000000  0.6508444  3
   1975   1973   1985   1986     1  0.0000000  0.6508444  3
   1975   1973   1985   1987     1  0.0000000  0.6508444  3
   1976   1972   1979   1980     1  0.0000000  1.2552000  3
   1976   1972   1979   1981     1  0.0000000  1.2552000  3
   1976   1988   1994   1995     1  0.0000000  0.6508444  3
   1976   1988   1994   1996     1  0.0000000  0.6508444  3
   1977   1976   1972   1979     1  0.0000000  1.2552000  3
   1977   1976   1988   1994     1  0.0000000  0.6508444  3
   1977   1976   1988   1989     1  0.0000000  0.6508444  3
   1977   1976   1988   1990     1  0.0000000  0.6508444  3
   1978   1976   1972   1979     1  0.0000000  1.2552000  3
   1978   1976   1988   1994     1  0.0000000  0.6508444  3
   1978   1976   1988   1989     1  0.0000000  0.6508444  3
   1978   1976   1988   1990     1  0.0000000  0.6508444  3
   1979   1982   1991   1992     1  0.0000000  0.6508444  3
   1979   1982   1991   1993     1  0.0000000  0.6508444  3
   1980   1979   1982   1991     1  0.0000000  0.6508444  3
   1980   1979   1982   1983     1  0.0000000  0.6508444  3
   1980   1979   1982   1984     1  0.0000000  0.6508444  3
   1981   1979   1982   1991     1  0.0000000  0.6508444  3
   1981   1979   1982   1983     1  0.0000000  0.6508444  3
   1981   1979   1982   1984     1  0.0000000  0.6508444  3
   1983   1982   1991   2000     1  0.0000000  1.0460000  1
   1983   1982   1991   2000     1  0.0000000  0.0000000  3
   1983   1982   1991   1992     1  0.0000000  0.6508444  3
   1983   1982   1991   1993     1  0.0000000  0.6508444  3
   1984   1982   1991   2000     1  0.0000000  1.0460000  1
   1984   1982   1991   2000     1  0.0000000  0.0000000  3
   1984   1982   1991   1992     1  0.0000000  0.6508444  3
   1984   1982   1991   1993     1  0.0000000  0.6508444  3
   1986   1985   1997   4059     1  0.0000000  1.0460000  1
   1986   1985   1997   4059     1  0.0000000  0.0000000  3
   1986   1985   1997   1998     1  0.0000000  0.6508444  3
   1986   1985   1997   1999     1  0.0000000  0.6508444  3
   1987   1985   1997   4059     1  0.0000000  1.0460000  1
   1987   1985   1997   4059     1  0.0000000  0.0000000  3
   1987   1985   1997   1998     1  0.0000000  0.6508444  3
   1987   1985   1997   1999     1  0.0000000  0.6508444  3
   1989   1988   1994   4030     1  0.0000000  1.0460000  1
   1989   1988   1994   4030     1  0.0000000  0.0000000  3
   1989   1988   1994   1995     1  0.0000000  0.6508444  3
   1989   1988   1994   1996     1  0.0000000  0.6508444  3
   1990   1988   1994   4030     1  0.0000000  1.0460000  1
   1990   1988   1994   4030     1  0.0000000  0.0000000  3
   1990   1988   1994   1995     1  0.0000000  0.6508444  3
   1990   1988   1994   1996     1  0.0000000  0.6508444  3
   1994   4030   4021   4022     1  0.0000000  1.6038667  3
   1994   4030   4021   4023     1  0.0000000  1.6038667  3
   1995   1994   4030   4021     1  0.0000000  1.6038667  3
   1996   1994   4030   4021     1  0.0000000  1.6038667  3
   1997   4059   4050   4051     1  0.0000000  1.6038667  3
   1997   4059   4050   4052     1  0.0000000  1.6038667  3
   1998   1997   4059   4050     1  0.0000000  1.6038667  3
   1999   1997   4059   4050     1  0.0000000  1.6038667  3
   2001   2002   2014   2015     1  0.0000000  0.6508444  3
   2001   2002   2014   2016     1  0.0000000  0.6508444  3
   2001   2005   2017   2018     1  0.0000000  0.6508444  3
   2001   2005   2017   2019     1  0.0000000  0.6508444  3
   2001   2008   2011   2012     1  0.0000000  0.6508444  3
   2001   2008   2011   2013     1  0.0000000  0.6508444  3
   2002   2001   2005   2006     1  0.0000000  1.2552000  3
   2002   2001   2005   2007     1  0.0000000  1.2552000  3
   2002   2001   2008   2009     1  0.0000000  1.2552000  3
   2002   2001   2008   2010     1  0.0000000  1.2552000  3
   2002   2014   2026   2027     1  0.0000000  0.6508444  3
   2002   2014   2026   2028     1  0.0000000  0.6508444  3
   2003   2002   2001   2005     1  0.0000000  1.2552000  3
   2003   2002   2001   2008     1  0.0000000  1.2552000  3
   2003   2002   2014   2026     1  0.0000000  0.6508444  3
   2003   2002   2014   2015     1  0.0000000  0.6508444  3
   2003   2002   2014   2016     1  0.0000000  0.6508444  3
   2004   2002   2001   2005     1  0.0000000  1.2552000  3
   2004   2002   2001   2008     1  0.0000000  1.2552000  3
   2004   2002   2014   2026     1  0.0000000  0.6508444  3
   2004   2002   2014   2015     1  0.0000000  0.6508444  3
   2004   2002   2014   2016     1  0.0000000  0.6508444  3
   2005   2001   2008   2009     1  0.0000000  1.2552000  3
   2005   2001   2008   2010     1  0.0000000  1.2552000  3
   2005   2017   2023   2024     1  0.0000000  0.6508444  3
   2005   2017   2023   2025     1  0.0000000  0.6508444  3
   2006   2005   2001   2008     1  0.0000000  1.2552000  3
   2006   2005   2017   2023     1  0.0000000  0.6508444  3
   2006   2005   2017   2018     1  0.0000000  0.6508444  3
   2006   2005   2017   2019     1  0.0000000  0.6508444  3
   2007   2005   2001   2008     1  0.0000000  1.2552000  3
   2007   2005   2017   2023     1  0.0000000  0.6508444  3
   2007   2005   2017   2018     1  0.0000000  0.6508444  3
   2007   2005   2017   2019     1  0.0000000  0.6508444  3
   2008   2011   2020   2021     1  0.0000000  0.6508444  3
   2008   2011   2020   2022     1  0.0000000  0.6508444  3
   2009   2008   2011   2020     1  0.0000000  0.6508444  3
   2009   2008   2011   2012     1  0.0000000  0.6508444  3
   2009   2008   2011   2013     1  0.0000000  0.6508444  3
   2010   2008   2011   2020     1  0.0000000  0.6508444  3
   2010   2008   2011   2012     1  0.0000000  0.6508444  3
   2010   2008   2011   2013     1  0.0000000  0.6508444  3
   2012   2011   2020   2029     1  0.0000000  1.0460000  1
   2012   2011   2020   2029     1  0.0000000  0.0000000  3
   2012   2011   2020   2021     1  0.0000000  0.6508444  3
   2012   2011   2020   2022     1  0.0000000  0.6508444  3
   2013   2011   2020   2029     1  0.0000000  1.0460000  1
   2013   2011   2020   2029     1  0.0000000  0.0000000  3
   2013   2011   2020   2021     1  0.0000000  0.6508444  3
   2013   2011   2020   2022     1  0.0000000  0.6508444  3
   2015   2014   2026   4117     1  0.0000000  1.0460000  1
   2015   2014   2026   4117     1  0.0000000  0.0000000  3
   2015   2014   2026   2027     1  0.0000000  0.6508444  3
   2015   2014   2026   2028     1  0.0000000  0.6508444  3
   2016   2014   2026   4117     1  0.0000000  1.0460000  1
   2016   2014   2026   4117     1  0.0000000  0.0000000  3
   2016   2014   2026   2027     1  0.0000000  0.6508444  3
   2016   2014   2026   2028     1  0.0000000  0.6508444  3
   2018   2017   2023   4088     1  0.0000000  1.0460000  1
   2018   2017   2023   4088     1  0.0000000  0.0000000  3
   2018   2017   2023   2024     1  0.0000000  0.6508444  3
   2018   2017   2023   2025     1  0.0000000  0.6508444  3
   2019   2017   2023   4088     1  0.0000000  1.0460000  1
   2019   2017   2023   4088     1  0.0000000  0.0000000  3
   2019   2017   2023   2024     1  0.0000000  0.6508444  3
   2019   2017   2023   2025     1  0.0000000  0.6508444  3
   2023   4088   4079   4080     1  0.0000000  1.6038667  3
   2023   4088   4079   4081     1  0.0000000  1.6038667  3
   2024   2023   4088   4079     1  0.0000000  1.6038667  3
   2025   2023   4088   4079     1  0.0000000  1.6038667  3
   2026   4117   4108   4109     1  0.0000000  1.6038667  3
   2026   4117   4108   4110     1  0.0000000  1.6038667  3
   2027   2026   4117   4108     1  0.0000000  1.6038667  3
   2028   2026   4117   4108     1  0.0000000  1.6038667  3
   2030   2031   2043   2044     1  0.0000000  0.6508444  3
   2030   2031   2043   2045     1  0.0000000  0.6508444  3
   2030   2034   2046   2047     1  0.0000000  0.6508444  3
   2030   2034   2046   2048     1  0.0000000  0.6508444  3
   2030   2037   2040   2041     1  0.0000000  0.6508444  3
   2030   2037   2040   2042     1  0.0000000  0.6508444  3
   2031   2030   2034   2035     1  0.0000000  1.2552000  3
   2031   2030   2034   2036     1  0.0000000  1.2552000  3
   2031   2030   2037   2038     1  0.0000000  1.2552000  3
   2031   2030   2037   2039     1  0.0000000  1.2552000  3
   2031   2043   2055   2056     1  0.0000000  0.6508444  3
   2031   2043   2055   2057     1  0.0000000  0.6508444  3
   2032   2031   2030   2034     1  0.0000000  1.2552000  3
   2032   2031   2030   2037     1  0.0000000  1.2552000  3
   2032   2031   2043   2055     1  0.0000000  0.6508444  3
   2032   2031   2043   2044     1  0.0000000  0.6508444  3
   2032   2031   2043   2045     1  0.0000000  0.6508444  3
   2033   2031   2030   2034     1  0.0000000  1.2552000  3
   2033   2031   2030   2037     1  0.0000000  1.2552000  3
   2033   2031   2043   2055     1  0.0000000  0.6508444  3
   2033   2031   2043   2044     1  0.0000000  0.6508444  3
   2033   2031   2043   2045     1  0.0000000  0.6508444  3
   2034   2030   2037   2038     1  0.0000000  1.2552000  3
   2034   2030   2037   2039     1  0.0000000  1.2552000  3
   2034   2046   2052   2053     1  0.0000000  0.6508444  3
   2034   2046   2052   2054     1  0.0000000  0.6508444  3
   2035   2034   2030   2037     1  0.0000000  1.2552000  3
   2035   2034   2046   2052     1  0.0000000  0.6508444  3
   2035   2034   2046   2047     1  0.0000000  0.6508444  3
   2035   2034   2046   2048     1  0.0000000  0.6508444  3
   2036   2034   2030   2037     1  0.0000000  1.2552000  3
   2036   2034   2046   2052     1  0.0000000  0.6508444  3
   2036   2034   2046   2047     1  0.0000000  0.6508444  3
   2036   2034   2046   2048     1  0.0000000  0.6508444  3
   2037   2040   2049   2050     1  0.0000000  0.6508444  3
   2037   2040   2049   2051     1  0.0000000  0.6508444  3
   2038   2037   2040   2049     1  0.0000000  0.6508444  3
   2038   2037   2040   2041     1  0.0000000  0.6508444  3
   2038   2037   2040   2042     1  0.0000000  0.6508444  3
   2039   2037   2040   2049     1  0.0000000  0.6508444  3
   2039   2037   2040   2041     1  0.0000000  0.6508444  3
   2039   2037   2040   2042     1  0.0000000  0.6508444  3
   2041   2040   2049   2058     1  0.0000000  1.0460000  1
   2041   2040   2049   2058     1  0.0000000  0.0000000  3
   2041   2040   2049   2050     1  0.0000000  0.6508444  3
   2041   2040   2049   2051     1  0.0000000  0.6508444  3
   2042   2040   2049   2058     1  0.0000000  1.0460000  1
   2042   2040   2049   2058     1  0.0000000  0.0000000  3
   2042   2040   2049   2050     1  0.0000000  0.6508444  3
   2042   2040   2049   2051     1  0.0000000  0.6508444  3
   2044   2043   2055   4175     1  0.0000000  1.0460000  1
   2044   2043   2055   4175     1  0.0000000  0.0000000  3
   2044   2043   2055   2056     1  0.0000000  0.6508444  3
   2044   2043   2055   2057     1  0.0000000  0.6508444  3
   2045   2043   2055   4175     1  0.0000000  1.0460000  1
   2045   2043   2055   4175     1  0.0000000  0.0000000  3
   2045   2043   2055   2056     1  0.0000000  0.6508444  3
   2045   2043   2055   2057     1  0.0000000  0.6508444  3
   2047   2046   2052   4146     1  0.0000000  1.0460000  1
   2047   2046   2052   4146     1  0.0000000  0.0000000  3
   2047   2046   2052   2053     1  0.0000000  0.6508444  3
   2047   2046   2052   2054     1  0.0000000  0.6508444  3
   2048   2046   2052   4146     1  0.0000000  1.0460000  1
   2048   2046   2052   4146     1  0.0000000  0.0000000  3
   2048   2046   2052   2053     1  0.0000000  0.6508444  3
   2048   2046   2052   2054     1  0.0000000  0.6508444  3
   2052   4146   4137   4138     1  0.0000000  1.6038667  3
   2052   4146   4137   4139     1  0.0000000  1.6038667  3
   2053   2052   4146   4137     1  0.0000000  1.6038667  3
   2054   2052   4146   4137     1  0.0000000  1.6038667  3
   2055   4175   4166   4167     1  0.0000000  1.6038667  3
   2055   4175   4166   4168     1  0.0000000  1.6038667  3
   2056   2055   4175   4166     1  0.0000000  1.6038667  3
   2057   2055   4175   4166     1  0.0000000  1.6038667  3
   2059   2060   2072   2073     1  0.0000000  0.6508444  3
   2059   2060   2072   2074     1  0.0000000  0.6508444  3
   2059   2063   2075   2076     1  0.0000000  0.6508444  3
   2059   2063   2075   2077     1  0.0000000  0.6508444  3
   2059   2066   2069   2070     1  0.0000000  0.6508444  3
   2059   2066   2069   2071     1  0.0000000  0.6508444  3
   2060   2059   2063   2064     1  0.0000000  1.2552000  3
   2060   2059   2063   2065     1  0.0000000  1.2552000  3
   2060   2059   2066   2067     1  0.0000000  1.2552000  3
   2060   2059   2066   2068     1  0.0000000  1.2552000  3
   2060   2072   2084   2085     1  0.0000000  0.6508444  3
   2060   2072   2084   2086     1  0.0000000  0.6508444  3
   2061   2060   2059   2063     1  0.0000000  1.2552000  3
   2061   2060   2059   2066     1  0.0000000  1.2552000  3
   2061   2060   2072   2084     1  0.0000000  0.6508444  3
   2061   2060   2072   2073     1  0.0000000  0.6508444  3
   2061   2060   2072   2074     1  0.0000000  0.6508444  3
   2062   2060   2059   2063     1  0.0000000  1.2552000  3
   2062   2060   2059   2066     1  0.0000000  1.2552000  3
   2062   2060   2072   2084     1  0.0000000  0.6508444  3
   2062   2060   2072   2073     1  0.0000000  0.6508444  3
   2062   2060   2072   2074     1  0.0000000  0.6508444  3
   2063   2059   2066   2067     1  0.0000000  1.2552000  3
   2063   2059   2066   2068     1  0.0000000  1.2552000  3
   2063   2075   2081   2082     1  0.0000000  0.6508444  3
   2063   2075   2081   2083     1  0.0000000  0.6508444  3
   2064   2063   2059   2066     1  0.0000000  1.2552000  3
   2064   2063   2075   2081     1  0.0000000  0.6508444  3
   2064   2063   2075   2076     1  0.0000000  0.6508444  3
   2064   2063   2075   2077     1  0.0000000  0.6508444  3
   2065   2063   2059   2066     1  0.0000000  1.2552000  3
   2065   2063   2075   2081     1  0.0000000  0.6508444  3
   2065   2063   2075   2076     1  0.0000000  0.6508444  3
   2065   2063   2075   2077     1  0.0000000  0.6508444  3
   2066   2069   2078   2079     1  0.0000000  0.6508444  3
   2066   2069   2078   2080     1  0.0000000  0.6508444  3
   2067   2066   2069   2078     1  0.0000000  0.6508444  3
   2067   2066   2069   2070     1  0.0000000  0.6508444  3
   2067   2066   2069   2071     1  0.0000000  0.6508444  3
   2068   2066   2069   2078     1  0.0000000  0.6508444  3
   2068   2066   2069   2070     1  0.0000000  0.6508444  3
   2068   2066   2069   2071     1  0.0000000  0.6508444  3
   2070   2069   2078   2087     1  0.0000000  1.0460000  1
   2070   2069   2078   2087     1  0.0000000  0.0000000  3
   2070   2069   2078   2079     1  0.0000000  0.6508444  3
   2070   2069   2078   2080     1  0.0000000  0.6508444  3
   2071   2069   2078   2087     1  0.0000000  1.0460000  1
   2071   2069   2078   2087     1  0.0000000  0.0000000  3
   2071   2069   2078   2079     1  0.0000000  0.6508444  3
   2071   2069   2078   2080     1  0.0000000  0.6508444  3
   2073   2072   2084   4233     1  0.0000000  1.0460000  1
   2073   2072   2084   4233     1  0.0000000  0.0000000  3
   2073   2072   2084   2085     1  0.0000000  0.6508444  3
   2073   2072   2084   2086     1  0.0000000  0.6508444  3
   2074   2072   2084   4233     1  0.0000000  1.0460000  1
   2074   2072   2084   4233     1  0.0000000  0.0000000  3
   2074   2072   2084   2085     1  0.0000000  0.6508444  3
   2074   2072   2084   2086     1  0.0000000  0.6508444  3
   2076   2075   2081   4204     1  0.0000000  1.0460000  1
   2076   2075   2081   4204     1  0.0000000  0.0000000  3
   2076   2075   2081   2082     1  0.0000000  0.6508444  3
   2076   2075   2081   2083     1  0.0000000  0.6508444  3
   2077   2075   2081   4204     1  0.0000000  1.0460000  1
   2077   2075   2081   4204     1  0.0000000  0.0000000  3
   2077   2075   2081   2082     1  0.0000000  0.6508444  3
   2077   2075   2081   2083     1  0.0000000  0.6508444  3
   2081   4204   4195   4196     1  0.0000000  1.6038667  3
   2081   4204   4195   4197     1  0.0000000  1.6038667  3
   2082   2081   4204   4195     1  0.0000000  1.6038667  3
   2083   2081   4204   4195     1  0.0000000  1.6038667  3
   2084   4233   4224   4225     1  0.0000000  1.6038667  3
   2084   4233   4224   4226     1  0.0000000  1.6038667  3
   2085   2084   4233   4224     1  0.0000000  1.6038667  3
   2086   2084   4233   4224     1  0.0000000  1.6038667  3
   2088   2089   2101   2102     1  0.0000000  0.6508444  3
   2088   2089   2101   2103     1  0.0000000  0.6508444  3
   2088   2092   2104   2105     1  0.0000000  0.6508444  3
   2088   2092   2104   2106     1  0.0000000  0.6508444  3
   2088   2095   2098   2099     1  0.0000000  0.6508444  3
   2088   2095   2098   2100     1  0.0000000  0.6508444  3
   2089   2088   2092   2093     1  0.0000000  1.2552000  3
   2089   2088   2092   2094     1  0.0000000  1.2552000  3
   2089   2088   2095   2096     1  0.0000000  1.2552000  3
   2089   2088   2095   2097     1  0.0000000  1.2552000  3
   2089   2101   2113   2114     1  0.0000000  0.6508444  3
   2089   2101   2113   2115     1  0.0000000  0.6508444  3
   2090   2089   2088   2092     1  0.0000000  1.2552000  3
   2090   2089   2088   2095     1  0.0000000  1.2552000  3
   2090   2089   2101   2113     1  0.0000000  0.6508444  3
   2090   2089   2101   2102     1  0.0000000  0.6508444  3
   2090   2089   2101   2103     1  0.0000000  0.6508444  3
   2091   2089   2088   2092     1  0.0000000  1.2552000  3
   2091   2089   2088   2095     1  0.0000000  1.2552000  3
   2091   2089   2101   2113     1  0.0000000  0.6508444  3
   2091   2089   2101   2102     1  0.0000000  0.6508444  3
   2091   2089   2101   2103     1  0.0000000  0.6508444  3
   2092   2088   2095   2096     1  0.0000000  1.2552000  3
   2092   2088   2095   2097     1  0.0000000  1.2552000  3
   2092   2104   2110   2111     1  0.0000000  0.6508444  3
   2092   2104   2110   2112     1  0.0000000  0.6508444  3
   2093   2092   2088   2095     1  0.0000000  1.2552000  3
   2093   2092   2104   2110     1  0.0000000  0.6508444  3
   2093   2092   2104   2105     1  0.0000000  0.6508444  3
   2093   2092   2104   2106     1  0.0000000  0.6508444  3
   2094   2092   2088   2095     1  0.0000000  1.2552000  3
   2094   2092   2104   2110     1  0.0000000  0.6508444  3
   2094   2092   2104   2105     1  0.0000000  0.6508444  3
   2094   2092   2104   2106     1  0.0000000  0.6508444  3
   2095   2098   2107   2108     1  0.0000000  0.6508444  3
   2095   2098   2107   2109     1  0.0000000  0.6508444  3
   2096   2095   2098   2107     1  0.0000000  0.6508444  3
   2096   2095   2098   2099     1  0.0000000  0.6508444  3
   2096   2095   2098   2100     1  0.0000000  0.6508444  3
   2097   2095   2098   2107     1  0.0000000  0.6508444  3
   2097   2095   2098   2099     1  0.0000000  0.6508444  3
   2097   2095   2098   2100     1  0.0000000  0.6508444  3
   2099   2098   2107   2116     1  0.0000000  1.0460000  1
   2099   2098   2107   2116     1  0.0000000  0.0000000  3
   2099   2098   2107   2108     1  0.0000000  0.6508444  3
   2099   2098   2107   2109     1  0.0000000  0.6508444  3
   2100   2098   2107   2116     1  0.0000000  1.0460000  1
   2100   2098   2107   2116     1  0.0000000  0.0000000  3
   2100   2098   2107   2108     1  0.0000000  0.6508444  3
   2100   2098   2107   2109     1  0.0000000  0.6508444  3
   2102   2101   2113   4291     1  0.0000000  1.0460000  1
   2102   2101   2113   4291     1  0.0000000  0.0000000  3
   2102   2101   2113   2114     1  0.0000000  0.6508444  3
   2102   2101   2113   2115     1  0.0000000  0.6508444  3
   2103   2101   2113   4291     1  0.0000000  1.0460000  1
   2103   2101   2113   4291     1  0.0000000  0.0000000  3
   2103   2101   2113   2114     1  0.0000000  0.6508444  3
   2103   2101   2113   2115     1  0.0000000  0.6508444  3
   2105   2104   2110   4262     1  0.0000000  1.0460000  1
   2105   2104   2110   4262     1  0.0000000  0.0000000  3
   2105   2104   2110   2111     1  0.0000000  0.6508444  3
   2105   2104   2110   2112     1  0.0000000  0.6508444  3
   2106   2104   2110   4262     1  0.0000000  1.0460000  1
   2106   2104   2110   4262     1  0.0000000  0.0000000  3
   2106   2104   2110   2111     1  0.0000000  0.6508444  3
   2106   2104   2110   2112     1  0.0000000  0.6508444  3
   2110   4262   4253   4254     1  0.0000000  1.6038667  3
   2110   4262   4253   4255     1  0.0000000  1.6038667  3
   2111   2110   4262   4253     1  0.0000000  1.6038667  3
   2112   2110   4262   4253     1  0.0000000  1.6038667  3
   2113   4291   4282   4283     1  0.0000000  1.6038667  3
   2113   4291   4282   4284     1  0.0000000  1.6038667  3
   2114   2113   4291   4282     1  0.0000000  1.6038667  3
   2115   2113   4291   4282     1  0.0000000  1.6038667  3
   2117   2118   2130   2131     1  0.0000000  0.6508444  3
   2117   2118   2130   2132     1  0.0000000  0.6508444  3
   2117   2121   2133   2134     1  0.0000000  0.6508444  3
   2117   2121   2133   2135     1  0.0000000  0.6508444  3
   2117   2124   2127   2128     1  0.0000000  0.6508444  3
   2117   2124   2127   2129     1  0.0000000  0.6508444  3
   2118   2117   2121   2122     1  0.0000000  1.2552000  3
   2118   2117   2121   2123     1  0.0000000  1.2552000  3
   2118   2117   2124   2125     1  0.0000000  1.2552000  3
   2118   2117   2124   2126     1  0.0000000  1.2552000  3
   2118   2130   2142   2143     1  0.0000000  0.6508444  3
   2118   2130   2142   2144     1  0.0000000  0.6508444  3
   2119   2118   2117   2121     1  0.0000000  1.2552000  3
   2119   2118   2117   2124     1  0.0000000  1.2552000  3
   2119   2118   2130   2142     1  0.0000000  0.6508444  3
   2119   2118   2130   2131     1  0.0000000  0.6508444  3
   2119   2118   2130   2132     1  0.0000000  0.6508444  3
   2120   2118   2117   2121     1  0.0000000  1.2552000  3
   2120   2118   2117   2124     1  0.0000000  1.2552000  3
   2120   2118   2130   2142     1  0.0000000  0.6508444  3
   2120   2118   2130   2131     1  0.0000000  0.6508444  3
   2120   2118   2130   2132     1  0.0000000  0.6508444  3
   2121   2117   2124   2125     1  0.0000000  1.2552000  3
   2121   2117   2124   2126     1  0.0000000  1.2552000  3
   2121   2133   2139   2140     1  0.0000000  0.6508444  3
   2121   2133   2139   2141     1  0.0000000  0.6508444  3
   2122   2121   2117   2124     1  0.0000000  1.2552000  3
   2122   2121   2133   2139     1  0.0000000  0.6508444  3
   2122   2121   2133   2134     1  0.0000000  0.6508444  3
   2122   2121   2133   2135     1  0.0000000  0.6508444  3
   2123   2121   2117   2124     1  0.0000000  1.2552000  3
   2123   2121   2133   2139     1  0.0000000  0.6508444  3
   2123   2121   2133   2134     1  0.0000000  0.6508444  3
   2123   2121   2133   2135     1  0.0000000  0.6508444  3
   2124   2127   2136   2137     1  0.0000000  0.6508444  3
   2124   2127   2136   2138     1  0.0000000  0.6508444  3
   2125   2124   2127   2136     1  0.0000000  0.6508444  3
   2125   2124   2127   2128     1  0.0000000  0.6508444  3
   2125   2124   2127   2129     1  0.0000000  0.6508444  3
   2126   2124   2127   2136     1  0.0000000  0.6508444  3
   2126   2124   2127   2128     1  0.0000000  0.6508444  3
   2126   2124   2127   2129     1  0.0000000  0.6508444  3
   2128   2127   2136   2145     1  0.0000000  1.0460000  1
   2128   2127   2136   2145     1  0.0000000  0.0000000  3
   2128   2127   2136   2137     1  0.0000000  0.6508444  3
   2128   2127   2136   2138     1  0.0000000  0.6508444  3
   2129   2127   2136   2145     1  0.0000000  1.0460000  1
   2129   2127   2136   2145     1  0.0000000  0.0000000  3
   2129   2127   2136   2137     1  0.0000000  0.6508444  3
   2129   2127   2136   2138     1  0.0000000  0.6508444  3
   2131   2130   2142   4349     1  0.0000000  1.0460000  1
   2131   2130   2142   4349     1  0.0000000  0.0000000  3
   2131   2130   2142   2143     1  0.0000000  0.6508444  3
   2131   2130   2142   2144     1  0.0000000  0.6508444  3
   2132   2130   2142   4349     1  0.0000000  1.0460000  1
   2132   2130   2142   4349     1  0.0000000  0.0000000  3
   2132   2130   2142   2143     1  0.0000000  0.6508444  3
   2132   2130   2142   2144     1  0.0000000  0.6508444  3
   2134   2133   2139   4320     1  0.0000000  1.0460000  1
   2134   2133   2139   4320     1  0.0000000  0.0000000  3
   2134   2133   2139   2140     1  0.0000000  0.6508444  3
   2134   2133   2139   2141     1  0.0000000  0.6508444  3
   2135   2133   2139   4320     1  0.0000000  1.0460000  1
   2135   2133   2139   4320     1  0.0000000  0.0000000  3
   2135   2133   2139   2140     1  0.0000000  0.6508444  3
   2135   2133   2139   2141     1  0.0000000  0.6508444  3
   2139   4320   4311   4312     1  0.0000000  1.6038667  3
   2139   4320   4311   4313     1  0.0000000  1.6038667  3
   2140   2139   4320   4311     1  0.0000000  1.6038667  3
   2141   2139   4320   4311     1  0.0000000  1.6038667  3
   2142   4349   4340   4341     1  0.0000000  1.6038667  3
   2142   4349   4340   4342     1  0.0000000  1.6038667  3
   2143   2142   4349   4340     1  0.0000000  1.6038667  3
   2144   2142   4349   4340     1  0.0000000  1.6038667  3
   2146   2147   2159   2160     1  0.0000000  0.6508444  3
   2146   2147   2159   2161     1  0.0000000  0.6508444  3
   2146   2150   2162   2163     1  0.0000000  0.6508444  3
   2146   2150   2162   2164     1  0.0000000  0.6508444  3
   2146   2153   2156   2157     1  0.0000000  0.6508444  3
   2146   2153   2156   2158     1  0.0000000  0.6508444  3
   2147   2146   2150   2151     1  0.0000000  1.2552000  3
   2147   2146   2150   2152     1  0.0000000  1.2552000  3
   2147   2146   2153   2154     1  0.0000000  1.2552000  3
   2147   2146   2153   2155     1  0.0000000  1.2552000  3
   2147   2159   2171   2172     1  0.0000000  0.6508444  3
   2147   2159   2171   2173     1  0.0000000  0.6508444  3
   2148   2147   2146   2150     1  0.0000000  1.2552000  3
   2148   2147   2146   2153     1  0.0000000  1.2552000  3
   2148   2147   2159   2171     1  0.0000000  0.6508444  3
   2148   2147   2159   2160     1  0.0000000  0.6508444  3
   2148   2147   2159   2161     1  0.0000000  0.6508444  3
   2149   2147   2146   2150     1  0.0000000  1.2552000  3
   2149   2147   2146   2153     1  0.0000000  1.2552000  3
   2149   2147   2159   2171     1  0.0000000  0.6508444  3
   2149   2147   2159   2160     1  0.0000000  0.6508444  3
   2149   2147   2159   2161     1  0.0000000  0.6508444  3
   2150   2146   2153   2154     1  0.0000000  1.2552000  3
   2150   2146   2153   2155     1  0.0000000  1.2552000  3
   2150   2162   2168   2169     1  0.0000000  0.6508444  3
   2150   2162   2168   2170     1  0.0000000  0.6508444  3
   2151   2150   2146   2153     1  0.0000000  1.2552000  3
   2151   2150   2162   2168     1  0.0000000  0.6508444  3
   2151   2150   2162   2163     1  0.0000000  0.6508444  3
   2151   2150   2162   2164     1  0.0000000  0.6508444  3
   2152   2150   2146   2153     1  0.0000000  1.2552000  3
   2152   2150   2162   2168     1  0.0000000  0.6508444  3
   2152   2150   2162   2163     1  0.0000000  0.6508444  3
   2152   2150   2162   2164     1  0.0000000  0.6508444  3
   2153   2156   2165   2166     1  0.0000000  0.6508444  3
   2153   2156   2165   2167     1  0.0000000  0.6508444  3
   2154   2153   2156   2165     1  0.0000000  0.6508444  3
   2154   2153   2156   2157     1  0.0000000  0.6508444  3
   2154   2153   2156   2158     1  0.0000000  0.6508444  3
   2155   2153   2156   2165     1  0.0000000  0.6508444  3
   2155   2153   2156   2157     1  0.0000000  0.6508444  3
   2155   2153   2156   2158     1  0.0000000  0.6508444  3
   2157   2156   2165   2174     1  0.0000000  1.0460000  1
   2157   2156   2165   2174     1  0.0000000  0.0000000  3
   2157   2156   2165   2166     1  0.0000000  0.6508444  3
   2157   2156   2165   2167     1  0.0000000  0.6508444  3
   2158   2156   2165   2174     1  0.0000000  1.0460000  1
   2158   2156   2165   2174     1  0.0000000  0.0000000  3
   2158   2156   2165   2166     1  0.0000000  0.6508444  3
   2158   2156   2165   2167     1  0.0000000  0.6508444  3
   2160   2159   2171   4407     1  0.0000000  1.0460000  1
   2160   2159   2171   4407     1  0.0000000  0.0000000  3
   2160   2159   2171   2172     1  0.0000000  0.6508444  3
   2160   2159   2171   2173     1  0.0000000  0.6508444  3
   2161   2159   2171   4407     1  0.0000000  1.0460000  1
   2161   2159   2171   4407     1  0.0000000  0.0000000  3
   2161   2159   2171   2172     1  0.0000000  0.6508444  3
   2161   2159   2171   2173     1  0.0000000  0.6508444  3
   2163   2162   2168   4378     1  0.0000000  1.0460000  1
   2163   2162   2168   4378     1  0.0000000  0.0000000  3
   2163   2162   2168   2169     1  0.0000000  0.6508444  3
   2163   2162   2168   2170     1  0.0000000  0.6508444  3
   2164   2162   2168   4378     1  0.0000000  1.0460000  1
   2164   2162   2168   4378     1  0.0000000  0.0000000  3
   2164   2162   2168   2169     1  0.0000000  0.6508444  3
   2164   2162   2168   2170     1  0.0000000  0.6508444  3
   2168   4378   4369   4370     1  0.0000000  1.6038667  3
   2168   4378   4369   4371     1  0.0000000  1.6038667  3
   2169   2168   4378   4369     1  0.0000000  1.6038667  3
   2170   2168   4378   4369     1  0.0000000  1.6038667  3
   2171   4407   4398   4399     1  0.0000000  1.6038667  3
   2171   4407   4398   4400     1  0.0000000  1.6038667  3
   2172   2171   4407   4398     1  0.0000000  1.6038667  3
   2173   2171   4407   4398     1  0.0000000  1.6038667  3
   2175   2176   2188   2189     1  0.0000000  0.6508444  3
   2175   2176   2188   2190     1  0.0000000  0.6508444  3
   2175   2179   2191   2192     1  0.0000000  0.6508444  3
   2175   2179   2191   2193     1  0.0000000  0.6508444  3
   2175   2182   2185   2186     1  0.0000000  0.6508444  3
   2175   2182   2185   2187     1  0.0000000  0.6508444  3
   2176   2175   2179   2180     1  0.0000000  1.2552000  3
   2176   2175   2179   2181     1  0.0000000  1.2552000  3
   2176   2175   2182   2183     1  0.0000000  1.2552000  3
   2176   2175   2182   2184     1  0.0000000  1.2552000  3
   2176   2188   2200   2201     1  0.0000000  0.6508444  3
   2176   2188   2200   2202     1  0.0000000  0.6508444  3
   2177   2176   2175   2179     1  0.0000000  1.2552000  3
   2177   2176   2175   2182     1  0.0000000  1.2552000  3
   2177   2176   2188   2200     1  0.0000000  0.6508444  3
   2177   2176   2188   2189     1  0.0000000  0.6508444  3
   2177   2176   2188   2190     1  0.0000000  0.6508444  3
   2178   2176   2175   2179     1  0.0000000  1.2552000  3
   2178   2176   2175   2182     1  0.0000000  1.2552000  3
   2178   2176   2188   2200     1  0.0000000  0.6508444  3
   2178   2176   2188   2189     1  0.0000000  0.6508444  3
   2178   2176   2188   2190     1  0.0000000  0.6508444  3
   2179   2175   2182   2183     1  0.0000000  1.2552000  3
   2179   2175   2182   2184     1  0.0000000  1.2552000  3
   2179   2191   2197   2198     1  0.0000000  0.6508444  3
   2179   2191   2197   2199     1  0.0000000  0.6508444  3
   2180   2179   2175   2182     1  0.0000000  1.2552000  3
   2180   2179   2191   2197     1  0.0000000  0.6508444  3
   2180   2179   2191   2192     1  0.0000000  0.6508444  3
   2180   2179   2191   2193     1  0.0000000  0.6508444  3
   2181   2179   2175   2182     1  0.0000000  1.2552000  3
   2181   2179   2191   2197     1  0.0000000  0.6508444  3
   2181   2179   2191   2192     1  0.0000000  0.6508444  3
   2181   2179   2191   2193     1  0.0000000  0.6508444  3
   2182   2185   2194   2195     1  0.0000000  0.6508444  3
   2182   2185   2194   2196     1  0.0000000  0.6508444  3
   2183   2182   2185   2194     1  0.0000000  0.6508444  3
   2183   2182   2185   2186     1  0.0000000  0.6508444  3
   2183   2182   2185   2187     1  0.0000000  0.6508444  3
   2184   2182   2185   2194     1  0.0000000  0.6508444  3
   2184   2182   2185   2186     1  0.0000000  0.6508444  3
   2184   2182   2185   2187     1  0.0000000  0.6508444  3
   2186   2185   2194   2203     1  0.0000000  1.0460000  1
   2186   2185   2194   2203     1  0.0000000  0.0000000  3
   2186   2185   2194   2195     1  0.0000000  0.6508444  3
   2186   2185   2194   2196     1  0.0000000  0.6508444  3
   2187   2185   2194   2203     1  0.0000000  1.0460000  1
   2187   2185   2194   2203     1  0.0000000  0.0000000  3
   2187   2185   2194   2195     1  0.0000000  0.6508444  3
   2187   2185   2194   2196     1  0.0000000  0.6508444  3
   2189   2188   2200   4465     1  0.0000000  1.0460000  1
   2189   2188   2200   4465     1  0.0000000  0.0000000  3
   2189   2188   2200   2201     1  0.0000000  0.6508444  3
   2189   2188   2200   2202     1  0.0000000  0.6508444  3
   2190   2188   2200   4465     1  0.0000000  1.0460000  1
   2190   2188   2200   4465     1  0.0000000  0.0000000  3
   2190   2188   2200   2201     1  0.0000000  0.6508444  3
   2190   2188   2200   2202     1  0.0000000  0.6508444  3
   2192   2191   2197   4436     1  0.0000000  1.0460000  1
   2192   2191   2197   4436     1  0.0000000  0.0000000  3
   2192   2191   2197   2198     1  0.0000000  0.6508444  3
   2192   2191   2197   2199     1  0.0000000  0.6508444  3
   2193   2191   2197   4436     1  0.0000000  1.0460000  1
   2193   2191   2197   4436     1  0.0000000  0.0000000  3
   2193   2191   2197   2198     1  0.0000000  0.6508444  3
   2193   2191   2197   2199     1  0.0000000  0.6508444  3
   2197   4436   4427   4428     1  0.0000000  1.6038667  3
   2197   4436   4427   4429     1  0.0000000  1.6038667  3
   2198   2197   4436   4427     1  0.0000000  1.6038667  3
   2199   2197   4436   4427     1  0.0000000  1.6038667  3
   2200   4465   4456   4457     1  0.0000000  1.6038667  3
   2200   4465   4456   4458     1  0.0000000  1.6038667  3
   2201   2200   4465   4456     1  0.0000000  1.6038667  3
   2202   2200   4465   4456     1  0.0000000  1.6038667  3
   2204   2205   2217   2218     1  0.0000000  0.6508444  3
   2204   2205   2217   2219     1  0.0000000  0.6508444  3
   2204   2208   2220   2221     1  0.0000000  0.6508444  3
   2204   2208   2220   2222     1  0.0000000  0.6508444  3
   2204   2211   2214   2215     1  0.0000000  0.6508444  3
   2204   2211   2214   2216     1  0.0000000  0.6508444  3
   2205   2204   2208   2209     1  0.0000000  1.2552000  3
   2205   2204   2208   2210     1  0.0000000  1.2552000  3
   2205   2204   2211   2212     1  0.0000000  1.2552000  3
   2205   2204   2211   2213     1  0.0000000  1.2552000  3
   2205   2217   2229   2230     1  0.0000000  0.6508444  3
   2205   2217   2229   2231     1  0.0000000  0.6508444  3
   2206   2205   2204   2208     1  0.0000000  1.2552000  3
   2206   2205   2204   2211     1  0.0000000  1.2552000  3
   2206   2205   2217   2229     1  0.0000000  0.6508444  3
   2206   2205   2217   2218     1  0.0000000  0.6508444  3
   2206   2205   2217   2219     1  0.0000000  0.6508444  3
   2207   2205   2204   2208     1  0.0000000  1.2552000  3
   2207   2205   2204   2211     1  0.0000000  1.2552000  3
   2207   2205   2217   2229     1  0.0000000  0.6508444  3
   2207   2205   2217   2218     1  0.0000000  0.6508444  3
   2207   2205   2217   2219     1  0.0000000  0.6508444  3
   2208   2204   2211   2212     1  0.0000000  1.2552000  3
   2208   2204   2211   2213     1  0.0000000  1.2552000  3
   2208   2220   2226   2227     1  0.0000000  0.6508444  3
   2208   2220   2226   2228     1  0.0000000  0.6508444  3
   2209   2208   2204   2211     1  0.0000000  1.2552000  3
   2209   2208   2220   2226     1  0.0000000  0.6508444  3
   2209   2208   2220   2221     1  0.0000000  0.6508444  3
   2209   2208   2220   2222     1  0.0000000  0.6508444  3
   2210   2208   2204   2211     1  0.0000000  1.2552000  3
   2210   2208   2220   2226     1  0.0000000  0.6508444  3
   2210   2208   2220   2221     1  0.0000000  0.6508444  3
   2210   2208   2220   2222     1  0.0000000  0.6508444  3
   2211   2214   2223   2224     1  0.0000000  0.6508444  3
   2211   2214   2223   2225     1  0.0000000  0.6508444  3
   2212   2211   2214   2223     1  0.0000000  0.6508444  3
   2212   2211   2214   2215     1  0.0000000  0.6508444  3
   2212   2211   2214   2216     1  0.0000000  0.6508444  3
   2213   2211   2214   2223     1  0.0000000  0.6508444  3
   2213   2211   2214   2215     1  0.0000000  0.6508444  3
   2213   2211   2214   2216     1  0.0000000  0.6508444  3
   2215   2214   2223   2232     1  0.0000000  1.0460000  1
   2215   2214   2223   2232     1  0.0000000  0.0000000  3
   2215   2214   2223   2224     1  0.0000000  0.6508444  3
   2215   2214   2223   2225     1  0.0000000  0.6508444  3
   2216   2214   2223   2232     1  0.0000000  1.0460000  1
   2216   2214   2223   2232     1  0.0000000  0.0000000  3
   2216   2214   2223   2224     1  0.0000000  0.6508444  3
   2216   2214   2223   2225     1  0.0000000  0.6508444  3
   2218   2217   2229   4523     1  0.0000000  1.0460000  1
   2218   2217   2229   4523     1  0.0000000  0.0000000  3
   2218   2217   2229   2230     1  0.0000000  0.6508444  3
   2218   2217   2229   2231     1  0.0000000  0.6508444  3
   2219   2217   2229   4523     1  0.0000000  1.0460000  1
   2219   2217   2229   4523     1  0.0000000  0.0000000  3
   2219   2217   2229   2230     1  0.0000000  0.6508444  3
   2219   2217   2229   2231     1  0.0000000  0.6508444  3
   2221   2220   2226   4494     1  0.0000000  1.0460000  1
   2221   2220   2226   4494     1  0.0000000  0.0000000  3
   2221   2220   2226   2227     1  0.0000000  0.6508444  3
   2221   2220   2226   2228     1  0.0000000  0.6508444  3
   2222   2220   2226   4494     1  0.0000000  1.0460000  1
   2222   2220   2226   4494     1  0.0000000  0.0000000  3
   2222   2220   2226   2227     1  0.0000000  0.6508444  3
   2222   2220   2226   2228     1  0.0000000  0.6508444  3
   2226   4494   4485   4486     1  0.0000000  1.6038667  3
   2226   4494   4485   4487     1  0.0000000  1.6038667  3
   2227   2226   4494   4485     1  0.0000000  1.6038667  3
   2228   2226   4494   4485     1  0.0000000  1.6038667  3
   2229   4523   4514   4515     1  0.0000000  1.6038667  3
   2229   4523   4514   4516     1  0.0000000  1.6038667  3
   2230   2229   4523   4514     1  0.0000000  1.6038667  3
   2231   2229   4523   4514     1  0.0000000  1.6038667  3
   2233   2234   2246   2247     1  0.0000000  0.6508444  3
   2233   2234   2246   2248     1  0.0000000  0.6508444  3
   2233   2237   2249   2250     1  0.0000000  0.6508444  3
   2233   2237   2249   2251     1  0.0000000  0.6508444  3
   2233   2240   2243   2244     1  0.0000000  0.6508444  3
   2233   2240   2243   2245     1  0.0000000  0.6508444  3
   2234   2233   2237   2238     1  0.0000000  1.2552000  3
   2234   2233   2237   2239     1  0.0000000  1.2552000  3
   2234   2233   2240   2241     1  0.0000000  1.2552000  3
   2234   2233   2240   2242     1  0.0000000  1.2552000  3
   2234   2246   2258   2259     1  0.0000000  0.6508444  3
   2234   2246   2258   2260     1  0.0000000  0.6508444  3
   2235   2234   2233   2237     1  0.0000000  1.2552000  3
   2235   2234   2233   2240     1  0.0000000  1.2552000  3
   2235   2234   2246   2258     1  0.0000000  0.6508444  3
   2235   2234   2246   2247     1  0.0000000  0.6508444  3
   2235   2234   2246   2248     1  0.0000000  0.6508444  3
   2236   2234   2233   2237     1  0.0000000  1.2552000  3
   2236   2234   2233   2240     1  0.0000000  1.2552000  3
   2236   2234   2246   2258     1  0.0000000  0.6508444  3
   2236   2234   2246   2247     1  0.0000000  0.6508444  3
   2236   2234   2246   2248     1  0.0000000  0.6508444  3
   2237   2233   2240   2241     1  0.0000000  1.2552000  3
   2237   2233   2240   2242     1  0.0000000  1.2552000  3
   2237   2249   2255   2256     1  0.0000000  0.6508444  3
   2237   2249   2255   2257     1  0.0000000  0.6508444  3
   2238   2237   2233   2240     1  0.0000000  1.2552000  3
   2238   2237   2249   2255     1  0.0000000  0.6508444  3
   2238   2237   2249   2250     1  0.0000000  0.6508444  3
   2238   2237   2249   2251     1  0.0000000  0.6508444  3
   2239   2237   2233   2240     1  0.0000000  1.2552000  3
   2239   2237   2249   2255     1  0.0000000  0.6508444  3
   2239   2237   2249   2250     1  0.0000000  0.6508444  3
   2239   2237   2249   2251     1  0.0000000  0.6508444  3
   2240   2243   2252   2253     1  0.0000000  0.6508444  3
   2240   2243   2252   2254     1  0.0000000  0.6508444  3
   2241   2240   2243   2252     1  0.0000000  0.6508444  3
   2241   2240   2243   2244     1  0.0000000  0.6508444  3
   2241   2240   2243   2245     1  0.0000000  0.6508444  3
   2242   2240   2243   2252     1  0.0000000  0.6508444  3
   2242   2240   2243   2244     1  0.0000000  0.6508444  3
   2242   2240   2243   2245     1  0.0000000  0.6508444  3
   2244   2243   2252   2261     1  0.0000000  1.0460000  1
   2244   2243   2252   2261     1  0.0000000  0.0000000  3
   2244   2243   2252   2253     1  0.0000000  0.6508444  3
   2244   2243   2252   2254     1  0.0000000  0.6508444  3
   2245   2243   2252   2261     1  0.0000000  1.0460000  1
   2245   2243   2252   2261     1  0.0000000  0.0000000  3
   2245   2243   2252   2253     1  0.0000000  0.6508444  3
   2245   2243   2252   2254     1  0.0000000  0.6508444  3
   2247   2246   2258   4581     1  0.0000000  1.0460000  1
   2247   2246   2258   4581     1  0.0000000  0.0000000  3
   2247   2246   2258   2259     1  0.0000000  0.6508444  3
   2247   2246   2258   2260     1  0.0000000  0.6508444  3
   2248   2246   2258   4581     1  0.0000000  1.0460000  1
   2248   2246   2258   4581     1  0.0000000  0.0000000  3
   2248   2246   2258   2259     1  0.0000000  0.6508444  3
   2248   2246   2258   2260     1  0.0000000  0.6508444  3
   2250   2249   2255   4552     1  0.0000000  1.0460000  1
   2250   2249   2255   4552     1  0.0000000  0.0000000  3
   2250   2249   2255   2256     1  0.0000000  0.6508444  3
   2250   2249   2255   2257     1  0.0000000  0.6508444  3
   2251   2249   2255   4552     1  0.0000000  1.0460000  1
   2251   2249   2255   4552     1  0.0000000  0.0000000  3
   2251   2249   2255   2256     1  0.0000000  0.6508444  3
   2251   2249   2255   2257     1  0.0000000  0.6508444  3
   2255   4552   4543   4544     1  0.0000000  1.6038667  3
   2255   4552   4543   4545     1  0.0000000  1.6038667  3
   2256   2255   4552   4543     1  0.0000000  1.6038667  3
   2257   2255   4552   4543     1  0.0000000  1.6038667  3
   2258   4581   4572   4573     1  0.0000000  1.6038667  3
   2258   4581   4572   4574     1  0.0000000  1.6038667  3
   2259   2258   4581   4572     1  0.0000000  1.6038667  3
   2260   2258   4581   4572     1  0.0000000  1.6038667  3
   2262   2263   2275   2276     1  0.0000000  0.6508444  3
   2262   2263   2275   2277     1  0.0000000  0.6508444  3
   2262   2266   2278   2279     1  0.0000000  0.6508444  3
   2262   2266   2278   2280     1  0.0000000  0.6508444  3
   2262   2269   2272   2273     1  0.0000000  0.6508444  3
   2262   2269   2272   2274     1  0.0000000  0.6508444  3
   2263   2262   2266   2267     1  0.0000000  1.2552000  3
   2263   2262   2266   2268     1  0.0000000  1.2552000  3
   2263   2262   2269   2270     1  0.0000000  1.2552000  3
   2263   2262   2269   2271     1  0.0000000  1.2552000  3
   2263   2275   2287   2288     1  0.0000000  0.6508444  3
   2263   2275   2287   2289     1  0.0000000  0.6508444  3
   2264   2263   2262   2266     1  0.0000000  1.2552000  3
   2264   2263   2262   2269     1  0.0000000  1.2552000  3
   2264   2263   2275   2287     1  0.0000000  0.6508444  3
   2264   2263   2275   2276     1  0.0000000  0.6508444  3
   2264   2263   2275   2277     1  0.0000000  0.6508444  3
   2265   2263   2262   2266     1  0.0000000  1.2552000  3
   2265   2263   2262   2269     1  0.0000000  1.2552000  3
   2265   2263   2275   2287     1  0.0000000  0.6508444  3
   2265   2263   2275   2276     1  0.0000000  0.6508444  3
   2265   2263   2275   2277     1  0.0000000  0.6508444  3
   2266   2262   2269   2270     1  0.0000000  1.2552000  3
   2266   2262   2269   2271     1  0.0000000  1.2552000  3
   2266   2278   2284   2285     1  0.0000000  0.6508444  3
   2266   2278   2284   2286     1  0.0000000  0.6508444  3
   2267   2266   2262   2269     1  0.0000000  1.2552000  3
   2267   2266   2278   2284     1  0.0000000  0.6508444  3
   2267   2266   2278   2279     1  0.0000000  0.6508444  3
   2267   2266   2278   2280     1  0.0000000  0.6508444  3
   2268   2266   2262   2269     1  0.0000000  1.2552000  3
   2268   2266   2278   2284     1  0.0000000  0.6508444  3
   2268   2266   2278   2279     1  0.0000000  0.6508444  3
   2268   2266   2278   2280     1  0.0000000  0.6508444  3
   2269   2272   2281   2282     1  0.0000000  0.6508444  3
   2269   2272   2281   2283     1  0.0000000  0.6508444  3
   2270   2269   2272   2281     1  0.0000000  0.6508444  3
   2270   2269   2272   2273     1  0.0000000  0.6508444  3
   2270   2269   2272   2274     1  0.0000000  0.6508444  3
   2271   2269   2272   2281     1  0.0000000  0.6508444  3
   2271   2269   2272   2273     1  0.0000000  0.6508444  3
   2271   2269   2272   2274     1  0.0000000  0.6508444  3
   2273   2272   2281   2290     1  0.0000000  1.0460000  1
   2273   2272   2281   2290     1  0.0000000  0.0000000  3
   2273   2272   2281   2282     1  0.0000000  0.6508444  3
   2273   2272   2281   2283     1  0.0000000  0.6508444  3
   2274   2272   2281   2290     1  0.0000000  1.0460000  1
   2274   2272   2281   2290     1  0.0000000  0.0000000  3
   2274   2272   2281   2282     1  0.0000000  0.6508444  3
   2274   2272   2281   2283     1  0.0000000  0.6508444  3
   2276   2275   2287   4639     1  0.0000000  1.0460000  1
   2276   2275   2287   4639     1  0.0000000  0.0000000  3
   2276   2275   2287   2288     1  0.0000000  0.6508444  3
   2276   2275   2287   2289     1  0.0000000  0.6508444  3
   2277   2275   2287   4639     1  0.0000000  1.0460000  1
   2277   2275   2287   4639     1  0.0000000  0.0000000  3
   2277   2275   2287   2288     1  0.0000000  0.6508444  3
   2277   2275   2287   2289     1  0.0000000  0.6508444  3
   2279   2278   2284   4610     1  0.0000000  1.0460000  1
   2279   2278   2284   4610     1  0.0000000  0.0000000  3
   2279   2278   2284   2285     1  0.0000000  0.6508444  3
   2279   2278   2284   2286     1  0.0000000  0.6508444  3
   2280   2278   2284   4610     1  0.0000000  1.0460000  1
   2280   2278   2284   4610     1  0.0000000  0.0000000  3
   2280   2278   2284   2285     1  0.0000000  0.6508444  3
   2280   2278   2284   2286     1  0.0000000  0.6508444  3
   2284   4610   4601   4602     1  0.0000000  1.6038667  3
   2284   4610   4601   4603     1  0.0000000  1.6038667  3
   2285   2284   4610   4601     1  0.0000000  1.6038667  3
   2286   2284   4610   4601     1  0.0000000  1.6038667  3
   2287   4639   4630   4631     1  0.0000000  1.6038667  3
   2287   4639   4630   4632     1  0.0000000  1.6038667  3
   2288   2287   4639   4630     1  0.0000000  1.6038667  3
   2289   2287   4639   4630     1  0.0000000  1.6038667  3
   2291   2292   2304   2305     1  0.0000000  0.6508444  3
   2291   2292   2304   2306     1  0.0000000  0.6508444  3
   2291   2295   2307   2308     1  0.0000000  0.6508444  3
   2291   2295   2307   2309     1  0.0000000  0.6508444  3
   2291   2298   2301   2302     1  0.0000000  0.6508444  3
   2291   2298   2301   2303     1  0.0000000  0.6508444  3
   2292   2291   2295   2296     1  0.0000000  1.2552000  3
   2292   2291   2295   2297     1  0.0000000  1.2552000  3
   2292   2291   2298   2299     1  0.0000000  1.2552000  3
   2292   2291   2298   2300     1  0.0000000  1.2552000  3
   2292   2304   2316   2317     1  0.0000000  0.6508444  3
   2292   2304   2316   2318     1  0.0000000  0.6508444  3
   2293   2292   2291   2295     1  0.0000000  1.2552000  3
   2293   2292   2291   2298     1  0.0000000  1.2552000  3
   2293   2292   2304   2316     1  0.0000000  0.6508444  3
   2293   2292   2304   2305     1  0.0000000  0.6508444  3
   2293   2292   2304   2306     1  0.0000000  0.6508444  3
   2294   2292   2291   2295     1  0.0000000  1.2552000  3
   2294   2292   2291   2298     1  0.0000000  1.2552000  3
   2294   2292   2304   2316     1  0.0000000  0.6508444  3
   2294   2292   2304   2305     1  0.0000000  0.6508444  3
   2294   2292   2304   2306     1  0.0000000  0.6508444  3
   2295   2291   2298   2299     1  0.0000000  1.2552000  3
   2295   2291   2298   2300     1  0.0000000  1.2552000  3
   2295   2307   2313   2314     1  0.0000000  0.6508444  3
   2295   2307   2313   2315     1  0.0000000  0.6508444  3
   2296   2295   2291   2298     1  0.0000000  1.2552000  3
   2296   2295   2307   2313     1  0.0000000  0.6508444  3
   2296   2295   2307   2308     1  0.0000000  0.6508444  3
   2296   2295   2307   2309     1  0.0000000  0.6508444  3
   2297   2295   2291   2298     1  0.0000000  1.2552000  3
   2297   2295   2307   2313     1  0.0000000  0.6508444  3
   2297   2295   2307   2308     1  0.0000000  0.6508444  3
   2297   2295   2307   2309     1  0.0000000  0.6508444  3
   2298   2301   2310   2311     1  0.0000000  0.6508444  3
   2298   2301   2310   2312     1  0.0000000  0.6508444  3
   2299   2298   2301   2310     1  0.0000000  0.6508444  3
   2299   2298   2301   2302     1  0.0000000  0.6508444  3
   2299   2298   2301   2303     1  0.0000000  0.6508444  3
   2300   2298   2301   2310     1  0.0000000  0.6508444  3
   2300   2298   2301   2302     1  0.0000000  0.6508444  3
   2300   2298   2301   2303     1  0.0000000  0.6508444  3
   2302   2301   2310   2319     1  0.0000000  1.0460000  1
   2302   2301   2310   2319     1  0.0000000  0.0000000  3
   2302   2301   2310   2311     1  0.0000000  0.6508444  3
   2302   2301   2310   2312     1  0.0000000  0.6508444  3
   2303   2301   2310   2319     1  0.0000000  1.0460000  1
   2303   2301   2310   2319     1  0.0000000  0.0000000  3
   2303   2301   2310   2311     1  0.0000000  0.6508444  3
   2303   2301   2310   2312     1  0.0000000  0.6508444  3
   2305   2304   2316   4697     1  0.0000000  1.0460000  1
   2305   2304   2316   4697     1  0.0000000  0.0000000  3
   2305   2304   2316   2317     1  0.0000000  0.6508444  3
   2305   2304   2316   2318     1  0.0000000  0.6508444  3
   2306   2304   2316   4697     1  0.0000000  1.0460000  1
   2306   2304   2316   4697     1  0.0000000  0.0000000  3
   2306   2304   2316   2317     1  0.0000000  0.6508444  3
   2306   2304   2316   2318     1  0.0000000  0.6508444  3
   2308   2307   2313   4668     1  0.0000000  1.0460000  1
   2308   2307   2313   4668     1  0.0000000  0.0000000  3
   2308   2307   2313   2314     1  0.0000000  0.6508444  3
   2308   2307   2313   2315     1  0.0000000  0.6508444  3
   2309   2307   2313   4668     1  0.0000000  1.0460000  1
   2309   2307   2313   4668     1  0.0000000  0.0000000  3
   2309   2307   2313   2314     1  0.0000000  0.6508444  3
   2309   2307   2313   2315     1  0.0000000  0.6508444  3
   2313   4668   4659   4660     1  0.0000000  1.6038667  3
   2313   4668   4659   4661     1  0.0000000  1.6038667  3
   2314   2313   4668   4659     1  0.0000000  1.6038667  3
   2315   2313   4668   4659     1  0.0000000  1.6038667  3
   2316   4697   4688   4689     1  0.0000000  1.6038667  3
   2316   4697   4688   4690     1  0.0000000  1.6038667  3
   2317   2316   4697   4688     1  0.0000000  1.6038667  3
   2318   2316   4697   4688     1  0.0000000  1.6038667  3
   2320   2321   2333   2334     1  0.0000000  0.6508444  3
   2320   2321   2333   2335     1  0.0000000  0.6508444  3
   2320   2324   2336   2337     1  0.0000000  0.6508444  3
   2320   2324   2336   2338     1  0.0000000  0.6508444  3
   2320   2327   2330   2331     1  0.0000000  0.6508444  3
   2320   2327   2330   2332     1  0.0000000  0.6508444  3
   2321   2320   2324   2325     1  0.0000000  1.2552000  3
   2321   2320   2324   2326     1  0.0000000  1.2552000  3
   2321   2320   2327   2328     1  0.0000000  1.2552000  3
   2321   2320   2327   2329     1  0.0000000  1.2552000  3
   2321   2333   2345   2346     1  0.0000000  0.6508444  3
   2321   2333   2345   2347     1  0.0000000  0.6508444  3
   2322   2321   2320   2324     1  0.0000000  1.2552000  3
   2322   2321   2320   2327     1  0.0000000  1.2552000  3
   2322   2321   2333   2345     1  0.0000000  0.6508444  3
   2322   2321   2333   2334     1  0.0000000  0.6508444  3
   2322   2321   2333   2335     1  0.0000000  0.6508444  3
   2323   2321   2320   2324     1  0.0000000  1.2552000  3
   2323   2321   2320   2327     1  0.0000000  1.2552000  3
   2323   2321   2333   2345     1  0.0000000  0.6508444  3
   2323   2321   2333   2334     1  0.0000000  0.6508444  3
   2323   2321   2333   2335     1  0.0000000  0.6508444  3
   2324   2320   2327   2328     1  0.0000000  1.2552000  3
   2324   2320   2327   2329     1  0.0000000  1.2552000  3
   2324   2336   2342   2343     1  0.0000000  0.6508444  3
   2324   2336   2342   2344     1  0.0000000  0.6508444  3
   2325   2324   2320   2327     1  0.0000000  1.2552000  3
   2325   2324   2336   2342     1  0.0000000  0.6508444  3
   2325   2324   2336   2337     1  0.0000000  0.6508444  3
   2325   2324   2336   2338     1  0.0000000  0.6508444  3
   2326   2324   2320   2327     1  0.0000000  1.2552000  3
   2326   2324   2336   2342     1  0.0000000  0.6508444  3
   2326   2324   2336   2337     1  0.0000000  0.6508444  3
   2326   2324   2336   2338     1  0.0000000  0.6508444  3
   2327   2330   2339   2340     1  0.0000000  0.6508444  3
   2327   2330   2339   2341     1  0.0000000  0.6508444  3
   2328   2327   2330   2339     1  0.0000000  0.6508444  3
   2328   2327   2330   2331     1  0.0000000  0.6508444  3
   2328   2327   2330   2332     1  0.0000000  0.6508444  3
   2329   2327   2330   2339     1  0.0000000  0.6508444  3
   2329   2327   2330   2331     1  0.0000000  0.6508444  3
   2329   2327   2330   2332     1  0.0000000  0.6508444  3
   2331   2330   2339   2348     1  0.0000000  1.0460000  1
   2331   2330   2339   2348     1  0.0000000  0.0000000  3
   2331   2330   2339   2340     1  0.0000000  0.6508444  3
   2331   2330   2339   2341     1  0.0000000  0.6508444  3
   2332   2330   2339   2348     1  0.0000000  1.0460000  1
   2332   2330   2339   2348     1  0.0000000  0.0000000  3
   2332   2330   2339   2340     1  0.0000000  0.6508444  3
   2332   2330   2339   2341     1  0.0000000  0.6508444  3
   2334   2333   2345   4755     1  0.0000000  1.0460000  1
   2334   2333   2345   4755     1  0.0000000  0.0000000  3
   2334   2333   2345   2346     1  0.0000000  0.6508444  3
   2334   2333   2345   2347     1  0.0000000  0.6508444  3
   2335   2333   2345   4755     1  0.0000000  1.0460000  1
   2335   2333   2345   4755     1  0.0000000  0.0000000  3
   2335   2333   2345   2346     1  0.0000000  0.6508444  3
   2335   2333   2345   2347     1  0.0000000  0.6508444  3
   2337   2336   2342   4726     1  0.0000000  1.0460000  1
   2337   2336   2342   4726     1  0.0000000  0.0000000  3
   2337   2336   2342   2343     1  0.0000000  0.6508444  3
   2337   2336   2342   2344     1  0.0000000  0.6508444  3
   2338   2336   2342   4726     1  0.0000000  1.0460000  1
   2338   2336   2342   4726     1  0.0000000  0.0000000  3
   2338   2336   2342   2343     1  0.0000000  0.6508444  3
   2338   2336   2342   2344     1  0.0000000  0.6508444  3
   2342   4726   4717   4718     1  0.0000000  1.6038667  3
   2342   4726   4717   4719     1  0.0000000  1.6038667  3
   2343   2342   4726   4717     1  0.0000000  1.6038667  3
   2344   2342   4726   4717     1  0.0000000  1.6038667  3
   2345   4755   4746   4747     1  0.0000000  1.6038667  3
   2345   4755   4746   4748     1  0.0000000  1.6038667  3
   2346   2345   4755   4746     1  0.0000000  1.6038667  3
   2347   2345   4755   4746     1  0.0000000  1.6038667  3
   2349   2350   2362   2363     1  0.0000000  0.6508444  3
   2349   2350   2362   2364     1  0.0000000  0.6508444  3
   2349   2353   2365   2366     1  0.0000000  0.6508444  3
   2349   2353   2365   2367     1  0.0000000  0.6508444  3
   2349   2356   2359   2360     1  0.0000000  0.6508444  3
   2349   2356   2359   2361     1  0.0000000  0.6508444  3
   2350   2349   2353   2354     1  0.0000000  1.2552000  3
   2350   2349   2353   2355     1  0.0000000  1.2552000  3
   2350   2349   2356   2357     1  0.0000000  1.2552000  3
   2350   2349   2356   2358     1  0.0000000  1.2552000  3
   2350   2362   2374   2375     1  0.0000000  0.6508444  3
   2350   2362   2374   2376     1  0.0000000  0.6508444  3
   2351   2350   2349   2353     1  0.0000000  1.2552000  3
   2351   2350   2349   2356     1  0.0000000  1.2552000  3
   2351   2350   2362   2374     1  0.0000000  0.6508444  3
   2351   2350   2362   2363     1  0.0000000  0.6508444  3
   2351   2350   2362   2364     1  0.0000000  0.6508444  3
   2352   2350   2349   2353     1  0.0000000  1.2552000  3
   2352   2350   2349   2356     1  0.0000000  1.2552000  3
   2352   2350   2362   2374     1  0.0000000  0.6508444  3
   2352   2350   2362   2363     1  0.0000000  0.6508444  3
   2352   2350   2362   2364     1  0.0000000  0.6508444  3
   2353   2349   2356   2357     1  0.0000000  1.2552000  3
   2353   2349   2356   2358     1  0.0000000  1.2552000  3
   2353   2365   2371   2372     1  0.0000000  0.6508444  3
   2353   2365   2371   2373     1  0.0000000  0.6508444  3
   2354   2353   2349   2356     1  0.0000000  1.2552000  3
   2354   2353   2365   2371     1  0.0000000  0.6508444  3
   2354   2353   2365   2366     1  0.0000000  0.6508444  3
   2354   2353   2365   2367     1  0.0000000  0.6508444  3
   2355   2353   2349   2356     1  0.0000000  1.2552000  3
   2355   2353   2365   2371     1  0.0000000  0.6508444  3
   2355   2353   2365   2366     1  0.0000000  0.6508444  3
   2355   2353   2365   2367     1  0.0000000  0.6508444  3
   2356   2359   2368   2369     1  0.0000000  0.6508444  3
   2356   2359   2368   2370     1  0.0000000  0.6508444  3
   2357   2356   2359   2368     1  0.0000000  0.6508444  3
   2357   2356   2359   2360     1  0.0000000  0.6508444  3
   2357   2356   2359   2361     1  0.0000000  0.6508444  3
   2358   2356   2359   2368     1  0.0000000  0.6508444  3
   2358   2356   2359   2360     1  0.0000000  0.6508444  3
   2358   2356   2359   2361     1  0.0000000  0.6508444  3
   2360   2359   2368   2377     1  0.0000000  1.0460000  1
   2360   2359   2368   2377     1  0.0000000  0.0000000  3
   2360   2359   2368   2369     1  0.0000000  0.6508444  3
   2360   2359   2368   2370     1  0.0000000  0.6508444  3
   2361   2359   2368   2377     1  0.0000000  1.0460000  1
   2361   2359   2368   2377     1  0.0000000  0.0000000  3
   2361   2359   2368   2369     1  0.0000000  0.6508444  3
   2361   2359   2368   2370     1  0.0000000  0.6508444  3
   2363   2362   2374   4813     1  0.0000000  1.0460000  1
   2363   2362   2374   4813     1  0.0000000  0.0000000  3
   2363   2362   2374   2375     1  0.0000000  0.6508444  3
   2363   2362   2374   2376     1  0.0000000  0.6508444  3
   2364   2362   2374   4813     1  0.0000000  1.0460000  1
   2364   2362   2374   4813     1  0.0000000  0.0000000  3
   2364   2362   2374   2375     1  0.0000000  0.6508444  3
   2364   2362   2374   2376     1  0.0000000  0.6508444  3
   2366   2365   2371   4784     1  0.0000000  1.0460000  1
   2366   2365   2371   4784     1  0.0000000  0.0000000  3
   2366   2365   2371   2372     1  0.0000000  0.6508444  3
   2366   2365   2371   2373     1  0.0000000  0.6508444  3
   2367   2365   2371   4784     1  0.0000000  1.0460000  1
   2367   2365   2371   4784     1  0.0000000  0.0000000  3
   2367   2365   2371   2372     1  0.0000000  0.6508444  3
   2367   2365   2371   2373     1  0.0000000  0.6508444  3
   2371   4784   4775   4776     1  0.0000000  1.6038667  3
   2371   4784   4775   4777     1  0.0000000  1.6038667  3
   2372   2371   4784   4775     1  0.0000000  1.6038667  3
   2373   2371   4784   4775     1  0.0000000  1.6038667  3
   2374   4813   4804   4805     1  0.0000000  1.6038667  3
   2374   4813   4804   4806     1  0.0000000  1.6038667  3
   2375   2374   4813   4804     1  0.0000000  1.6038667  3
   2376   2374   4813   4804     1  0.0000000  1.6038667  3
   2378   2379   2391   2392     1  0.0000000  0.6508444  3
   2378   2379   2391   2393     1  0.0000000  0.6508444  3
   2378   2382   2394   2395     1  0.0000000  0.6508444  3
   2378   2382   2394   2396     1  0.0000000  0.6508444  3
   2378   2385   2388   2389     1  0.0000000  0.6508444  3
   2378   2385   2388   2390     1  0.0000000  0.6508444  3
   2379   2378   2382   2383     1  0.0000000  1.2552000  3
   2379   2378   2382   2384     1  0.0000000  1.2552000  3
   2379   2378   2385   2386     1  0.0000000  1.2552000  3
   2379   2378   2385   2387     1  0.0000000  1.2552000  3
   2379   2391   2403   2404     1  0.0000000  0.6508444  3
   2379   2391   2403   2405     1  0.0000000  0.6508444  3
   2380   2379   2378   2382     1  0.0000000  1.2552000  3
   2380   2379   2378   2385     1  0.0000000  1.2552000  3
   2380   2379   2391   2403     1  0.0000000  0.6508444  3
   2380   2379   2391   2392     1  0.0000000  0.6508444  3
   2380   2379   2391   2393     1  0.0000000  0.6508444  3
   2381   2379   2378   2382     1  0.0000000  1.2552000  3
   2381   2379   2378   2385     1  0.0000000  1.2552000  3
   2381   2379   2391   2403     1  0.0000000  0.6508444  3
   2381   2379   2391   2392     1  0.0000000  0.6508444  3
   2381   2379   2391   2393     1  0.0000000  0.6508444  3
   2382   2378   2385   2386     1  0.0000000  1.2552000  3
   2382   2378   2385   2387     1  0.0000000  1.2552000  3
   2382   2394   2400   2401     1  0.0000000  0.6508444  3
   2382   2394   2400   2402     1  0.0000000  0.6508444  3
   2383   2382   2378   2385     1  0.0000000  1.2552000  3
   2383   2382   2394   2400     1  0.0000000  0.6508444  3
   2383   2382   2394   2395     1  0.0000000  0.6508444  3
   2383   2382   2394   2396     1  0.0000000  0.6508444  3
   2384   2382   2378   2385     1  0.0000000  1.2552000  3
   2384   2382   2394   2400     1  0.0000000  0.6508444  3
   2384   2382   2394   2395     1  0.0000000  0.6508444  3
   2384   2382   2394   2396     1  0.0000000  0.6508444  3
   2385   2388   2397   2398     1  0.0000000  0.6508444  3
   2385   2388   2397   2399     1  0.0000000  0.6508444  3
   2386   2385   2388   2397     1  0.0000000  0.6508444  3
   2386   2385   2388   2389     1  0.0000000  0.6508444  3
   2386   2385   2388   2390     1  0.0000000  0.6508444  3
   2387   2385   2388   2397     1  0.0000000  0.6508444  3
   2387   2385   2388   2389     1  0.0000000  0.6508444  3
   2387   2385   2388   2390     1  0.0000000  0.6508444  3
   2389   2388   2397   2406     1  0.0000000  1.0460000  1
   2389   2388   2397   2406     1  0.0000000  0.0000000  3
   2389   2388   2397   2398     1  0.0000000  0.6508444  3
   2389   2388   2397   2399     1  0.0000000  0.6508444  3
   2390   2388   2397   2406     1  0.0000000  1.0460000  1
   2390   2388   2397   2406     1  0.0000000  0.0000000  3
   2390   2388   2397   2398     1  0.0000000  0.6508444  3
   2390   2388   2397   2399     1  0.0000000  0.6508444  3
   2392   2391   2403   4871     1  0.0000000  1.0460000  1
   2392   2391   2403   4871     1  0.0000000  0.0000000  3
   2392   2391   2403   2404     1  0.0000000  0.6508444  3
   2392   2391   2403   2405     1  0.0000000  0.6508444  3
   2393   2391   2403   4871     1  0.0000000  1.0460000  1
   2393   2391   2403   4871     1  0.0000000  0.0000000  3
   2393   2391   2403   2404     1  0.0000000  0.6508444  3
   2393   2391   2403   2405     1  0.0000000  0.6508444  3
   2395   2394   2400   4842     1  0.0000000  1.0460000  1
   2395   2394   2400   4842     1  0.0000000  0.0000000  3
   2395   2394   2400   2401     1  0.0000000  0.6508444  3
   2395   2394   2400   2402     1  0.0000000  0.6508444  3
   2396   2394   2400   4842     1  0.0000000  1.0460000  1
   2396   2394   2400   4842     1  0.0000000  0.0000000  3
   2396   2394   2400   2401     1  0.0000000  0.6508444  3
   2396   2394   2400   2402     1  0.0000000  0.6508444  3
   2400   4842   4833   4834     1  0.0000000  1.6038667  3
   2400   4842   4833   4835     1  0.0000000  1.6038667  3
   2401   2400   4842   4833     1  0.0000000  1.6038667  3
   2402   2400   4842   4833     1  0.0000000  1.6038667  3
   2403   4871   4862   4863     1  0.0000000  1.6038667  3
   2403   4871   4862   4864     1  0.0000000  1.6038667  3
   2404   2403   4871   4862     1  0.0000000  1.6038667  3
   2405   2403   4871   4862     1  0.0000000  1.6038667  3
   2407   2408   2420   2421     1  0.0000000  0.6508444  3
   2407   2408   2420   2422     1  0.0000000  0.6508444  3
   2407   2411   2423   2424     1  0.0000000  0.6508444  3
   2407   2411   2423   2425     1  0.0000000  0.6508444  3
   2407   2414   2417   2418     1  0.0000000  0.6508444  3
   2407   2414   2417   2419     1  0.0000000  0.6508444  3
   2408   2407   2411   2412     1  0.0000000  1.2552000  3
   2408   2407   2411   2413     1  0.0000000  1.2552000  3
   2408   2407   2414   2415     1  0.0000000  1.2552000  3
   2408   2407   2414   2416     1  0.0000000  1.2552000  3
   2408   2420   2432   2433     1  0.0000000  0.6508444  3
   2408   2420   2432   2434     1  0.0000000  0.6508444  3
   2409   2408   2407   2411     1  0.0000000  1.2552000  3
   2409   2408   2407   2414     1  0.0000000  1.2552000  3
   2409   2408   2420   2432     1  0.0000000  0.6508444  3
   2409   2408   2420   2421     1  0.0000000  0.6508444  3
   2409   2408   2420   2422     1  0.0000000  0.6508444  3
   2410   2408   2407   2411     1  0.0000000  1.2552000  3
   2410   2408   2407   2414     1  0.0000000  1.2552000  3
   2410   2408   2420   2432     1  0.0000000  0.6508444  3
   2410   2408   2420   2421     1  0.0000000  0.6508444  3
   2410   2408   2420   2422     1  0.0000000  0.6508444  3
   2411   2407   2414   2415     1  0.0000000  1.2552000  3
   2411   2407   2414   2416     1  0.0000000  1.2552000  3
   2411   2423   2429   2430     1  0.0000000  0.6508444  3
   2411   2423   2429   2431     1  0.0000000  0.6508444  3
   2412   2411   2407   2414     1  0.0000000  1.2552000  3
   2412   2411   2423   2429     1  0.0000000  0.6508444  3
   2412   2411   2423   2424     1  0.0000000  0.6508444  3
   2412   2411   2423   2425     1  0.0000000  0.6508444  3
   2413   2411   2407   2414     1  0.0000000  1.2552000  3
   2413   2411   2423   2429     1  0.0000000  0.6508444  3
   2413   2411   2423   2424     1  0.0000000  0.6508444  3
   2413   2411   2423   2425     1  0.0000000  0.6508444  3
   2414   2417   2426   2427     1  0.0000000  0.6508444  3
   2414   2417   2426   2428     1  0.0000000  0.6508444  3
   2415   2414   2417   2426     1  0.0000000  0.6508444  3
   2415   2414   2417   2418     1  0.0000000  0.6508444  3
   2415   2414   2417   2419     1  0.0000000  0.6508444  3
   2416   2414   2417   2426     1  0.0000000  0.6508444  3
   2416   2414   2417   2418     1  0.0000000  0.6508444  3
   2416   2414   2417   2419     1  0.0000000  0.6508444  3
   2418   2417   2426   2435     1  0.0000000  1.0460000  1
   2418   2417   2426   2435     1  0.0000000  0.0000000  3
   2418   2417   2426   2427     1  0.0000000  0.6508444  3
   2418   2417   2426   2428     1  0.0000000  0.6508444  3
   2419   2417   2426   2435     1  0.0000000  1.0460000  1
   2419   2417   2426   2435     1  0.0000000  0.0000000  3
   2419   2417   2426   2427     1  0.0000000  0.6508444  3
   2419   2417   2426   2428     1  0.0000000  0.6508444  3
   2421   2420   2432   4929     1  0.0000000  1.0460000  1
   2421   2420   2432   4929     1  0.0000000  0.0000000  3
   2421   2420   2432   2433     1  0.0000000  0.6508444  3
   2421   2420   2432   2434     1  0.0000000  0.6508444  3
   2422   2420   2432   4929     1  0.0000000  1.0460000  1
   2422   2420   2432   4929     1  0.0000000  0.0000000  3
   2422   2420   2432   2433     1  0.0000000  0.6508444  3
   2422   2420   2432   2434     1  0.0000000  0.6508444  3
   2424   2423   2429   4900     1  0.0000000  1.0460000  1
   2424   2423   2429   4900     1  0.0000000  0.0000000  3
   2424   2423   2429   2430     1  0.0000000  0.6508444  3
   2424   2423   2429   2431     1  0.0000000  0.6508444  3
   2425   2423   2429   4900     1  0.0000000  1.0460000  1
   2425   2423   2429   4900     1  0.0000000  0.0000000  3
   2425   2423   2429   2430     1  0.0000000  0.6508444  3
   2425   2423   2429   2431     1  0.0000000  0.6508444  3
   2429   4900   4891   4892     1  0.0000000  1.6038667  3
   2429   4900   4891   4893     1  0.0000000  1.6038667  3
   2430   2429   4900   4891     1  0.0000000  1.6038667  3
   2431   2429   4900   4891     1  0.0000000  1.6038667  3
   2432   4929   4920   4921     1  0.0000000  1.6038667  3
   2432   4929   4920   4922     1  0.0000000  1.6038667  3
   2433   2432   4929   4920     1  0.0000000  1.6038667  3
   2434   2432   4929   4920     1  0.0000000  1.6038667  3
   2436   2437   2449   2450     1  0.0000000  0.6508444  3
   2436   2437   2449   2451     1  0.0000000  0.6508444  3
   2436   2440   2452   2453     1  0.0000000  0.6508444  3
   2436   2440   2452   2454     1  0.0000000  0.6508444  3
   2436   2443   2446   2447     1  0.0000000  0.6508444  3
   2436   2443   2446   2448     1  0.0000000  0.6508444  3
   2437   2436   2440   2441     1  0.0000000  1.2552000  3
   2437   2436   2440   2442     1  0.0000000  1.2552000  3
   2437   2436   2443   2444     1  0.0000000  1.2552000  3
   2437   2436   2443   2445     1  0.0000000  1.2552000  3
   2437   2449   2461   2462     1  0.0000000  0.6508444  3
   2437   2449   2461   2463     1  0.0000000  0.6508444  3
   2438   2437   2436   2440     1  0.0000000  1.2552000  3
   2438   2437   2436   2443     1  0.0000000  1.2552000  3
   2438   2437   2449   2461     1  0.0000000  0.6508444  3
   2438   2437   2449   2450     1  0.0000000  0.6508444  3
   2438   2437   2449   2451     1  0.0000000  0.6508444  3
   2439   2437   2436   2440     1  0.0000000  1.2552000  3
   2439   2437   2436   2443     1  0.0000000  1.2552000  3
   2439   2437   2449   2461     1  0.0000000  0.6508444  3
   2439   2437   2449   2450     1  0.0000000  0.6508444  3
   2439   2437   2449   2451     1  0.0000000  0.6508444  3
   2440   2436   2443   2444     1  0.0000000  1.2552000  3
   2440   2436   2443   2445     1  0.0000000  1.2552000  3
   2440   2452   2458   2459     1  0.0000000  0.6508444  3
   2440   2452   2458   2460     1  0.0000000  0.6508444  3
   2441   2440   2436   2443     1  0.0000000  1.2552000  3
   2441   2440   2452   2458     1  0.0000000  0.6508444  3
   2441   2440   2452   2453     1  0.0000000  0.6508444  3
   2441   2440   2452   2454     1  0.0000000  0.6508444  3
   2442   2440   2436   2443     1  0.0000000  1.2552000  3
   2442   2440   2452   2458     1  0.0000000  0.6508444  3
   2442   2440   2452   2453     1  0.0000000  0.6508444  3
   2442   2440   2452   2454     1  0.0000000  0.6508444  3
   2443   2446   2455   2456     1  0.0000000  0.6508444  3
   2443   2446   2455   2457     1  0.0000000  0.6508444  3
   2444   2443   2446   2455     1  0.0000000  0.6508444  3
   2444   2443   2446   2447     1  0.0000000  0.6508444  3
   2444   2443   2446   2448     1  0.0000000  0.6508444  3
   2445   2443   2446   2455     1  0.0000000  0.6508444  3
   2445   2443   2446   2447     1  0.0000000  0.6508444  3
   2445   2443   2446   2448     1  0.0000000  0.6508444  3
   2447   2446   2455   2464     1  0.0000000  1.0460000  1
   2447   2446   2455   2464     1  0.0000000  0.0000000  3
   2447   2446   2455   2456     1  0.0000000  0.6508444  3
   2447   2446   2455   2457     1  0.0000000  0.6508444  3
   2448   2446   2455   2464     1  0.0000000  1.0460000  1
   2448   2446   2455   2464     1  0.0000000  0.0000000  3
   2448   2446   2455   2456     1  0.0000000  0.6508444  3
   2448   2446   2455   2457     1  0.0000000  0.6508444  3
   2450   2449   2461   4987     1  0.0000000  1.0460000  1
   2450   2449   2461   4987     1  0.0000000  0.0000000  3
   2450   2449   2461   2462     1  0.0000000  0.6508444  3
   2450   2449   2461   2463     1  0.0000000  0.6508444  3
   2451   2449   2461   4987     1  0.0000000  1.0460000  1
   2451   2449   2461   4987     1  0.0000000  0.0000000  3
   2451   2449   2461   2462     1  0.0000000  0.6508444  3
   2451   2449   2461   2463     1  0.0000000  0.6508444  3
   2453   2452   2458   4958     1  0.0000000  1.0460000  1
   2453   2452   2458   4958     1  0.0000000  0.0000000  3
   2453   2452   2458   2459     1  0.0000000  0.6508444  3
   2453   2452   2458   2460     1  0.0000000  0.6508444  3
   2454   2452   2458   4958     1  0.0000000  1.0460000  1
   2454   2452   2458   4958     1  0.0000000  0.0000000  3
   2454   2452   2458   2459     1  0.0000000  0.6508444  3
   2454   2452   2458   2460     1  0.0000000  0.6508444  3
   2458   4958   4949   4950     1  0.0000000  1.6038667  3
   2458   4958   4949   4951     1  0.0000000  1.6038667  3
   2459   2458   4958   4949     1  0.0000000  1.6038667  3
   2460   2458   4958   4949     1  0.0000000  1.6038667  3
   2461   4987   4978   4979     1  0.0000000  1.6038667  3
   2461   4987   4978   4980     1  0.0000000  1.6038667  3
   2462   2461   4987   4978     1  0.0000000  1.6038667  3
   2463   2461   4987   4978     1  0.0000000  1.6038667  3
   2465   2466   2478   2479     1  0.0000000  0.6508444  3
   2465   2466   2478   2480     1  0.0000000  0.6508444  3
   2465   2469   2481   2482     1  0.0000000  0.6508444  3
   2465   2469   2481   2483     1  0.0000000  0.6508444  3
   2465   2472   2475   2476     1  0.0000000  0.6508444  3
   2465   2472   2475   2477     1  0.0000000  0.6508444  3
   2466   2465   2469   2470     1  0.0000000  1.2552000  3
   2466   2465   2469   2471     1  0.0000000  1.2552000  3
   2466   2465   2472   2473     1  0.0000000  1.2552000  3
   2466   2465   2472   2474     1  0.0000000  1.2552000  3
   2466   2478   2490   2491     1  0.0000000  0.6508444  3
   2466   2478   2490   2492     1  0.0000000  0.6508444  3
   2467   2466   2465   2469     1  0.0000000  1.2552000  3
   2467   2466   2465   2472     1  0.0000000  1.2552000  3
   2467   2466   2478   2490     1  0.0000000  0.6508444  3
   2467   2466   2478   2479     1  0.0000000  0.6508444  3
   2467   2466   2478   2480     1  0.0000000  0.6508444  3
   2468   2466   2465   2469     1  0.0000000  1.2552000  3
   2468   2466   2465   2472     1  0.0000000  1.2552000  3
   2468   2466   2478   2490     1  0.0000000  0.6508444  3
   2468   2466   2478   2479     1  0.0000000  0.6508444  3
   2468   2466   2478   2480     1  0.0000000  0.6508444  3
   2469   2465   2472   2473     1  0.0000000  1.2552000  3
   2469   2465   2472   2474     1  0.0000000  1.2552000  3
   2469   2481   2487   2488     1  0.0000000  0.6508444  3
   2469   2481   2487   2489     1  0.0000000  0.6508444  3
   2470   2469   2465   2472     1  0.0000000  1.2552000  3
   2470   2469   2481   2487     1  0.0000000  0.6508444  3
   2470   2469   2481   2482     1  0.0000000  0.6508444  3
   2470   2469   2481   2483     1  0.0000000  0.6508444  3
   2471   2469   2465   2472     1  0.0000000  1.2552000  3
   2471   2469   2481   2487     1  0.0000000  0.6508444  3
   2471   2469   2481   2482     1  0.0000000  0.6508444  3
   2471   2469   2481   2483     1  0.0000000  0.6508444  3
   2472   2475   2484   2485     1  0.0000000  0.6508444  3
   2472   2475   2484   2486     1  0.0000000  0.6508444  3
   2473   2472   2475   2484     1  0.0000000  0.6508444  3
   2473   2472   2475   2476     1  0.0000000  0.6508444  3
   2473   2472   2475   2477     1  0.0000000  0.6508444  3
   2474   2472   2475   2484     1  0.0000000  0.6508444  3
   2474   2472   2475   2476     1  0.0000000  0.6508444  3
   2474   2472   2475   2477     1  0.0000000  0.6508444  3
   2476   2475   2484   2493     1  0.0000000  1.0460000  1
   2476   2475   2484   2493     1  0.0000000  0.0000000  3
   2476   2475   2484   2485     1  0.0000000  0.6508444  3
   2476   2475   2484   2486     1  0.0000000  0.6508444  3
   2477   2475   2484   2493     1  0.0000000  1.0460000  1
   2477   2475   2484   2493     1  0.0000000  0.0000000  3
   2477   2475   2484   2485     1  0.0000000  0.6508444  3
   2477   2475   2484   2486     1  0.0000000  0.6508444  3
   2479   2478   2490   5045     1  0.0000000  1.0460000  1
   2479   2478   2490   5045     1  0.0000000  0.0000000  3
   2479   2478   2490   2491     1  0.0000000  0.6508444  3
   2479   2478   2490   2492     1  0.0000000  0.6508444  3
   2480   2478   2490   5045     1  0.0000000  1.0460000  1
   2480   2478   2490   5045     1  0.0000000  0.0000000  3
   2480   2478   2490   2491     1  0.0000000  0.6508444  3
   2480   2478   2490   2492     1  0.0000000  0.6508444  3
   2482   2481   2487   5016     1  0.0000000  1.0460000  1
   2482   2481   2487   5016     1  0.0000000  0.0000000  3
   2482   2481   2487   2488     1  0.0000000  0.6508444  3
   2482   2481   2487   2489     1  0.0000000  0.6508444  3
   2483   2481   2487   5016     1  0.0000000  1.0460000  1
   2483   2481   2487   5016     1  0.0000000  0.0000000  3
   2483   2481   2487   2488     1  0.0000000  0.6508444  3
   2483   2481   2487   2489     1  0.0000000  0.6508444  3
   2487   5016   5007   5008     1  0.0000000  1.6038667  3
   2487   5016   5007   5009     1  0.0000000  1.6038667  3
   2488   2487   5016   5007     1  0.0000000  1.6038667  3
   2489   2487   5016   5007     1  0.0000000  1.6038667  3
   2490   5045   5036   5037     1  0.0000000  1.6038667  3
   2490   5045   5036   5038     1  0.0000000  1.6038667  3
   2491   2490   5045   5036     1  0.0000000  1.6038667  3
   2492   2490   5045   5036     1  0.0000000  1.6038667  3
   2494   2495   2507   2508     1  0.0000000  0.6508444  3
   2494   2495   2507   2509     1  0.0000000  0.6508444  3
   2494   2498   2510   2511     1  0.0000000  0.6508444  3
   2494   2498   2510   2512     1  0.0000000  0.6508444  3
   2494   2501   2504   2505     1  0.0000000  0.6508444  3
   2494   2501   2504   2506     1  0.0000000  0.6508444  3
   2495   2494   2498   2499     1  0.0000000  1.2552000  3
   2495   2494   2498   2500     1  0.0000000  1.2552000  3
   2495   2494   2501   2502     1  0.0000000  1.2552000  3
   2495   2494   2501   2503     1  0.0000000  1.2552000  3
   2495   2507   2519   2520     1  0.0000000  0.6508444  3
   2495   2507   2519   2521     1  0.0000000  0.6508444  3
   2496   2495   2494   2498     1  0.0000000  1.2552000  3
   2496   2495   2494   2501     1  0.0000000  1.2552000  3
   2496   2495   2507   2519     1  0.0000000  0.6508444  3
   2496   2495   2507   2508     1  0.0000000  0.6508444  3
   2496   2495   2507   2509     1  0.0000000  0.6508444  3
   2497   2495   2494   2498     1  0.0000000  1.2552000  3
   2497   2495   2494   2501     1  0.0000000  1.2552000  3
   2497   2495   2507   2519     1  0.0000000  0.6508444  3
   2497   2495   2507   2508     1  0.0000000  0.6508444  3
   2497   2495   2507   2509     1  0.0000000  0.6508444  3
   2498   2494   2501   2502     1  0.0000000  1.2552000  3
   2498   2494   2501   2503     1  0.0000000  1.2552000  3
   2498   2510   2516   2517     1  0.0000000  0.6508444  3
   2498   2510   2516   2518     1  0.0000000  0.6508444  3
   2499   2498   2494   2501     1  0.0000000  1.2552000  3
   2499   2498   2510   2516     1  0.0000000  0.6508444  3
   2499   2498   2510   2511     1  0.0000000  0.6508444  3
   2499   2498   2510   2512     1  0.0000000  0.6508444  3
   2500   2498   2494   2501     1  0.0000000  1.2552000  3
   2500   2498   2510   2516     1  0.0000000  0.6508444  3
   2500   2498   2510   2511     1  0.0000000  0.6508444  3
   2500   2498   2510   2512     1  0.0000000  0.6508444  3
   2501   2504   2513   2514     1  0.0000000  0.6508444  3
   2501   2504   2513   2515     1  0.0000000  0.6508444  3
   2502   2501   2504   2513     1  0.0000000  0.6508444  3
   2502   2501   2504   2505     1  0.0000000  0.6508444  3
   2502   2501   2504   2506     1  0.0000000  0.6508444  3
   2503   2501   2504   2513     1  0.0000000  0.6508444  3
   2503   2501   2504   2505     1  0.0000000  0.6508444  3
   2503   2501   2504   2506     1  0.0000000  0.6508444  3
   2505   2504   2513   2522     1  0.0000000  1.0460000  1
   2505   2504   2513   2522     1  0.0000000  0.0000000  3
   2505   2504   2513   2514     1  0.0000000  0.6508444  3
   2505   2504   2513   2515     1  0.0000000  0.6508444  3
   2506   2504   2513   2522     1  0.0000000  1.0460000  1
   2506   2504   2513   2522     1  0.0000000  0.0000000  3
   2506   2504   2513   2514     1  0.0000000  0.6508444  3
   2506   2504   2513   2515     1  0.0000000  0.6508444  3
   2508   2507   2519   5103     1  0.0000000  1.0460000  1
   2508   2507   2519   5103     1  0.0000000  0.0000000  3
   2508   2507   2519   2520     1  0.0000000  0.6508444  3
   2508   2507   2519   2521     1  0.0000000  0.6508444  3
   2509   2507   2519   5103     1  0.0000000  1.0460000  1
   2509   2507   2519   5103     1  0.0000000  0.0000000  3
   2509   2507   2519   2520     1  0.0000000  0.6508444  3
   2509   2507   2519   2521     1  0.0000000  0.6508444  3
   2511   2510   2516   5074     1  0.0000000  1.0460000  1
   2511   2510   2516   5074     1  0.0000000  0.0000000  3
   2511   2510   2516   2517     1  0.0000000  0.6508444  3
   2511   2510   2516   2518     1  0.0000000  0.6508444  3
   2512   2510   2516   5074     1  0.0000000  1.0460000  1
   2512   2510   2516   5074     1  0.0000000  0.0000000  3
   2512   2510   2516   2517     1  0.0000000  0.6508444  3
   2512   2510   2516   2518     1  0.0000000  0.6508444  3
   2516   5074   5065   5066     1  0.0000000  1.6038667  3
   2516   5074   5065   5067     1  0.0000000  1.6038667  3
   2517   2516   5074   5065     1  0.0000000  1.6038667  3
   2518   2516   5074   5065     1  0.0000000  1.6038667  3
   2519   5103   5094   5095     1  0.0000000  1.6038667  3
   2519   5103   5094   5096     1  0.0000000  1.6038667  3
   2520   2519   5103   5094     1  0.0000000  1.6038667  3
   2521   2519   5103   5094     1  0.0000000  1.6038667  3
   2523   2524   2536   2537     1  0.0000000  0.6508444  3
   2523   2524   2536   2538     1  0.0000000  0.6508444  3
   2523   2527   2539   2540     1  0.0000000  0.6508444  3
   2523   2527   2539   2541     1  0.0000000  0.6508444  3
   2523   2530   2533   2534     1  0.0000000  0.6508444  3
   2523   2530   2533   2535     1  0.0000000  0.6508444  3
   2524   2523   2527   2528     1  0.0000000  1.2552000  3
   2524   2523   2527   2529     1  0.0000000  1.2552000  3
   2524   2523   2530   2531     1  0.0000000  1.2552000  3
   2524   2523   2530   2532     1  0.0000000  1.2552000  3
   2524   2536   2548   2549     1  0.0000000  0.6508444  3
   2524   2536   2548   2550     1  0.0000000  0.6508444  3
   2525   2524   2523   2527     1  0.0000000  1.2552000  3
   2525   2524   2523   2530     1  0.0000000  1.2552000  3
   2525   2524   2536   2548     1  0.0000000  0.6508444  3
   2525   2524   2536   2537     1  0.0000000  0.6508444  3
   2525   2524   2536   2538     1  0.0000000  0.6508444  3
   2526   2524   2523   2527     1  0.0000000  1.2552000  3
   2526   2524   2523   2530     1  0.0000000  1.2552000  3
   2526   2524   2536   2548     1  0.0000000  0.6508444  3
   2526   2524   2536   2537     1  0.0000000  0.6508444  3
   2526   2524   2536   2538     1  0.0000000  0.6508444  3
   2527   2523   2530   2531     1  0.0000000  1.2552000  3
   2527   2523   2530   2532     1  0.0000000  1.2552000  3
   2527   2539   2545   2546     1  0.0000000  0.6508444  3
   2527   2539   2545   2547     1  0.0000000  0.6508444  3
   2528   2527   2523   2530     1  0.0000000  1.2552000  3
   2528   2527   2539   2545     1  0.0000000  0.6508444  3
   2528   2527   2539   2540     1  0.0000000  0.6508444  3
   2528   2527   2539   2541     1  0.0000000  0.6508444  3
   2529   2527   2523   2530     1  0.0000000  1.2552000  3
   2529   2527   2539   2545     1  0.0000000  0.6508444  3
   2529   2527   2539   2540     1  0.0000000  0.6508444  3
   2529   2527   2539   2541     1  0.0000000  0.6508444  3
   2530   2533   2542   2543     1  0.0000000  0.6508444  3
   2530   2533   2542   2544     1  0.0000000  0.6508444  3
   2531   2530   2533   2542     1  0.0000000  0.6508444  3
   2531   2530   2533   2534     1  0.0000000  0.6508444  3
   2531   2530   2533   2535     1  0.0000000  0.6508444  3
   2532   2530   2533   2542     1  0.0000000  0.6508444  3
   2532   2530   2533   2534     1  0.0000000  0.6508444  3
   2532   2530   2533   2535     1  0.0000000  0.6508444  3
   2534   2533   2542   2551     1  0.0000000  1.0460000  1
   2534   2533   2542   2551     1  0.0000000  0.0000000  3
   2534   2533   2542   2543     1  0.0000000  0.6508444  3
   2534   2533   2542   2544     1  0.0000000  0.6508444  3
   2535   2533   2542   2551     1  0.0000000  1.0460000  1
   2535   2533   2542   2551     1  0.0000000  0.0000000  3
   2535   2533   2542   2543     1  0.0000000  0.6508444  3
   2535   2533   2542   2544     1  0.0000000  0.6508444  3
   2537   2536   2548   5161     1  0.0000000  1.0460000  1
   2537   2536   2548   5161     1  0.0000000  0.0000000  3
   2537   2536   2548   2549     1  0.0000000  0.6508444  3
   2537   2536   2548   2550     1  0.0000000  0.6508444  3
   2538   2536   2548   5161     1  0.0000000  1.0460000  1
   2538   2536   2548   5161     1  0.0000000  0.0000000  3
   2538   2536   2548   2549     1  0.0000000  0.6508444  3
   2538   2536   2548   2550     1  0.0000000  0.6508444  3
   2540   2539   2545   5132     1  0.0000000  1.0460000  1
   2540   2539   2545   5132     1  0.0000000  0.0000000  3
   2540   2539   2545   2546     1  0.0000000  0.6508444  3
   2540   2539   2545   2547     1  0.0000000  0.6508444  3
   2541   2539   2545   5132     1  0.0000000  1.0460000  1
   2541   2539   2545   5132     1  0.0000000  0.0000000  3
   2541   2539   2545   2546     1  0.0000000  0.6508444  3
   2541   2539   2545   2547     1  0.0000000  0.6508444  3
   2545   5132   5123   5124     1  0.0000000  1.6038667  3
   2545   5132   5123   5125     1  0.0000000  1.6038667  3
   2546   2545   5132   5123     1  0.0000000  1.6038667  3
   2547   2545   5132   5123     1  0.0000000  1.6038667  3
   2548   5161   5152   5153     1  0.0000000  1.6038667  3
   2548   5161   5152   5154     1  0.0000000  1.6038667  3
   2549   2548   5161   5152     1  0.0000000  1.6038667  3
   2550   2548   5161   5152     1  0.0000000  1.6038667  3
   2552   2553   2565   2566     1  0.0000000  0.6508444  3
   2552   2553   2565   2567     1  0.0000000  0.6508444  3
   2552   2556   2568   2569     1  0.0000000  0.6508444  3
   2552   2556   2568   2570     1  0.0000000  0.6508444  3
   2552   2559   2562   2563     1  0.0000000  0.6508444  3
   2552   2559   2562   2564     1  0.0000000  0.6508444  3
   2553   2552   2556   2557     1  0.0000000  1.2552000  3
   2553   2552   2556   2558     1  0.0000000  1.2552000  3
   2553   2552   2559   2560     1  0.0000000  1.2552000  3
   2553   2552   2559   2561     1  0.0000000  1.2552000  3
   2553   2565   2577   2578     1  0.0000000  0.6508444  3
   2553   2565   2577   2579     1  0.0000000  0.6508444  3
   2554   2553   2552   2556     1  0.0000000  1.2552000  3
   2554   2553   2552   2559     1  0.0000000  1.2552000  3
   2554   2553   2565   2577     1  0.0000000  0.6508444  3
   2554   2553   2565   2566     1  0.0000000  0.6508444  3
   2554   2553   2565   2567     1  0.0000000  0.6508444  3
   2555   2553   2552   2556     1  0.0000000  1.2552000  3
   2555   2553   2552   2559     1  0.0000000  1.2552000  3
   2555   2553   2565   2577     1  0.0000000  0.6508444  3
   2555   2553   2565   2566     1  0.0000000  0.6508444  3
   2555   2553   2565   2567     1  0.0000000  0.6508444  3
   2556   2552   2559   2560     1  0.0000000  1.2552000  3
   2556   2552   2559   2561     1  0.0000000  1.2552000  3
   2556   2568   2574   2575     1  0.0000000  0.6508444  3
   2556   2568   2574   2576     1  0.0000000  0.6508444  3
   2557   2556   2552   2559     1  0.0000000  1.2552000  3
   2557   2556   2568   2574     1  0.0000000  0.6508444  3
   2557   2556   2568   2569     1  0.0000000  0.6508444  3
   2557   2556   2568   2570     1  0.0000000  0.6508444  3
   2558   2556   2552   2559     1  0.0000000  1.2552000  3
   2558   2556   2568   2574     1  0.0000000  0.6508444  3
   2558   2556   2568   2569     1  0.0000000  0.6508444  3
   2558   2556   2568   2570     1  0.0000000  0.6508444  3
   2559   2562   2571   2572     1  0.0000000  0.6508444  3
   2559   2562   2571   2573     1  0.0000000  0.6508444  3
   2560   2559   2562   2571     1  0.0000000  0.6508444  3
   2560   2559   2562   2563     1  0.0000000  0.6508444  3
   2560   2559   2562   2564     1  0.0000000  0.6508444  3
   2561   2559   2562   2571     1  0.0000000  0.6508444  3
   2561   2559   2562   2563     1  0.0000000  0.6508444  3
   2561   2559   2562   2564     1  0.0000000  0.6508444  3
   2563   2562   2571   2580     1  0.0000000  1.0460000  1
   2563   2562   2571   2580     1  0.0000000  0.0000000  3
   2563   2562   2571   2572     1  0.0000000  0.6508444  3
   2563   2562   2571   2573     1  0.0000000  0.6508444  3
   2564   2562   2571   2580     1  0.0000000  1.0460000  1
   2564   2562   2571   2580     1  0.0000000  0.0000000  3
   2564   2562   2571   2572     1  0.0000000  0.6508444  3
   2564   2562   2571   2573     1  0.0000000  0.6508444  3
   2566   2565   2577   5219     1  0.0000000  1.0460000  1
   2566   2565   2577   5219     1  0.0000000  0.0000000  3
   2566   2565   2577   2578     1  0.0000000  0.6508444  3
   2566   2565   2577   2579     1  0.0000000  0.6508444  3
   2567   2565   2577   5219     1  0.0000000  1.0460000  1
   2567   2565   2577   5219     1  0.0000000  0.0000000  3
   2567   2565   2577   2578     1  0.0000000  0.6508444  3
   2567   2565   2577   2579     1  0.0000000  0.6508444  3
   2569   2568   2574   5190     1  0.0000000  1.0460000  1
   2569   2568   2574   5190     1  0.0000000  0.0000000  3
   2569   2568   2574   2575     1  0.0000000  0.6508444  3
   2569   2568   2574   2576     1  0.0000000  0.6508444  3
   2570   2568   2574   5190     1  0.0000000  1.0460000  1
   2570   2568   2574   5190     1  0.0000000  0.0000000  3
   2570   2568   2574   2575     1  0.0000000  0.6508444  3
   2570   2568   2574   2576     1  0.0000000  0.6508444  3
   2574   5190   5181   5182     1  0.0000000  1.6038667  3
   2574   5190   5181   5183     1  0.0000000  1.6038667  3
   2575   2574   5190   5181     1  0.0000000  1.6038667  3
   2576   2574   5190   5181     1  0.0000000  1.6038667  3
   2577   5219   5210   5211     1  0.0000000  1.6038667  3
   2577   5219   5210   5212     1  0.0000000  1.6038667  3
   2578   2577   5219   5210     1  0.0000000  1.6038667  3
   2579   2577   5219   5210     1  0.0000000  1.6038667  3
   2581   2582   2594   2595     1  0.0000000  0.6508444  3
   2581   2582   2594   2596     1  0.0000000  0.6508444  3
   2581   2585   2597   2598     1  0.0000000  0.6508444  3
   2581   2585   2597   2599     1  0.0000000  0.6508444  3
   2581   2588   2591   2592     1  0.0000000  0.6508444  3
   2581   2588   2591   2593     1  0.0000000  0.6508444  3
   2582   2581   2585   2586     1  0.0000000  1.2552000  3
   2582   2581   2585   2587     1  0.0000000  1.2552000  3
   2582   2581   2588   2589     1  0.0000000  1.2552000  3
   2582   2581   2588   2590     1  0.0000000  1.2552000  3
   2582   2594   2606   2607     1  0.0000000  0.6508444  3
   2582   2594   2606   2608     1  0.0000000  0.6508444  3
   2583   2582   2581   2585     1  0.0000000  1.2552000  3
   2583   2582   2581   2588     1  0.0000000  1.2552000  3
   2583   2582   2594   2606     1  0.0000000  0.6508444  3
   2583   2582   2594   2595     1  0.0000000  0.6508444  3
   2583   2582   2594   2596     1  0.0000000  0.6508444  3
   2584   2582   2581   2585     1  0.0000000  1.2552000  3
   2584   2582   2581   2588     1  0.0000000  1.2552000  3
   2584   2582   2594   2606     1  0.0000000  0.6508444  3
   2584   2582   2594   2595     1  0.0000000  0.6508444  3
   2584   2582   2594   2596     1  0.0000000  0.6508444  3
   2585   2581   2588   2589     1  0.0000000  1.2552000  3
   2585   2581   2588   2590     1  0.0000000  1.2552000  3
   2585   2597   2603   2604     1  0.0000000  0.6508444  3
   2585   2597   2603   2605     1  0.0000000  0.6508444  3
   2586   2585   2581   2588     1  0.0000000  1.2552000  3
   2586   2585   2597   2603     1  0.0000000  0.6508444  3
   2586   2585   2597   2598     1  0.0000000  0.6508444  3
   2586   2585   2597   2599     1  0.0000000  0.6508444  3
   2587   2585   2581   2588     1  0.0000000  1.2552000  3
   2587   2585   2597   2603     1  0.0000000  0.6508444  3
   2587   2585   2597   2598     1  0.0000000  0.6508444  3
   2587   2585   2597   2599     1  0.0000000  0.6508444  3
   2588   2591   2600   2601     1  0.0000000  0.6508444  3
   2588   2591   2600   2602     1  0.0000000  0.6508444  3
   2589   2588   2591   2600     1  0.0000000  0.6508444  3
   2589   2588   2591   2592     1  0.0000000  0.6508444  3
   2589   2588   2591   2593     1  0.0000000  0.6508444  3
   2590   2588   2591   2600     1  0.0000000  0.6508444  3
   2590   2588   2591   2592     1  0.0000000  0.6508444  3
   2590   2588   2591   2593     1  0.0000000  0.6508444  3
   2592   2591   2600   2609     1  0.0000000  1.0460000  1
   2592   2591   2600   2609     1  0.0000000  0.0000000  3
   2592   2591   2600   2601     1  0.0000000  0.6508444  3
   2592   2591   2600   2602     1  0.0000000  0.6508444  3
   2593   2591   2600   2609     1  0.0000000  1.0460000  1
   2593   2591   2600   2609     1  0.0000000  0.0000000  3
   2593   2591   2600   2601     1  0.0000000  0.6508444  3
   2593   2591   2600   2602     1  0.0000000  0.6508444  3
   2595   2594   2606   5277     1  0.0000000  1.0460000  1
   2595   2594   2606   5277     1  0.0000000  0.0000000  3
   2595   2594   2606   2607     1  0.0000000  0.6508444  3
   2595   2594   2606   2608     1  0.0000000  0.6508444  3
   2596   2594   2606   5277     1  0.0000000  1.0460000  1
   2596   2594   2606   5277     1  0.0000000  0.0000000  3
   2596   2594   2606   2607     1  0.0000000  0.6508444  3
   2596   2594   2606   2608     1  0.0000000  0.6508444  3
   2598   2597   2603   5248     1  0.0000000  1.0460000  1
   2598   2597   2603   5248     1  0.0000000  0.0000000  3
   2598   2597   2603   2604     1  0.0000000  0.6508444  3
   2598   2597   2603   2605     1  0.0000000  0.6508444  3
   2599   2597   2603   5248     1  0.0000000  1.0460000  1
   2599   2597   2603   5248     1  0.0000000  0.0000000  3
   2599   2597   2603   2604     1  0.0000000  0.6508444  3
   2599   2597   2603   2605     1  0.0000000  0.6508444  3
   2603   5248   5239   5240     1  0.0000000  1.6038667  3
   2603   5248   5239   5241     1  0.0000000  1.6038667  3
   2604   2603   5248   5239     1  0.0000000  1.6038667  3
   2605   2603   5248   5239     1  0.0000000  1.6038667  3
   2606   5277   5268   5269     1  0.0000000  1.6038667  3
   2606   5277   5268   5270     1  0.0000000  1.6038667  3
   2607   2606   5277   5268     1  0.0000000  1.6038667  3
   2608   2606   5277   5268     1  0.0000000  1.6038667  3
   2610   2611   2623   2624     1  0.0000000  0.6508444  3
   2610   2611   2623   2625     1  0.0000000  0.6508444  3
   2610   2614   2626   2627     1  0.0000000  0.6508444  3
   2610   2614   2626   2628     1  0.0000000  0.6508444  3
   2610   2617   2620   2621     1  0.0000000  0.6508444  3
   2610   2617   2620   2622     1  0.0000000  0.6508444  3
   2611   2610   2614   2615     1  0.0000000  1.2552000  3
   2611   2610   2614   2616     1  0.0000000  1.2552000  3
   2611   2610   2617   2618     1  0.0000000  1.2552000  3
   2611   2610   2617   2619     1  0.0000000  1.2552000  3
   2611   2623   2635   2636     1  0.0000000  0.6508444  3
   2611   2623   2635   2637     1  0.0000000  0.6508444  3
   2612   2611   2610   2614     1  0.0000000  1.2552000  3
   2612   2611   2610   2617     1  0.0000000  1.2552000  3
   2612   2611   2623   2635     1  0.0000000  0.6508444  3
   2612   2611   2623   2624     1  0.0000000  0.6508444  3
   2612   2611   2623   2625     1  0.0000000  0.6508444  3
   2613   2611   2610   2614     1  0.0000000  1.2552000  3
   2613   2611   2610   2617     1  0.0000000  1.2552000  3
   2613   2611   2623   2635     1  0.0000000  0.6508444  3
   2613   2611   2623   2624     1  0.0000000  0.6508444  3
   2613   2611   2623   2625     1  0.0000000  0.6508444  3
   2614   2610   2617   2618     1  0.0000000  1.2552000  3
   2614   2610   2617   2619     1  0.0000000  1.2552000  3
   2614   2626   2632   2633     1  0.0000000  0.6508444  3
   2614   2626   2632   2634     1  0.0000000  0.6508444  3
   2615   2614   2610   2617     1  0.0000000  1.2552000  3
   2615   2614   2626   2632     1  0.0000000  0.6508444  3
   2615   2614   2626   2627     1  0.0000000  0.6508444  3
   2615   2614   2626   2628     1  0.0000000  0.6508444  3
   2616   2614   2610   2617     1  0.0000000  1.2552000  3
   2616   2614   2626   2632     1  0.0000000  0.6508444  3
   2616   2614   2626   2627     1  0.0000000  0.6508444  3
   2616   2614   2626   2628     1  0.0000000  0.6508444  3
   2617   2620   2629   2630     1  0.0000000  0.6508444  3
   2617   2620   2629   2631     1  0.0000000  0.6508444  3
   2618   2617   2620   2629     1  0.0000000  0.6508444  3
   2618   2617   2620   2621     1  0.0000000  0.6508444  3
   2618   2617   2620   2622     1  0.0000000  0.6508444  3
   2619   2617   2620   2629     1  0.0000000  0.6508444  3
   2619   2617   2620   2621     1  0.0000000  0.6508444  3
   2619   2617   2620   2622     1  0.0000000  0.6508444  3
   2621   2620   2629   2638     1  0.0000000  1.0460000  1
   2621   2620   2629   2638     1  0.0000000  0.0000000  3
   2621   2620   2629   2630     1  0.0000000  0.6508444  3
   2621   2620   2629   2631     1  0.0000000  0.6508444  3
   2622   2620   2629   2638     1  0.0000000  1.0460000  1
   2622   2620   2629   2638     1  0.0000000  0.0000000  3
   2622   2620   2629   2630     1  0.0000000  0.6508444  3
   2622   2620   2629   2631     1  0.0000000  0.6508444  3
   2624   2623   2635   5335     1  0.0000000  1.0460000  1
   2624   2623   2635   5335     1  0.0000000  0.0000000  3
   2624   2623   2635   2636     1  0.0000000  0.6508444  3
   2624   2623   2635   2637     1  0.0000000  0.6508444  3
   2625   2623   2635   5335     1  0.0000000  1.0460000  1
   2625   2623   2635   5335     1  0.0000000  0.0000000  3
   2625   2623   2635   2636     1  0.0000000  0.6508444  3
   2625   2623   2635   2637     1  0.0000000  0.6508444  3
   2627   2626   2632   5306     1  0.0000000  1.0460000  1
   2627   2626   2632   5306     1  0.0000000  0.0000000  3
   2627   2626   2632   2633     1  0.0000000  0.6508444  3
   2627   2626   2632   2634     1  0.0000000  0.6508444  3
   2628   2626   2632   5306     1  0.0000000  1.0460000  1
   2628   2626   2632   5306     1  0.0000000  0.0000000  3
   2628   2626   2632   2633     1  0.0000000  0.6508444  3
   2628   2626   2632   2634     1  0.0000000  0.6508444  3
   2632   5306   5297   5298     1  0.0000000  1.6038667  3
   2632   5306   5297   5299     1  0.0000000  1.6038667  3
   2633   2632   5306   5297     1  0.0000000  1.6038667  3
   2634   2632   5306   5297     1  0.0000000  1.6038667  3
   2635   5335   5326   5327     1  0.0000000  1.6038667  3
   2635   5335   5326   5328     1  0.0000000  1.6038667  3
   2636   2635   5335   5326     1  0.0000000  1.6038667  3
   2637   2635   5335   5326     1  0.0000000  1.6038667  3
   2639   2640   2652   2653     1  0.0000000  0.6508444  3
   2639   2640   2652   2654     1  0.0000000  0.6508444  3
   2639   2643   2655   2656     1  0.0000000  0.6508444  3
   2639   2643   2655   2657     1  0.0000000  0.6508444  3
   2639   2646   2649   2650     1  0.0000000  0.6508444  3
   2639   2646   2649   2651     1  0.0000000  0.6508444  3
   2640   2639   2643   2644     1  0.0000000  1.2552000  3
   2640   2639   2643   2645     1  0.0000000  1.2552000  3
   2640   2639   2646   2647     1  0.0000000  1.2552000  3
   2640   2639   2646   2648     1  0.0000000  1.2552000  3
   2640   2652   2664   2665     1  0.0000000  0.6508444  3
   2640   2652   2664   2666     1  0.0000000  0.6508444  3
   2641   2640   2639   2643     1  0.0000000  1.2552000  3
   2641   2640   2639   2646     1  0.0000000  1.2552000  3
   2641   2640   2652   2664     1  0.0000000  0.6508444  3
   2641   2640   2652   2653     1  0.0000000  0.6508444  3
   2641   2640   2652   2654     1  0.0000000  0.6508444  3
   2642   2640   2639   2643     1  0.0000000  1.2552000  3
   2642   2640   2639   2646     1  0.0000000  1.2552000  3
   2642   2640   2652   2664     1  0.0000000  0.6508444  3
   2642   2640   2652   2653     1  0.0000000  0.6508444  3
   2642   2640   2652   2654     1  0.0000000  0.6508444  3
   2643   2639   2646   2647     1  0.0000000  1.2552000  3
   2643   2639   2646   2648     1  0.0000000  1.2552000  3
   2643   2655   2661   2662     1  0.0000000  0.6508444  3
   2643   2655   2661   2663     1  0.0000000  0.6508444  3
   2644   2643   2639   2646     1  0.0000000  1.2552000  3
   2644   2643   2655   2661     1  0.0000000  0.6508444  3
   2644   2643   2655   2656     1  0.0000000  0.6508444  3
   2644   2643   2655   2657     1  0.0000000  0.6508444  3
   2645   2643   2639   2646     1  0.0000000  1.2552000  3
   2645   2643   2655   2661     1  0.0000000  0.6508444  3
   2645   2643   2655   2656     1  0.0000000  0.6508444  3
   2645   2643   2655   2657     1  0.0000000  0.6508444  3
   2646   2649   2658   2659     1  0.0000000  0.6508444  3
   2646   2649   2658   2660     1  0.0000000  0.6508444  3
   2647   2646   2649   2658     1  0.0000000  0.6508444  3
   2647   2646   2649   2650     1  0.0000000  0.6508444  3
   2647   2646   2649   2651     1  0.0000000  0.6508444  3
   2648   2646   2649   2658     1  0.0000000  0.6508444  3
   2648   2646   2649   2650     1  0.0000000  0.6508444  3
   2648   2646   2649   2651     1  0.0000000  0.6508444  3
   2650   2649   2658   2667     1  0.0000000  1.0460000  1
   2650   2649   2658   2667     1  0.0000000  0.0000000  3
   2650   2649   2658   2659     1  0.0000000  0.6508444  3
   2650   2649   2658   2660     1  0.0000000  0.6508444  3
   2651   2649   2658   2667     1  0.0000000  1.0460000  1
   2651   2649   2658   2667     1  0.0000000  0.0000000  3
   2651   2649   2658   2659     1  0.0000000  0.6508444  3
   2651   2649   2658   2660     1  0.0000000  0.6508444  3
   2653   2652   2664   5393     1  0.0000000  1.0460000  1
   2653   2652   2664   5393     1  0.0000000  0.0000000  3
   2653   2652   2664   2665     1  0.0000000  0.6508444  3
   2653   2652   2664   2666     1  0.0000000  0.6508444  3
   2654   2652   2664   5393     1  0.0000000  1.0460000  1
   2654   2652   2664   5393     1  0.0000000  0.0000000  3
   2654   2652   2664   2665     1  0.0000000  0.6508444  3
   2654   2652   2664   2666     1  0.0000000  0.6508444  3
   2656   2655   2661   5364     1  0.0000000  1.0460000  1
   2656   2655   2661   5364     1  0.0000000  0.0000000  3
   2656   2655   2661   2662     1  0.0000000  0.6508444  3
   2656   2655   2661   2663     1  0.0000000  0.6508444  3
   2657   2655   2661   5364     1  0.0000000  1.0460000  1
   2657   2655   2661   5364     1  0.0000000  0.0000000  3
   2657   2655   2661   2662     1  0.0000000  0.6508444  3
   2657   2655   2661   2663     1  0.0000000  0.6508444  3
   2661   5364   5355   5356     1  0.0000000  1.6038667  3
   2661   5364   5355   5357     1  0.0000000  1.6038667  3
   2662   2661   5364   5355     1  0.0000000  1.6038667  3
   2663   2661   5364   5355     1  0.0000000  1.6038667  3
   2664   5393   5384   5385     1  0.0000000  1.6038667  3
   2664   5393   5384   5386     1  0.0000000  1.6038667  3
   2665   2664   5393   5384     1  0.0000000  1.6038667  3
   2666   2664   5393   5384     1  0.0000000  1.6038667  3
   2668   2669   2681   2682     1  0.0000000  0.6508444  3
   2668   2669   2681   2683     1  0.0000000  0.6508444  3
   2668   2672   2684   2685     1  0.0000000  0.6508444  3
   2668   2672   2684   2686     1  0.0000000  0.6508444  3
   2668   2675   2678   2679     1  0.0000000  0.6508444  3
   2668   2675   2678   2680     1  0.0000000  0.6508444  3
   2669   2668   2672   2673     1  0.0000000  1.2552000  3
   2669   2668   2672   2674     1  0.0000000  1.2552000  3
   2669   2668   2675   2676     1  0.0000000  1.2552000  3
   2669   2668   2675   2677     1  0.0000000  1.2552000  3
   2669   2681   2693   2694     1  0.0000000  0.6508444  3
   2669   2681   2693   2695     1  0.0000000  0.6508444  3
   2670   2669   2668   2672     1  0.0000000  1.2552000  3
   2670   2669   2668   2675     1  0.0000000  1.2552000  3
   2670   2669   2681   2693     1  0.0000000  0.6508444  3
   2670   2669   2681   2682     1  0.0000000  0.6508444  3
   2670   2669   2681   2683     1  0.0000000  0.6508444  3
   2671   2669   2668   2672     1  0.0000000  1.2552000  3
   2671   2669   2668   2675     1  0.0000000  1.2552000  3
   2671   2669   2681   2693     1  0.0000000  0.6508444  3
   2671   2669   2681   2682     1  0.0000000  0.6508444  3
   2671   2669   2681   2683     1  0.0000000  0.6508444  3
   2672   2668   2675   2676     1  0.0000000  1.2552000  3
   2672   2668   2675   2677     1  0.0000000  1.2552000  3
   2672   2684   2690   2691     1  0.0000000  0.6508444  3
   2672   2684   2690   2692     1  0.0000000  0.6508444  3
   2673   2672   2668   2675     1  0.0000000  1.2552000  3
   2673   2672   2684   2690     1  0.0000000  0.6508444  3
   2673   2672   2684   2685     1  0.0000000  0.6508444  3
   2673   2672   2684   2686     1  0.0000000  0.6508444  3
   2674   2672   2668   2675     1  0.0000000  1.2552000  3
   2674   2672   2684   2690     1  0.0000000  0.6508444  3
   2674   2672   2684   2685     1  0.0000000  0.6508444  3
   2674   2672   2684   2686     1  0.0000000  0.6508444  3
   2675   2678   2687   2688     1  0.0000000  0.6508444  3
   2675   2678   2687   2689     1  0.0000000  0.6508444  3
   2676   2675   2678   2687     1  0.0000000  0.6508444  3
   2676   2675   2678   2679     1  0.0000000  0.6508444  3
   2676   2675   2678   2680     1  0.0000000  0.6508444  3
   2677   2675   2678   2687     1  0.0000000  0.6508444  3
   2677   2675   2678   2679     1  0.0000000  0.6508444  3
   2677   2675   2678   2680     1  0.0000000  0.6508444  3
   2679   2678   2687   2696     1  0.0000000  1.0460000  1
   2679   2678   2687   2696     1  0.0000000  0.0000000  3
   2679   2678   2687   2688     1  0.0000000  0.6508444  3
   2679   2678   2687   2689     1  0.0000000  0.6508444  3
   2680   2678   2687   2696     1  0.0000000  1.0460000  1
   2680   2678   2687   2696     1  0.0000000  0.0000000  3
   2680   2678   2687   2688     1  0.0000000  0.6508444  3
   2680   2678   2687   2689     1  0.0000000  0.6508444  3
   2682   2681   2693   5451     1  0.0000000  1.0460000  1
   2682   2681   2693   5451     1  0.0000000  0.0000000  3
   2682   2681   2693   2694     1  0.0000000  0.6508444  3
   2682   2681   2693   2695     1  0.0000000  0.6508444  3
   2683   2681   2693   5451     1  0.0000000  1.0460000  1
   2683   2681   2693   5451     1  0.0000000  0.0000000  3
   2683   2681   2693   2694     1  0.0000000  0.6508444  3
   2683   2681   2693   2695     1  0.0000000  0.6508444  3
   2685   2684   2690   5422     1  0.0000000  1.0460000  1
   2685   2684   2690   5422     1  0.0000000  0.0000000  3
   2685   2684   2690   2691     1  0.0000000  0.6508444  3
   2685   2684   2690   2692     1  0.0000000  0.6508444  3
   2686   2684   2690   5422     1  0.0000000  1.0460000  1
   2686   2684   2690   5422     1  0.0000000  0.0000000  3
   2686   2684   2690   2691     1  0.0000000  0.6508444  3
   2686   2684   2690   2692     1  0.0000000  0.6508444  3
   2690   5422   5413   5414     1  0.0000000  1.6038667  3
   2690   5422   5413   5415     1  0.0000000  1.6038667  3
   2691   2690   5422   5413     1  0.0000000  1.6038667  3
   2692   2690   5422   5413     1  0.0000000  1.6038667  3
   2693   5451   5442   5443     1  0.0000000  1.6038667  3
   2693   5451   5442   5444     1  0.0000000  1.6038667  3
   2694   2693   5451   5442     1  0.0000000  1.6038667  3
   2695   2693   5451   5442     1  0.0000000  1.6038667  3
   2697   2698   2710   2711     1  0.0000000  0.6508444  3
   2697   2698   2710   2712     1  0.0000000  0.6508444  3
   2697   2701   2713   2714     1  0.0000000  0.6508444  3
   2697   2701   2713   2715     1  0.0000000  0.6508444  3
   2697   2704   2707   2708     1  0.0000000  0.6508444  3
   2697   2704   2707   2709     1  0.0000000  0.6508444  3
   2698   2697   2701   2702     1  0.0000000  1.2552000  3
   2698   2697   2701   2703     1  0.0000000  1.2552000  3
   2698   2697   2704   2705     1  0.0000000  1.2552000  3
   2698   2697   2704   2706     1  0.0000000  1.2552000  3
   2698   2710   2722   2723     1  0.0000000  0.6508444  3
   2698   2710   2722   2724     1  0.0000000  0.6508444  3
   2699   2698   2697   2701     1  0.0000000  1.2552000  3
   2699   2698   2697   2704     1  0.0000000  1.2552000  3
   2699   2698   2710   2722     1  0.0000000  0.6508444  3
   2699   2698   2710   2711     1  0.0000000  0.6508444  3
   2699   2698   2710   2712     1  0.0000000  0.6508444  3
   2700   2698   2697   2701     1  0.0000000  1.2552000  3
   2700   2698   2697   2704     1  0.0000000  1.2552000  3
   2700   2698   2710   2722     1  0.0000000  0.6508444  3
   2700   2698   2710   2711     1  0.0000000  0.6508444  3
   2700   2698   2710   2712     1  0.0000000  0.6508444  3
   2701   2697   2704   2705     1  0.0000000  1.2552000  3
   2701   2697   2704   2706     1  0.0000000  1.2552000  3
   2701   2713   2719   2720     1  0.0000000  0.6508444  3
   2701   2713   2719   2721     1  0.0000000  0.6508444  3
   2702   2701   2697   2704     1  0.0000000  1.2552000  3
   2702   2701   2713   2719     1  0.0000000  0.6508444  3
   2702   2701   2713   2714     1  0.0000000  0.6508444  3
   2702   2701   2713   2715     1  0.0000000  0.6508444  3
   2703   2701   2697   2704     1  0.0000000  1.2552000  3
   2703   2701   2713   2719     1  0.0000000  0.6508444  3
   2703   2701   2713   2714     1  0.0000000  0.6508444  3
   2703   2701   2713   2715     1  0.0000000  0.6508444  3
   2704   2707   2716   2717     1  0.0000000  0.6508444  3
   2704   2707   2716   2718     1  0.0000000  0.6508444  3
   2705   2704   2707   2716     1  0.0000000  0.6508444  3
   2705   2704   2707   2708     1  0.0000000  0.6508444  3
   2705   2704   2707   2709     1  0.0000000  0.6508444  3
   2706   2704   2707   2716     1  0.0000000  0.6508444  3
   2706   2704   2707   2708     1  0.0000000  0.6508444  3
   2706   2704   2707   2709     1  0.0000000  0.6508444  3
   2708   2707   2716   2725     1  0.0000000  1.0460000  1
   2708   2707   2716   2725     1  0.0000000  0.0000000  3
   2708   2707   2716   2717     1  0.0000000  0.6508444  3
   2708   2707   2716   2718     1  0.0000000  0.6508444  3
   2709   2707   2716   2725     1  0.0000000  1.0460000  1
   2709   2707   2716   2725     1  0.0000000  0.0000000  3
   2709   2707   2716   2717     1  0.0000000  0.6508444  3
   2709   2707   2716   2718     1  0.0000000  0.6508444  3
   2711   2710   2722   5509     1  0.0000000  1.0460000  1
   2711   2710   2722   5509     1  0.0000000  0.0000000  3
   2711   2710   2722   2723     1  0.0000000  0.6508444  3
   2711   2710   2722   2724     1  0.0000000  0.6508444  3
   2712   2710   2722   5509     1  0.0000000  1.0460000  1
   2712   2710   2722   5509     1  0.0000000  0.0000000  3
   2712   2710   2722   2723     1  0.0000000  0.6508444  3
   2712   2710   2722   2724     1  0.0000000  0.6508444  3
   2714   2713   2719   5480     1  0.0000000  1.0460000  1
   2714   2713   2719   5480     1  0.0000000  0.0000000  3
   2714   2713   2719   2720     1  0.0000000  0.6508444  3
   2714   2713   2719   2721     1  0.0000000  0.6508444  3
   2715   2713   2719   5480     1  0.0000000  1.0460000  1
   2715   2713   2719   5480     1  0.0000000  0.0000000  3
   2715   2713   2719   2720     1  0.0000000  0.6508444  3
   2715   2713   2719   2721     1  0.0000000  0.6508444  3
   2719   5480   5471   5472     1  0.0000000  1.6038667  3
   2719   5480   5471   5473     1  0.0000000  1.6038667  3
   2720   2719   5480   5471     1  0.0000000  1.6038667  3
   2721   2719   5480   5471     1  0.0000000  1.6038667  3
   2722   5509   5500   5501     1  0.0000000  1.6038667  3
   2722   5509   5500   5502     1  0.0000000  1.6038667  3
   2723   2722   5509   5500     1  0.0000000  1.6038667  3
   2724   2722   5509   5500     1  0.0000000  1.6038667  3
   2726   2727   2739   2740     1  0.0000000  0.6508444  3
   2726   2727   2739   2741     1  0.0000000  0.6508444  3
   2726   2730   2742   2743     1  0.0000000  0.6508444  3
   2726   2730   2742   2744     1  0.0000000  0.6508444  3
   2726   2733   2736   2737     1  0.0000000  0.6508444  3
   2726   2733   2736   2738     1  0.0000000  0.6508444  3
   2727   2726   2730   2731     1  0.0000000  1.2552000  3
   2727   2726   2730   2732     1  0.0000000  1.2552000  3
   2727   2726   2733   2734     1  0.0000000  1.2552000  3
   2727   2726   2733   2735     1  0.0000000  1.2552000  3
   2727   2739   2751   2752     1  0.0000000  0.6508444  3
   2727   2739   2751   2753     1  0.0000000  0.6508444  3
   2728   2727   2726   2730     1  0.0000000  1.2552000  3
   2728   2727   2726   2733     1  0.0000000  1.2552000  3
   2728   2727   2739   2751     1  0.0000000  0.6508444  3
   2728   2727   2739   2740     1  0.0000000  0.6508444  3
   2728   2727   2739   2741     1  0.0000000  0.6508444  3
   2729   2727   2726   2730     1  0.0000000  1.2552000  3
   2729   2727   2726   2733     1  0.0000000  1.2552000  3
   2729   2727   2739   2751     1  0.0000000  0.6508444  3
   2729   2727   2739   2740     1  0.0000000  0.6508444  3
   2729   2727   2739   2741     1  0.0000000  0.6508444  3
   2730   2726   2733   2734     1  0.0000000  1.2552000  3
   2730   2726   2733   2735     1  0.0000000  1.2552000  3
   2730   2742   2748   2749     1  0.0000000  0.6508444  3
   2730   2742   2748   2750     1  0.0000000  0.6508444  3
   2731   2730   2726   2733     1  0.0000000  1.2552000  3
   2731   2730   2742   2748     1  0.0000000  0.6508444  3
   2731   2730   2742   2743     1  0.0000000  0.6508444  3
   2731   2730   2742   2744     1  0.0000000  0.6508444  3
   2732   2730   2726   2733     1  0.0000000  1.2552000  3
   2732   2730   2742   2748     1  0.0000000  0.6508444  3
   2732   2730   2742   2743     1  0.0000000  0.6508444  3
   2732   2730   2742   2744     1  0.0000000  0.6508444  3
   2733   2736   2745   2746     1  0.0000000  0.6508444  3
   2733   2736   2745   2747     1  0.0000000  0.6508444  3
   2734   2733   2736   2745     1  0.0000000  0.6508444  3
   2734   2733   2736   2737     1  0.0000000  0.6508444  3
   2734   2733   2736   2738     1  0.0000000  0.6508444  3
   2735   2733   2736   2745     1  0.0000000  0.6508444  3
   2735   2733   2736   2737     1  0.0000000  0.6508444  3
   2735   2733   2736   2738     1  0.0000000  0.6508444  3
   2737   2736   2745   2754     1  0.0000000  1.0460000  1
   2737   2736   2745   2754     1  0.0000000  0.0000000  3
   2737   2736   2745   2746     1  0.0000000  0.6508444  3
   2737   2736   2745   2747     1  0.0000000  0.6508444  3
   2738   2736   2745   2754     1  0.0000000  1.0460000  1
   2738   2736   2745   2754     1  0.0000000  0.0000000  3
   2738   2736   2745   2746     1  0.0000000  0.6508444  3
   2738   2736   2745   2747     1  0.0000000  0.6508444  3
   2740   2739   2751   5543     1  0.0000000  1.0460000  1
   2740   2739   2751   5543     1  0.0000000  0.0000000  3
   2740   2739   2751   2752     1  0.0000000  0.6508444  3
   2740   2739   2751   2753     1  0.0000000  0.6508444  3
   2741   2739   2751   5543     1  0.0000000  1.0460000  1
   2741   2739   2751   5543     1  0.0000000  0.0000000  3
   2741   2739   2751   2752     1  0.0000000  0.6508444  3
   2741   2739   2751   2753     1  0.0000000  0.6508444  3
   2743   2742   2748   5520     1  0.0000000  1.0460000  1
   2743   2742   2748   5520     1  0.0000000  0.0000000  3
   2743   2742   2748   2749     1  0.0000000  0.6508444  3
   2743   2742   2748   2750     1  0.0000000  0.6508444  3
   2744   2742   2748   5520     1  0.0000000  1.0460000  1
   2744   2742   2748   5520     1  0.0000000  0.0000000  3
   2744   2742   2748   2749     1  0.0000000  0.6508444  3
   2744   2742   2748   2750     1  0.0000000  0.6508444  3
   2748   5520   5516   5519     1  0.0000000  1.6038667  3
   2749   2748   5520   5516     1  0.0000000  1.6038667  3
   2750   2748   5520   5516     1  0.0000000  1.6038667  3
   2751   5543   5539   5542     1  0.0000000  1.6038667  3
   2752   2751   5543   5539     1  0.0000000  1.6038667  3
   2753   2751   5543   5539     1  0.0000000  1.6038667  3
   2755   2756   2768   2769     1  0.0000000  0.6508444  3
   2755   2756   2768   2770     1  0.0000000  0.6508444  3
   2755   2759   2771   2772     1  0.0000000  0.6508444  3
   2755   2759   2771   2773     1  0.0000000  0.6508444  3
   2755   2762   2765   2766     1  0.0000000  0.6508444  3
   2755   2762   2765   2767     1  0.0000000  0.6508444  3
   2756   2755   2759   2760     1  0.0000000  1.2552000  3
   2756   2755   2759   2761     1  0.0000000  1.2552000  3
   2756   2755   2762   2763     1  0.0000000  1.2552000  3
   2756   2755   2762   2764     1  0.0000000  1.2552000  3
   2756   2768   2780   2781     1  0.0000000  0.6508444  3
   2756   2768   2780   2782     1  0.0000000  0.6508444  3
   2757   2756   2755   2759     1  0.0000000  1.2552000  3
   2757   2756   2755   2762     1  0.0000000  1.2552000  3
   2757   2756   2768   2780     1  0.0000000  0.6508444  3
   2757   2756   2768   2769     1  0.0000000  0.6508444  3
   2757   2756   2768   2770     1  0.0000000  0.6508444  3
   2758   2756   2755   2759     1  0.0000000  1.2552000  3
   2758   2756   2755   2762     1  0.0000000  1.2552000  3
   2758   2756   2768   2780     1  0.0000000  0.6508444  3
   2758   2756   2768   2769     1  0.0000000  0.6508444  3
   2758   2756   2768   2770     1  0.0000000  0.6508444  3
   2759   2755   2762   2763     1  0.0000000  1.2552000  3
   2759   2755   2762   2764     1  0.0000000  1.2552000  3
   2759   2771   2777   2778     1  0.0000000  0.6508444  3
   2759   2771   2777   2779     1  0.0000000  0.6508444  3
   2760   2759   2755   2762     1  0.0000000  1.2552000  3
   2760   2759   2771   2777     1  0.0000000  0.6508444  3
   2760   2759   2771   2772     1  0.0000000  0.6508444  3
   2760   2759   2771   2773     1  0.0000000  0.6508444  3
   2761   2759   2755   2762     1  0.0000000  1.2552000  3
   2761   2759   2771   2777     1  0.0000000  0.6508444  3
   2761   2759   2771   2772     1  0.0000000  0.6508444  3
   2761   2759   2771   2773     1  0.0000000  0.6508444  3
   2762   2765   2774   2775     1  0.0000000  0.6508444  3
   2762   2765   2774   2776     1  0.0000000  0.6508444  3
   2763   2762   2765   2774     1  0.0000000  0.6508444  3
   2763   2762   2765   2766     1  0.0000000  0.6508444  3
   2763   2762   2765   2767     1  0.0000000  0.6508444  3
   2764   2762   2765   2774     1  0.0000000  0.6508444  3
   2764   2762   2765   2766     1  0.0000000  0.6508444  3
   2764   2762   2765   2767     1  0.0000000  0.6508444  3
   2766   2765   2774   2783     1  0.0000000  1.0460000  1
   2766   2765   2774   2783     1  0.0000000  0.0000000  3
   2766   2765   2774   2775     1  0.0000000  0.6508444  3
   2766   2765   2774   2776     1  0.0000000  0.6508444  3
   2767   2765   2774   2783     1  0.0000000  1.0460000  1
   2767   2765   2774   2783     1  0.0000000  0.0000000  3
   2767   2765   2774   2775     1  0.0000000  0.6508444  3
   2767   2765   2774   2776     1  0.0000000  0.6508444  3
   2769   2768   2780   5589     1  0.0000000  1.0460000  1
   2769   2768   2780   5589     1  0.0000000  0.0000000  3
   2769   2768   2780   2781     1  0.0000000  0.6508444  3
   2769   2768   2780   2782     1  0.0000000  0.6508444  3
   2770   2768   2780   5589     1  0.0000000  1.0460000  1
   2770   2768   2780   5589     1  0.0000000  0.0000000  3
   2770   2768   2780   2781     1  0.0000000  0.6508444  3
   2770   2768   2780   2782     1  0.0000000  0.6508444  3
   2772   2771   2777   5566     1  0.0000000  1.0460000  1
   2772   2771   2777   5566     1  0.0000000  0.0000000  3
   2772   2771   2777   2778     1  0.0000000  0.6508444  3
   2772   2771   2777   2779     1  0.0000000  0.6508444  3
   2773   2771   2777   5566     1  0.0000000  1.0460000  1
   2773   2771   2777   5566     1  0.0000000  0.0000000  3
   2773   2771   2777   2778     1  0.0000000  0.6508444  3
   2773   2771   2777   2779     1  0.0000000  0.6508444  3
   2777   5566   5562   5565     1  0.0000000  1.6038667  3
   2778   2777   5566   5562     1  0.0000000  1.6038667  3
   2779   2777   5566   5562     1  0.0000000  1.6038667  3
   2780   5589   5585   5588     1  0.0000000  1.6038667  3
   2781   2780   5589   5585     1  0.0000000  1.6038667  3
   2782   2780   5589   5585     1  0.0000000  1.6038667  3
   2784   2785   2797   2798     1  0.0000000  0.6508444  3
   2784   2785   2797   2799     1  0.0000000  0.6508444  3
   2784   2788   2800   2801     1  0.0000000  0.6508444  3
   2784   2788   2800   2802     1  0.0000000  0.6508444  3
   2784   2791   2794   2795     1  0.0000000  0.6508444  3
   2784   2791   2794   2796     1  0.0000000  0.6508444  3
   2785   2784   2788   2789     1  0.0000000  1.2552000  3
   2785   2784   2788   2790     1  0.0000000  1.2552000  3
   2785   2784   2791   2792     1  0.0000000  1.2552000  3
   2785   2784   2791   2793     1  0.0000000  1.2552000  3
   2785   2797   2809   2810     1  0.0000000  0.6508444  3
   2785   2797   2809   2811     1  0.0000000  0.6508444  3
   2786   2785   2784   2788     1  0.0000000  1.2552000  3
   2786   2785   2784   2791     1  0.0000000  1.2552000  3
   2786   2785   2797   2809     1  0.0000000  0.6508444  3
   2786   2785   2797   2798     1  0.0000000  0.6508444  3
   2786   2785   2797   2799     1  0.0000000  0.6508444  3
   2787   2785   2784   2788     1  0.0000000  1.2552000  3
   2787   2785   2784   2791     1  0.0000000  1.2552000  3
   2787   2785   2797   2809     1  0.0000000  0.6508444  3
   2787   2785   2797   2798     1  0.0000000  0.6508444  3
   2787   2785   2797   2799     1  0.0000000  0.6508444  3
   2788   2784   2791   2792     1  0.0000000  1.2552000  3
   2788   2784   2791   2793     1  0.0000000  1.2552000  3
   2788   2800   2806   2807     1  0.0000000  0.6508444  3
   2788   2800   2806   2808     1  0.0000000  0.6508444  3
   2789   2788   2784   2791     1  0.0000000  1.2552000  3
   2789   2788   2800   2806     1  0.0000000  0.6508444  3
   2789   2788   2800   2801     1  0.0000000  0.6508444  3
   2789   2788   2800   2802     1  0.0000000  0.6508444  3
   2790   2788   2784   2791     1  0.0000000  1.2552000  3
   2790   2788   2800   2806     1  0.0000000  0.6508444  3
   2790   2788   2800   2801     1  0.0000000  0.6508444  3
   2790   2788   2800   2802     1  0.0000000  0.6508444  3
   2791   2794   2803   2804     1  0.0000000  0.6508444  3
   2791   2794   2803   2805     1  0.0000000  0.6508444  3
   2792   2791   2794   2803     1  0.0000000  0.6508444  3
   2792   2791   2794   2795     1  0.0000000  0.6508444  3
   2792   2791   2794   2796     1  0.0000000  0.6508444  3
   2793   2791   2794   2803     1  0.0000000  0.6508444  3
   2793   2791   2794   2795     1  0.0000000  0.6508444  3
   2793   2791   2794   2796     1  0.0000000  0.6508444  3
   2795   2794   2803   2812     1  0.0000000  1.0460000  1
   2795   2794   2803   2812     1  0.0000000  0.0000000  3
   2795   2794   2803   2804     1  0.0000000  0.6508444  3
   2795   2794   2803   2805     1  0.0000000  0.6508444  3
   2796   2794   2803   2812     1  0.0000000  1.0460000  1
   2796   2794   2803   2812     1  0.0000000  0.0000000  3
   2796   2794   2803   2804     1  0.0000000  0.6508444  3
   2796   2794   2803   2805     1  0.0000000  0.6508444  3
   2798   2797   2809   5635     1  0.0000000  1.0460000  1
   2798   2797   2809   5635     1  0.0000000  0.0000000  3
   2798   2797   2809   2810     1  0.0000000  0.6508444  3
   2798   2797   2809   2811     1  0.0000000  0.6508444  3
   2799   2797   2809   5635     1  0.0000000  1.0460000  1
   2799   2797   2809   5635     1  0.0000000  0.0000000  3
   2799   2797   2809   2810     1  0.0000000  0.6508444  3
   2799   2797   2809   2811     1  0.0000000  0.6508444  3
   2801   2800   2806   5612     1  0.0000000  1.0460000  1
   2801   2800   2806   5612     1  0.0000000  0.0000000  3
   2801   2800   2806   2807     1  0.0000000  0.6508444  3
   2801   2800   2806   2808     1  0.0000000  0.6508444  3
   2802   2800   2806   5612     1  0.0000000  1.0460000  1
   2802   2800   2806   5612     1  0.0000000  0.0000000  3
   2802   2800   2806   2807     1  0.0000000  0.6508444  3
   2802   2800   2806   2808     1  0.0000000  0.6508444  3
   2806   5612   5608   5611     1  0.0000000  1.6038667  3
   2807   2806   5612   5608     1  0.0000000  1.6038667  3
   2808   2806   5612   5608     1  0.0000000  1.6038667  3
   2809   5635   5631   5634     1  0.0000000  1.6038667  3
   2810   2809   5635   5631     1  0.0000000  1.6038667  3
   2811   2809   5635   5631     1  0.0000000  1.6038667  3
   2813   2814   2826   2827     1  0.0000000  0.6508444  3
   2813   2814   2826   2828     1  0.0000000  0.6508444  3
   2813   2817   2829   2830     1  0.0000000  0.6508444  3
   2813   2817   2829   2831     1  0.0000000  0.6508444  3
   2813   2820   2823   2824     1  0.0000000  0.6508444  3
   2813   2820   2823   2825     1  0.0000000  0.6508444  3
   2814   2813   2817   2818     1  0.0000000  1.2552000  3
   2814   2813   2817   2819     1  0.0000000  1.2552000  3
   2814   2813   2820   2821     1  0.0000000  1.2552000  3
   2814   2813   2820   2822     1  0.0000000  1.2552000  3
   2814   2826   2838   2839     1  0.0000000  0.6508444  3
   2814   2826   2838   2840     1  0.0000000  0.6508444  3
   2815   2814   2813   2817     1  0.0000000  1.2552000  3
   2815   2814   2813   2820     1  0.0000000  1.2552000  3
   2815   2814   2826   2838     1  0.0000000  0.6508444  3
   2815   2814   2826   2827     1  0.0000000  0.6508444  3
   2815   2814   2826   2828     1  0.0000000  0.6508444  3
   2816   2814   2813   2817     1  0.0000000  1.2552000  3
   2816   2814   2813   2820     1  0.0000000  1.2552000  3
   2816   2814   2826   2838     1  0.0000000  0.6508444  3
   2816   2814   2826   2827     1  0.0000000  0.6508444  3
   2816   2814   2826   2828     1  0.0000000  0.6508444  3
   2817   2813   2820   2821     1  0.0000000  1.2552000  3
   2817   2813   2820   2822     1  0.0000000  1.2552000  3
   2817   2829   2835   2836     1  0.0000000  0.6508444  3
   2817   2829   2835   2837     1  0.0000000  0.6508444  3
   2818   2817   2813   2820     1  0.0000000  1.2552000  3
   2818   2817   2829   2835     1  0.0000000  0.6508444  3
   2818   2817   2829   2830     1  0.0000000  0.6508444  3
   2818   2817   2829   2831     1  0.0000000  0.6508444  3
   2819   2817   2813   2820     1  0.0000000  1.2552000  3
   2819   2817   2829   2835     1  0.0000000  0.6508444  3
   2819   2817   2829   2830     1  0.0000000  0.6508444  3
   2819   2817   2829   2831     1  0.0000000  0.6508444  3
   2820   2823   2832   2833     1  0.0000000  0.6508444  3
   2820   2823   2832   2834     1  0.0000000  0.6508444  3
   2821   2820   2823   2832     1  0.0000000  0.6508444  3
   2821   2820   2823   2824     1  0.0000000  0.6508444  3
   2821   2820   2823   2825     1  0.0000000  0.6508444  3
   2822   2820   2823   2832     1  0.0000000  0.6508444  3
   2822   2820   2823   2824     1  0.0000000  0.6508444  3
   2822   2820   2823   2825     1  0.0000000  0.6508444  3
   2824   2823   2832   2841     1  0.0000000  1.0460000  1
   2824   2823   2832   2841     1  0.0000000  0.0000000  3
   2824   2823   2832   2833     1  0.0000000  0.6508444  3
   2824   2823   2832   2834     1  0.0000000  0.6508444  3
   2825   2823   2832   2841     1  0.0000000  1.0460000  1
   2825   2823   2832   2841     1  0.0000000  0.0000000  3
   2825   2823   2832   2833     1  0.0000000  0.6508444  3
   2825   2823   2832   2834     1  0.0000000  0.6508444  3
   2827   2826   2838   5681     1  0.0000000  1.0460000  1
   2827   2826   2838   5681     1  0.0000000  0.0000000  3
   2827   2826   2838   2839     1  0.0000000  0.6508444  3
   2827   2826   2838   2840     1  0.0000000  0.6508444  3
   2828   2826   2838   5681     1  0.0000000  1.0460000  1
   2828   2826   2838   5681     1  0.0000000  0.0000000  3
   2828   2826   2838   2839     1  0.0000000  0.6508444  3
   2828   2826   2838   2840     1  0.0000000  0.6508444  3
   2830   2829   2835   5658     1  0.0000000  1.0460000  1
   2830   2829   2835   5658     1  0.0000000  0.0000000  3
   2830   2829   2835   2836     1  0.0000000  0.6508444  3
   2830   2829   2835   2837     1  0.0000000  0.6508444  3
   2831   2829   2835   5658     1  0.0000000  1.0460000  1
   2831   2829   2835   5658     1  0.0000000  0.0000000  3
   2831   2829   2835   2836     1  0.0000000  0.6508444  3
   2831   2829   2835   2837     1  0.0000000  0.6508444  3
   2835   5658   5654   5657     1  0.0000000  1.6038667  3
   2836   2835   5658   5654     1  0.0000000  1.6038667  3
   2837   2835   5658   5654     1  0.0000000  1.6038667  3
   2838   5681   5677   5680     1  0.0000000  1.6038667  3
   2839   2838   5681   5677     1  0.0000000  1.6038667  3
   2840   2838   5681   5677     1  0.0000000  1.6038667  3
   2842   2843   2855   2856     1  0.0000000  0.6508444  3
   2842   2843   2855   2857     1  0.0000000  0.6508444  3
   2842   2846   2858   2859     1  0.0000000  0.6508444  3
   2842   2846   2858   2860     1  0.0000000  0.6508444  3
   2842   2849   2852   2853     1  0.0000000  0.6508444  3
   2842   2849   2852   2854     1  0.0000000  0.6508444  3
   2843   2842   2846   2847     1  0.0000000  1.2552000  3
   2843   2842   2846   2848     1  0.0000000  1.2552000  3
   2843   2842   2849   2850     1  0.0000000  1.2552000  3
   2843   2842   2849   2851     1  0.0000000  1.2552000  3
   2843   2855   2867   2868     1  0.0000000  0.6508444  3
   2843   2855   2867   2869     1  0.0000000  0.6508444  3
   2844   2843   2842   2846     1  0.0000000  1.2552000  3
   2844   2843   2842   2849     1  0.0000000  1.2552000  3
   2844   2843   2855   2867     1  0.0000000  0.6508444  3
   2844   2843   2855   2856     1  0.0000000  0.6508444  3
   2844   2843   2855   2857     1  0.0000000  0.6508444  3
   2845   2843   2842   2846     1  0.0000000  1.2552000  3
   2845   2843   2842   2849     1  0.0000000  1.2552000  3
   2845   2843   2855   2867     1  0.0000000  0.6508444  3
   2845   2843   2855   2856     1  0.0000000  0.6508444  3
   2845   2843   2855   2857     1  0.0000000  0.6508444  3
   2846   2842   2849   2850     1  0.0000000  1.2552000  3
   2846   2842   2849   2851     1  0.0000000  1.2552000  3
   2846   2858   2864   2865     1  0.0000000  0.6508444  3
   2846   2858   2864   2866     1  0.0000000  0.6508444  3
   2847   2846   2842   2849     1  0.0000000  1.2552000  3
   2847   2846   2858   2864     1  0.0000000  0.6508444  3
   2847   2846   2858   2859     1  0.0000000  0.6508444  3
   2847   2846   2858   2860     1  0.0000000  0.6508444  3
   2848   2846   2842   2849     1  0.0000000  1.2552000  3
   2848   2846   2858   2864     1  0.0000000  0.6508444  3
   2848   2846   2858   2859     1  0.0000000  0.6508444  3
   2848   2846   2858   2860     1  0.0000000  0.6508444  3
   2849   2852   2861   2862     1  0.0000000  0.6508444  3
   2849   2852   2861   2863     1  0.0000000  0.6508444  3
   2850   2849   2852   2861     1  0.0000000  0.6508444  3
   2850   2849   2852   2853     1  0.0000000  0.6508444  3
   2850   2849   2852   2854     1  0.0000000  0.6508444  3
   2851   2849   2852   2861     1  0.0000000  0.6508444  3
   2851   2849   2852   2853     1  0.0000000  0.6508444  3
   2851   2849   2852   2854     1  0.0000000  0.6508444  3
   2853   2852   2861   2870     1  0.0000000  1.0460000  1
   2853   2852   2861   2870     1  0.0000000  0.0000000  3
   2853   2852   2861   2862     1  0.0000000  0.6508444  3
   2853   2852   2861   2863     1  0.0000000  0.6508444  3
   2854   2852   2861   2870     1  0.0000000  1.0460000  1
   2854   2852   2861   2870     1  0.0000000  0.0000000  3
   2854   2852   2861   2862     1  0.0000000  0.6508444  3
   2854   2852   2861   2863     1  0.0000000  0.6508444  3
   2856   2855   2867   5727     1  0.0000000  1.0460000  1
   2856   2855   2867   5727     1  0.0000000  0.0000000  3
   2856   2855   2867   2868     1  0.0000000  0.6508444  3
   2856   2855   2867   2869     1  0.0000000  0.6508444  3
   2857   2855   2867   5727     1  0.0000000  1.0460000  1
   2857   2855   2867   5727     1  0.0000000  0.0000000  3
   2857   2855   2867   2868     1  0.0000000  0.6508444  3
   2857   2855   2867   2869     1  0.0000000  0.6508444  3
   2859   2858   2864   5704     1  0.0000000  1.0460000  1
   2859   2858   2864   5704     1  0.0000000  0.0000000  3
   2859   2858   2864   2865     1  0.0000000  0.6508444  3
   2859   2858   2864   2866     1  0.0000000  0.6508444  3
   2860   2858   2864   5704     1  0.0000000  1.0460000  1
   2860   2858   2864   5704     1  0.0000000  0.0000000  3
   2860   2858   2864   2865     1  0.0000000  0.6508444  3
   2860   2858   2864   2866     1  0.0000000  0.6508444  3
   2864   5704   5700   5703     1  0.0000000  1.6038667  3
   2865   2864   5704   5700     1  0.0000000  1.6038667  3
   2866   2864   5704   5700     1  0.0000000  1.6038667  3
   2867   5727   5723   5726     1  0.0000000  1.6038667  3
   2868   2867   5727   5723     1  0.0000000  1.6038667  3
   2869   2867   5727   5723     1  0.0000000  1.6038667  3
   2871   2872   2884   2885     1  0.0000000  0.6508444  3
   2871   2872   2884   2886     1  0.0000000  0.6508444  3
   2871   2875   2887   2888     1  0.0000000  0.6508444  3
   2871   2875   2887   2889     1  0.0000000  0.6508444  3
   2871   2878   2881   2882     1  0.0000000  0.6508444  3
   2871   2878   2881   2883     1  0.0000000  0.6508444  3
   2872   2871   2875   2876     1  0.0000000  1.2552000  3
   2872   2871   2875   2877     1  0.0000000  1.2552000  3
   2872   2871   2878   2879     1  0.0000000  1.2552000  3
   2872   2871   2878   2880     1  0.0000000  1.2552000  3
   2872   2884   2896   2897     1  0.0000000  0.6508444  3
   2872   2884   2896   2898     1  0.0000000  0.6508444  3
   2873   2872   2871   2875     1  0.0000000  1.2552000  3
   2873   2872   2871   2878     1  0.0000000  1.2552000  3
   2873   2872   2884   2896     1  0.0000000  0.6508444  3
   2873   2872   2884   2885     1  0.0000000  0.6508444  3
   2873   2872   2884   2886     1  0.0000000  0.6508444  3
   2874   2872   2871   2875     1  0.0000000  1.2552000  3
   2874   2872   2871   2878     1  0.0000000  1.2552000  3
   2874   2872   2884   2896     1  0.0000000  0.6508444  3
   2874   2872   2884   2885     1  0.0000000  0.6508444  3
   2874   2872   2884   2886     1  0.0000000  0.6508444  3
   2875   2871   2878   2879     1  0.0000000  1.2552000  3
   2875   2871   2878   2880     1  0.0000000  1.2552000  3
   2875   2887   2893   2894     1  0.0000000  0.6508444  3
   2875   2887   2893   2895     1  0.0000000  0.6508444  3
   2876   2875   2871   2878     1  0.0000000  1.2552000  3
   2876   2875   2887   2893     1  0.0000000  0.6508444  3
   2876   2875   2887   2888     1  0.0000000  0.6508444  3
   2876   2875   2887   2889     1  0.0000000  0.6508444  3
   2877   2875   2871   2878     1  0.0000000  1.2552000  3
   2877   2875   2887   2893     1  0.0000000  0.6508444  3
   2877   2875   2887   2888     1  0.0000000  0.6508444  3
   2877   2875   2887   2889     1  0.0000000  0.6508444  3
   2878   2881   2890   2891     1  0.0000000  0.6508444  3
   2878   2881   2890   2892     1  0.0000000  0.6508444  3
   2879   2878   2881   2890     1  0.0000000  0.6508444  3
   2879   2878   2881   2882     1  0.0000000  0.6508444  3
   2879   2878   2881   2883     1  0.0000000  0.6508444  3
   2880   2878   2881   2890     1  0.0000000  0.6508444  3
   2880   2878   2881   2882     1  0.0000000  0.6508444  3
   2880   2878   2881   2883     1  0.0000000  0.6508444  3
   2882   2881   2890   2899     1  0.0000000  1.0460000  1
   2882   2881   2890   2899     1  0.0000000  0.0000000  3
   2882   2881   2890   2891     1  0.0000000  0.6508444  3
   2882   2881   2890   2892     1  0.0000000  0.6508444  3
   2883   2881   2890   2899     1  0.0000000  1.0460000  1
   2883   2881   2890   2899     1  0.0000000  0.0000000  3
   2883   2881   2890   2891     1  0.0000000  0.6508444  3
   2883   2881   2890   2892     1  0.0000000  0.6508444  3
   2885   2884   2896   5773     1  0.0000000  1.0460000  1
   2885   2884   2896   5773     1  0.0000000  0.0000000  3
   2885   2884   2896   2897     1  0.0000000  0.6508444  3
   2885   2884   2896   2898     1  0.0000000  0.6508444  3
   2886   2884   2896   5773     1  0.0000000  1.0460000  1
   2886   2884   2896   5773     1  0.0000000  0.0000000  3
   2886   2884   2896   2897     1  0.0000000  0.6508444  3
   2886   2884   2896   2898     1  0.0000000  0.6508444  3
   2888   2887   2893   5750     1  0.0000000  1.0460000  1
   2888   2887   2893   5750     1  0.0000000  0.0000000  3
   2888   2887   2893   2894     1  0.0000000  0.6508444  3
   2888   2887   2893   2895     1  0.0000000  0.6508444  3
   2889   2887   2893   5750     1  0.0000000  1.0460000  1
   2889   2887   2893   5750     1  0.0000000  0.0000000  3
   2889   2887   2893   2894     1  0.0000000  0.6508444  3
   2889   2887   2893   2895     1  0.0000000  0.6508444  3
   2893   5750   5746   5749     1  0.0000000  1.6038667  3
   2894   2893   5750   5746     1  0.0000000  1.6038667  3
   2895   2893   5750   5746     1  0.0000000  1.6038667  3
   2896   5773   5769   5772     1  0.0000000  1.6038667  3
   2897   2896   5773   5769     1  0.0000000  1.6038667  3
   2898   2896   5773   5769     1  0.0000000  1.6038667  3
   2900   2901   2913   2914     1  0.0000000  0.6508444  3
   2900   2901   2913   2915     1  0.0000000  0.6508444  3
   2900   2904   2916   2917     1  0.0000000  0.6508444  3
   2900   2904   2916   2918     1  0.0000000  0.6508444  3
   2900   2907   2910   2911     1  0.0000000  0.6508444  3
   2900   2907   2910   2912     1  0.0000000  0.6508444  3
   2901   2900   2904   2905     1  0.0000000  1.2552000  3
   2901   2900   2904   2906     1  0.0000000  1.2552000  3
   2901   2900   2907   2908     1  0.0000000  1.2552000  3
   2901   2900   2907   2909     1  0.0000000  1.2552000  3
   2901   2913   2925   2926     1  0.0000000  0.6508444  3
   2901   2913   2925   2927     1  0.0000000  0.6508444  3
   2902   2901   2900   2904     1  0.0000000  1.2552000  3
   2902   2901   2900   2907     1  0.0000000  1.2552000  3
   2902   2901   2913   2925     1  0.0000000  0.6508444  3
   2902   2901   2913   2914     1  0.0000000  0.6508444  3
   2902   2901   2913   2915     1  0.0000000  0.6508444  3
   2903   2901   2900   2904     1  0.0000000  1.2552000  3
   2903   2901   2900   2907     1  0.0000000  1.2552000  3
   2903   2901   2913   2925     1  0.0000000  0.6508444  3
   2903   2901   2913   2914     1  0.0000000  0.6508444  3
   2903   2901   2913   2915     1  0.0000000  0.6508444  3
   2904   2900   2907   2908     1  0.0000000  1.2552000  3
   2904   2900   2907   2909     1  0.0000000  1.2552000  3
   2904   2916   2922   2923     1  0.0000000  0.6508444  3
   2904   2916   2922   2924     1  0.0000000  0.6508444  3
   2905   2904   2900   2907     1  0.0000000  1.2552000  3
   2905   2904   2916   2922     1  0.0000000  0.6508444  3
   2905   2904   2916   2917     1  0.0000000  0.6508444  3
   2905   2904   2916   2918     1  0.0000000  0.6508444  3
   2906   2904   2900   2907     1  0.0000000  1.2552000  3
   2906   2904   2916   2922     1  0.0000000  0.6508444  3
   2906   2904   2916   2917     1  0.0000000  0.6508444  3
   2906   2904   2916   2918     1  0.0000000  0.6508444  3
   2907   2910   2919   2920     1  0.0000000  0.6508444  3
   2907   2910   2919   2921     1  0.0000000  0.6508444  3
   2908   2907   2910   2919     1  0.0000000  0.6508444  3
   2908   2907   2910   2911     1  0.0000000  0.6508444  3
   2908   2907   2910   2912     1  0.0000000  0.6508444  3
   2909   2907   2910   2919     1  0.0000000  0.6508444  3
   2909   2907   2910   2911     1  0.0000000  0.6508444  3
   2909   2907   2910   2912     1  0.0000000  0.6508444  3
   2911   2910   2919   2928     1  0.0000000  1.0460000  1
   2911   2910   2919   2928     1  0.0000000  0.0000000  3
   2911   2910   2919   2920     1  0.0000000  0.6508444  3
   2911   2910   2919   2921     1  0.0000000  0.6508444  3
   2912   2910   2919   2928     1  0.0000000  1.0460000  1
   2912   2910   2919   2928     1  0.0000000  0.0000000  3
   2912   2910   2919   2920     1  0.0000000  0.6508444  3
   2912   2910   2919   2921     1  0.0000000  0.6508444  3
   2914   2913   2925   5819     1  0.0000000  1.0460000  1
   2914   2913   2925   5819     1  0.0000000  0.0000000  3
   2914   2913   2925   2926     1  0.0000000  0.6508444  3
   2914   2913   2925   2927     1  0.0000000  0.6508444  3
   2915   2913   2925   5819     1  0.0000000  1.0460000  1
   2915   2913   2925   5819     1  0.0000000  0.0000000  3
   2915   2913   2925   2926     1  0.0000000  0.6508444  3
   2915   2913   2925   2927     1  0.0000000  0.6508444  3
   2917   2916   2922   5796     1  0.0000000  1.0460000  1
   2917   2916   2922   5796     1  0.0000000  0.0000000  3
   2917   2916   2922   2923     1  0.0000000  0.6508444  3
   2917   2916   2922   2924     1  0.0000000  0.6508444  3
   2918   2916   2922   5796     1  0.0000000  1.0460000  1
   2918   2916   2922   5796     1  0.0000000  0.0000000  3
   2918   2916   2922   2923     1  0.0000000  0.6508444  3
   2918   2916   2922   2924     1  0.0000000  0.6508444  3
   2922   5796   5792   5795     1  0.0000000  1.6038667  3
   2923   2922   5796   5792     1  0.0000000  1.6038667  3
   2924   2922   5796   5792     1  0.0000000  1.6038667  3
   2925   5819   5815   5818     1  0.0000000  1.6038667  3
   2926   2925   5819   5815     1  0.0000000  1.6038667  3
   2927   2925   5819   5815     1  0.0000000  1.6038667  3
   2929   2930   2942   2943     1  0.0000000  0.6508444  3
   2929   2930   2942   2944     1  0.0000000  0.6508444  3
   2929   2933   2945   2946     1  0.0000000  0.6508444  3
   2929   2933   2945   2947     1  0.0000000  0.6508444  3
   2929   2936   2939   2940     1  0.0000000  0.6508444  3
   2929   2936   2939   2941     1  0.0000000  0.6508444  3
   2930   2929   2933   2934     1  0.0000000  1.2552000  3
   2930   2929   2933   2935     1  0.0000000  1.2552000  3
   2930   2929   2936   2937     1  0.0000000  1.2552000  3
   2930   2929   2936   2938     1  0.0000000  1.2552000  3
   2930   2942   2954   2955     1  0.0000000  0.6508444  3
   2930   2942   2954   2956     1  0.0000000  0.6508444  3
   2931   2930   2929   2933     1  0.0000000  1.2552000  3
   2931   2930   2929   2936     1  0.0000000  1.2552000  3
   2931   2930   2942   2954     1  0.0000000  0.6508444  3
   2931   2930   2942   2943     1  0.0000000  0.6508444  3
   2931   2930   2942   2944     1  0.0000000  0.6508444  3
   2932   2930   2929   2933     1  0.0000000  1.2552000  3
   2932   2930   2929   2936     1  0.0000000  1.2552000  3
   2932   2930   2942   2954     1  0.0000000  0.6508444  3
   2932   2930   2942   2943     1  0.0000000  0.6508444  3
   2932   2930   2942   2944     1  0.0000000  0.6508444  3
   2933   2929   2936   2937     1  0.0000000  1.2552000  3
   2933   2929   2936   2938     1  0.0000000  1.2552000  3
   2933   2945   2951   2952     1  0.0000000  0.6508444  3
   2933   2945   2951   2953     1  0.0000000  0.6508444  3
   2934   2933   2929   2936     1  0.0000000  1.2552000  3
   2934   2933   2945   2951     1  0.0000000  0.6508444  3
   2934   2933   2945   2946     1  0.0000000  0.6508444  3
   2934   2933   2945   2947     1  0.0000000  0.6508444  3
   2935   2933   2929   2936     1  0.0000000  1.2552000  3
   2935   2933   2945   2951     1  0.0000000  0.6508444  3
   2935   2933   2945   2946     1  0.0000000  0.6508444  3
   2935   2933   2945   2947     1  0.0000000  0.6508444  3
   2936   2939   2948   2949     1  0.0000000  0.6508444  3
   2936   2939   2948   2950     1  0.0000000  0.6508444  3
   2937   2936   2939   2948     1  0.0000000  0.6508444  3
   2937   2936   2939   2940     1  0.0000000  0.6508444  3
   2937   2936   2939   2941     1  0.0000000  0.6508444  3
   2938   2936   2939   2948     1  0.0000000  0.6508444  3
   2938   2936   2939   2940     1  0.0000000  0.6508444  3
   2938   2936   2939   2941     1  0.0000000  0.6508444  3
   2940   2939   2948   2957     1  0.0000000  1.0460000  1
   2940   2939   2948   2957     1  0.0000000  0.0000000  3
   2940   2939   2948   2949     1  0.0000000  0.6508444  3
   2940   2939   2948   2950     1  0.0000000  0.6508444  3
   2941   2939   2948   2957     1  0.0000000  1.0460000  1
   2941   2939   2948   2957     1  0.0000000  0.0000000  3
   2941   2939   2948   2949     1  0.0000000  0.6508444  3
   2941   2939   2948   2950     1  0.0000000  0.6508444  3
   2943   2942   2954   5865     1  0.0000000  1.0460000  1
   2943   2942   2954   5865     1  0.0000000  0.0000000  3
   2943   2942   2954   2955     1  0.0000000  0.6508444  3
   2943   2942   2954   2956     1  0.0000000  0.6508444  3
   2944   2942   2954   5865     1  0.0000000  1.0460000  1
   2944   2942   2954   5865     1  0.0000000  0.0000000  3
   2944   2942   2954   2955     1  0.0000000  0.6508444  3
   2944   2942   2954   2956     1  0.0000000  0.6508444  3
   2946   2945   2951   5842     1  0.0000000  1.0460000  1
   2946   2945   2951   5842     1  0.0000000  0.0000000  3
   2946   2945   2951   2952     1  0.0000000  0.6508444  3
   2946   2945   2951   2953     1  0.0000000  0.6508444  3
   2947   2945   2951   5842     1  0.0000000  1.0460000  1
   2947   2945   2951   5842     1  0.0000000  0.0000000  3
   2947   2945   2951   2952     1  0.0000000  0.6508444  3
   2947   2945   2951   2953     1  0.0000000  0.6508444  3
   2951   5842   5838   5841     1  0.0000000  1.6038667  3
   2952   2951   5842   5838     1  0.0000000  1.6038667  3
   2953   2951   5842   5838     1  0.0000000  1.6038667  3
   2954   5865   5861   5864     1  0.0000000  1.6038667  3
   2955   2954   5865   5861     1  0.0000000  1.6038667  3
   2956   2954   5865   5861     1  0.0000000  1.6038667  3
   2958   2959   2971   2972     1  0.0000000  0.6508444  3
   2958   2959   2971   2973     1  0.0000000  0.6508444  3
   2958   2962   2974   2975     1  0.0000000  0.6508444  3
   2958   2962   2974   2976     1  0.0000000  0.6508444  3
   2958   2965   2968   2969     1  0.0000000  0.6508444  3
   2958   2965   2968   2970     1  0.0000000  0.6508444  3
   2959   2958   2962   2963     1  0.0000000  1.2552000  3
   2959   2958   2962   2964     1  0.0000000  1.2552000  3
   2959   2958   2965   2966     1  0.0000000  1.2552000  3
   2959   2958   2965   2967     1  0.0000000  1.2552000  3
   2959   2971   2983   2984     1  0.0000000  0.6508444  3
   2959   2971   2983   2985     1  0.0000000  0.6508444  3
   2960   2959   2958   2962     1  0.0000000  1.2552000  3
   2960   2959   2958   2965     1  0.0000000  1.2552000  3
   2960   2959   2971   2983     1  0.0000000  0.6508444  3
   2960   2959   2971   2972     1  0.0000000  0.6508444  3
   2960   2959   2971   2973     1  0.0000000  0.6508444  3
   2961   2959   2958   2962     1  0.0000000  1.2552000  3
   2961   2959   2958   2965     1  0.0000000  1.2552000  3
   2961   2959   2971   2983     1  0.0000000  0.6508444  3
   2961   2959   2971   2972     1  0.0000000  0.6508444  3
   2961   2959   2971   2973     1  0.0000000  0.6508444  3
   2962   2958   2965   2966     1  0.0000000  1.2552000  3
   2962   2958   2965   2967     1  0.0000000  1.2552000  3
   2962   2974   2980   2981     1  0.0000000  0.6508444  3
   2962   2974   2980   2982     1  0.0000000  0.6508444  3
   2963   2962   2958   2965     1  0.0000000  1.2552000  3
   2963   2962   2974   2980     1  0.0000000  0.6508444  3
   2963   2962   2974   2975     1  0.0000000  0.6508444  3
   2963   2962   2974   2976     1  0.0000000  0.6508444  3
   2964   2962   2958   2965     1  0.0000000  1.2552000  3
   2964   2962   2974   2980     1  0.0000000  0.6508444  3
   2964   2962   2974   2975     1  0.0000000  0.6508444  3
   2964   2962   2974   2976     1  0.0000000  0.6508444  3
   2965   2968   2977   2978     1  0.0000000  0.6508444  3
   2965   2968   2977   2979     1  0.0000000  0.6508444  3
   2966   2965   2968   2977     1  0.0000000  0.6508444  3
   2966   2965   2968   2969     1  0.0000000  0.6508444  3
   2966   2965   2968   2970     1  0.0000000  0.6508444  3
   2967   2965   2968   2977     1  0.0000000  0.6508444  3
   2967   2965   2968   2969     1  0.0000000  0.6508444  3
   2967   2965   2968   2970     1  0.0000000  0.6508444  3
   2969   2968   2977   2986     1  0.0000000  1.0460000  1
   2969   2968   2977   2986     1  0.0000000  0.0000000  3
   2969   2968   2977   2978     1  0.0000000  0.6508444  3
   2969   2968   2977   2979     1  0.0000000  0.6508444  3
   2970   2968   2977   2986     1  0.0000000  1.0460000  1
   2970   2968   2977   2986     1  0.0000000  0.0000000  3
   2970   2968   2977   2978     1  0.0000000  0.6508444  3
   2970   2968   2977   2979     1  0.0000000  0.6508444  3
   2972   2971   2983   5911     1  0.0000000  1.0460000  1
   2972   2971   2983   5911     1  0.0000000  0.0000000  3
   2972   2971   2983   2984     1  0.0000000  0.6508444  3
   2972   2971   2983   2985     1  0.0000000  0.6508444  3
   2973   2971   2983   5911     1  0.0000000  1.0460000  1
   2973   2971   2983   5911     1  0.0000000  0.0000000  3
   2973   2971   2983   2984     1  0.0000000  0.6508444  3
   2973   2971   2983   2985     1  0.0000000  0.6508444  3
   2975   2974   2980   5888     1  0.0000000  1.0460000  1
   2975   2974   2980   5888     1  0.0000000  0.0000000  3
   2975   2974   2980   2981     1  0.0000000  0.6508444  3
   2975   2974   2980   2982     1  0.0000000  0.6508444  3
   2976   2974   2980   5888     1  0.0000000  1.0460000  1
   2976   2974   2980   5888     1  0.0000000  0.0000000  3
   2976   2974   2980   2981     1  0.0000000  0.6508444  3
   2976   2974   2980   2982     1  0.0000000  0.6508444  3
   2980   5888   5884   5887     1  0.0000000  1.6038667  3
   2981   2980   5888   5884     1  0.0000000  1.6038667  3
   2982   2980   5888   5884     1  0.0000000  1.6038667  3
   2983   5911   5907   5910     1  0.0000000  1.6038667  3
   2984   2983   5911   5907     1  0.0000000  1.6038667  3
   2985   2983   5911   5907     1  0.0000000  1.6038667  3
   2987   2988   3000   3001     1  0.0000000  0.6508444  3
   2987   2988   3000   3002     1  0.0000000  0.6508444  3
   2987   2991   3003   3004     1  0.0000000  0.6508444  3
   2987   2991   3003   3005     1  0.0000000  0.6508444  3
   2987   2994   2997   2998     1  0.0000000  0.6508444  3
   2987   2994   2997   2999     1  0.0000000  0.6508444  3
   2988   2987   2991   2992     1  0.0000000  1.2552000  3
   2988   2987   2991   2993     1  0.0000000  1.2552000  3
   2988   2987   2994   2995     1  0.0000000  1.2552000  3
   2988   2987   2994   2996     1  0.0000000  1.2552000  3
   2988   3000   3012   3013     1  0.0000000  0.6508444  3
   2988   3000   3012   3014     1  0.0000000  0.6508444  3
   2989   2988   2987   2991     1  0.0000000  1.2552000  3
   2989   2988   2987   2994     1  0.0000000  1.2552000  3
   2989   2988   3000   3012     1  0.0000000  0.6508444  3
   2989   2988   3000   3001     1  0.0000000  0.6508444  3
   2989   2988   3000   3002     1  0.0000000  0.6508444  3
   2990   2988   2987   2991     1  0.0000000  1.2552000  3
   2990   2988   2987   2994     1  0.0000000  1.2552000  3
   2990   2988   3000   3012     1  0.0000000  0.6508444  3
   2990   2988   3000   3001     1  0.0000000  0.6508444  3
   2990   2988   3000   3002     1  0.0000000  0.6508444  3
   2991   2987   2994   2995     1  0.0000000  1.2552000  3
   2991   2987   2994   2996     1  0.0000000  1.2552000  3
   2991   3003   3009   3010     1  0.0000000  0.6508444  3
   2991   3003   3009   3011     1  0.0000000  0.6508444  3
   2992   2991   2987   2994     1  0.0000000  1.2552000  3
   2992   2991   3003   3009     1  0.0000000  0.6508444  3
   2992   2991   3003   3004     1  0.0000000  0.6508444  3
   2992   2991   3003   3005     1  0.0000000  0.6508444  3
   2993   2991   2987   2994     1  0.0000000  1.2552000  3
   2993   2991   3003   3009     1  0.0000000  0.6508444  3
   2993   2991   3003   3004     1  0.0000000  0.6508444  3
   2993   2991   3003   3005     1  0.0000000  0.6508444  3
   2994   2997   3006   3007     1  0.0000000  0.6508444  3
   2994   2997   3006   3008     1  0.0000000  0.6508444  3
   2995   2994   2997   3006     1  0.0000000  0.6508444  3
   2995   2994   2997   2998     1  0.0000000  0.6508444  3
   2995   2994   2997   2999     1  0.0000000  0.6508444  3
   2996   2994   2997   3006     1  0.0000000  0.6508444  3
   2996   2994   2997   2998     1  0.0000000  0.6508444  3
   2996   2994   2997   2999     1  0.0000000  0.6508444  3
   2998   2997   3006   3015     1  0.0000000  1.0460000  1
   2998   2997   3006   3015     1  0.0000000  0.0000000  3
   2998   2997   3006   3007     1  0.0000000  0.6508444  3
   2998   2997   3006   3008     1  0.0000000  0.6508444  3
   2999   2997   3006   3015     1  0.0000000  1.0460000  1
   2999   2997   3006   3015     1  0.0000000  0.0000000  3
   2999   2997   3006   3007     1  0.0000000  0.6508444  3
   2999   2997   3006   3008     1  0.0000000  0.6508444  3
   3001   3000   3012   5957     1  0.0000000  1.0460000  1
   3001   3000   3012   5957     1  0.0000000  0.0000000  3
   3001   3000   3012   3013     1  0.0000000  0.6508444  3
   3001   3000   3012   3014     1  0.0000000  0.6508444  3
   3002   3000   3012   5957     1  0.0000000  1.0460000  1
   3002   3000   3012   5957     1  0.0000000  0.0000000  3
   3002   3000   3012   3013     1  0.0000000  0.6508444  3
   3002   3000   3012   3014     1  0.0000000  0.6508444  3
   3004   3003   3009   5934     1  0.0000000  1.0460000  1
   3004   3003   3009   5934     1  0.0000000  0.0000000  3
   3004   3003   3009   3010     1  0.0000000  0.6508444  3
   3004   3003   3009   3011     1  0.0000000  0.6508444  3
   3005   3003   3009   5934     1  0.0000000  1.0460000  1
   3005   3003   3009   5934     1  0.0000000  0.0000000  3
   3005   3003   3009   3010     1  0.0000000  0.6508444  3
   3005   3003   3009   3011     1  0.0000000  0.6508444  3
   3009   5934   5930   5933     1  0.0000000  1.6038667  3
   3010   3009   5934   5930     1  0.0000000  1.6038667  3
   3011   3009   5934   5930     1  0.0000000  1.6038667  3
   3012   5957   5953   5956     1  0.0000000  1.6038667  3
   3013   3012   5957   5953     1  0.0000000  1.6038667  3
   3014   3012   5957   5953     1  0.0000000  1.6038667  3
   3016   3017   3029   3030     1  0.0000000  0.6508444  3
   3016   3017   3029   3031     1  0.0000000  0.6508444  3
   3016   3020   3032   3033     1  0.0000000  0.6508444  3
   3016   3020   3032   3034     1  0.0000000  0.6508444  3
   3016   3023   3026   3027     1  0.0000000  0.6508444  3
   3016   3023   3026   3028     1  0.0000000  0.6508444  3
   3017   3016   3020   3021     1  0.0000000  1.2552000  3
   3017   3016   3020   3022     1  0.0000000  1.2552000  3
   3017   3016   3023   3024     1  0.0000000  1.2552000  3
   3017   3016   3023   3025     1  0.0000000  1.2552000  3
   3017   3029   3041   3042     1  0.0000000  0.6508444  3
   3017   3029   3041   3043     1  0.0000000  0.6508444  3
   3018   3017   3016   3020     1  0.0000000  1.2552000  3
   3018   3017   3016   3023     1  0.0000000  1.2552000  3
   3018   3017   3029   3041     1  0.0000000  0.6508444  3
   3018   3017   3029   3030     1  0.0000000  0.6508444  3
   3018   3017   3029   3031     1  0.0000000  0.6508444  3
   3019   3017   3016   3020     1  0.0000000  1.2552000  3
   3019   3017   3016   3023     1  0.0000000  1.2552000  3
   3019   3017   3029   3041     1  0.0000000  0.6508444  3
   3019   3017   3029   3030     1  0.0000000  0.6508444  3
   3019   3017   3029   3031     1  0.0000000  0.6508444  3
   3020   3016   3023   3024     1  0.0000000  1.2552000  3
   3020   3016   3023   3025     1  0.0000000  1.2552000  3
   3020   3032   3038   3039     1  0.0000000  0.6508444  3
   3020   3032   3038   3040     1  0.0000000  0.6508444  3
   3021   3020   3016   3023     1  0.0000000  1.2552000  3
   3021   3020   3032   3038     1  0.0000000  0.6508444  3
   3021   3020   3032   3033     1  0.0000000  0.6508444  3
   3021   3020   3032   3034     1  0.0000000  0.6508444  3
   3022   3020   3016   3023     1  0.0000000  1.2552000  3
   3022   3020   3032   3038     1  0.0000000  0.6508444  3
   3022   3020   3032   3033     1  0.0000000  0.6508444  3
   3022   3020   3032   3034     1  0.0000000  0.6508444  3
   3023   3026   3035   3036     1  0.0000000  0.6508444  3
   3023   3026   3035   3037     1  0.0000000  0.6508444  3
   3024   3023   3026   3035     1  0.0000000  0.6508444  3
   3024   3023   3026   3027     1  0.0000000  0.6508444  3
   3024   3023   3026   3028     1  0.0000000  0.6508444  3
   3025   3023   3026   3035     1  0.0000000  0.6508444  3
   3025   3023   3026   3027     1  0.0000000  0.6508444  3
   3025   3023   3026   3028     1  0.0000000  0.6508444  3
   3027   3026   3035   3044     1  0.0000000  1.0460000  1
   3027   3026   3035   3044     1  0.0000000  0.0000000  3
   3027   3026   3035   3036     1  0.0000000  0.6508444  3
   3027   3026   3035   3037     1  0.0000000  0.6508444  3
   3028   3026   3035   3044     1  0.0000000  1.0460000  1
   3028   3026   3035   3044     1  0.0000000  0.0000000  3
   3028   3026   3035   3036     1  0.0000000  0.6508444  3
   3028   3026   3035   3037     1  0.0000000  0.6508444  3
   3030   3029   3041   6003     1  0.0000000  1.0460000  1
   3030   3029   3041   6003     1  0.0000000  0.0000000  3
   3030   3029   3041   3042     1  0.0000000  0.6508444  3
   3030   3029   3041   3043     1  0.0000000  0.6508444  3
   3031   3029   3041   6003     1  0.0000000  1.0460000  1
   3031   3029   3041   6003     1  0.0000000  0.0000000  3
   3031   3029   3041   3042     1  0.0000000  0.6508444  3
   3031   3029   3041   3043     1  0.0000000  0.6508444  3
   3033   3032   3038   5980     1  0.0000000  1.0460000  1
   3033   3032   3038   5980     1  0.0000000  0.0000000  3
   3033   3032   3038   3039     1  0.0000000  0.6508444  3
   3033   3032   3038   3040     1  0.0000000  0.6508444  3
   3034   3032   3038   5980     1  0.0000000  1.0460000  1
   3034   3032   3038   5980     1  0.0000000  0.0000000  3
   3034   3032   3038   3039     1  0.0000000  0.6508444  3
   3034   3032   3038   3040     1  0.0000000  0.6508444  3
   3038   5980   5976   5979     1  0.0000000  1.6038667  3
   3039   3038   5980   5976     1  0.0000000  1.6038667  3
   3040   3038   5980   5976     1  0.0000000  1.6038667  3
   3041   6003   5999   6002     1  0.0000000  1.6038667  3
   3042   3041   6003   5999     1  0.0000000  1.6038667  3
   3043   3041   6003   5999     1  0.0000000  1.6038667  3
   3045   3046   3058   3059     1  0.0000000  0.6508444  3
   3045   3046   3058   3060     1  0.0000000  0.6508444  3
   3045   3049   3061   3062     1  0.0000000  0.6508444  3
   3045   3049   3061   3063     1  0.0000000  0.6508444  3
   3045   3052   3055   3056     1  0.0000000  0.6508444  3
   3045   3052   3055   3057     1  0.0000000  0.6508444  3
   3046   3045   3049   3050     1  0.0000000  1.2552000  3
   3046   3045   3049   3051     1  0.0000000  1.2552000  3
   3046   3045   3052   3053     1  0.0000000  1.2552000  3
   3046   3045   3052   3054     1  0.0000000  1.2552000  3
   3046   3058   3070   3071     1  0.0000000  0.6508444  3
   3046   3058   3070   3072     1  0.0000000  0.6508444  3
   3047   3046   3045   3049     1  0.0000000  1.2552000  3
   3047   3046   3045   3052     1  0.0000000  1.2552000  3
   3047   3046   3058   3070     1  0.0000000  0.6508444  3
   3047   3046   3058   3059     1  0.0000000  0.6508444  3
   3047   3046   3058   3060     1  0.0000000  0.6508444  3
   3048   3046   3045   3049     1  0.0000000  1.2552000  3
   3048   3046   3045   3052     1  0.0000000  1.2552000  3
   3048   3046   3058   3070     1  0.0000000  0.6508444  3
   3048   3046   3058   3059     1  0.0000000  0.6508444  3
   3048   3046   3058   3060     1  0.0000000  0.6508444  3
   3049   3045   3052   3053     1  0.0000000  1.2552000  3
   3049   3045   3052   3054     1  0.0000000  1.2552000  3
   3049   3061   3067   3068     1  0.0000000  0.6508444  3
   3049   3061   3067   3069     1  0.0000000  0.6508444  3
   3050   3049   3045   3052     1  0.0000000  1.2552000  3
   3050   3049   3061   3067     1  0.0000000  0.6508444  3
   3050   3049   3061   3062     1  0.0000000  0.6508444  3
   3050   3049   3061   3063     1  0.0000000  0.6508444  3
   3051   3049   3045   3052     1  0.0000000  1.2552000  3
   3051   3049   3061   3067     1  0.0000000  0.6508444  3
   3051   3049   3061   3062     1  0.0000000  0.6508444  3
   3051   3049   3061   3063     1  0.0000000  0.6508444  3
   3052   3055   3064   3065     1  0.0000000  0.6508444  3
   3052   3055   3064   3066     1  0.0000000  0.6508444  3
   3053   3052   3055   3064     1  0.0000000  0.6508444  3
   3053   3052   3055   3056     1  0.0000000  0.6508444  3
   3053   3052   3055   3057     1  0.0000000  0.6508444  3
   3054   3052   3055   3064     1  0.0000000  0.6508444  3
   3054   3052   3055   3056     1  0.0000000  0.6508444  3
   3054   3052   3055   3057     1  0.0000000  0.6508444  3
   3056   3055   3064   3073     1  0.0000000  1.0460000  1
   3056   3055   3064   3073     1  0.0000000  0.0000000  3
   3056   3055   3064   3065     1  0.0000000  0.6508444  3
   3056   3055   3064   3066     1  0.0000000  0.6508444  3
   3057   3055   3064   3073     1  0.0000000  1.0460000  1
   3057   3055   3064   3073     1  0.0000000  0.0000000  3
   3057   3055   3064   3065     1  0.0000000  0.6508444  3
   3057   3055   3064   3066     1  0.0000000  0.6508444  3
   3059   3058   3070   6049     1  0.0000000  1.0460000  1
   3059   3058   3070   6049     1  0.0000000  0.0000000  3
   3059   3058   3070   3071     1  0.0000000  0.6508444  3
   3059   3058   3070   3072     1  0.0000000  0.6508444  3
   3060   3058   3070   6049     1  0.0000000  1.0460000  1
   3060   3058   3070   6049     1  0.0000000  0.0000000  3
   3060   3058   3070   3071     1  0.0000000  0.6508444  3
   3060   3058   3070   3072     1  0.0000000  0.6508444  3
   3062   3061   3067   6026     1  0.0000000  1.0460000  1
   3062   3061   3067   6026     1  0.0000000  0.0000000  3
   3062   3061   3067   3068     1  0.0000000  0.6508444  3
   3062   3061   3067   3069     1  0.0000000  0.6508444  3
   3063   3061   3067   6026     1  0.0000000  1.0460000  1
   3063   3061   3067   6026     1  0.0000000  0.0000000  3
   3063   3061   3067   3068     1  0.0000000  0.6508444  3
   3063   3061   3067   3069     1  0.0000000  0.6508444  3
   3067   6026   6022   6025     1  0.0000000  1.6038667  3
   3068   3067   6026   6022     1  0.0000000  1.6038667  3
   3069   3067   6026   6022     1  0.0000000  1.6038667  3
   3070   6049   6045   6048     1  0.0000000  1.6038667  3
   3071   3070   6049   6045     1  0.0000000  1.6038667  3
   3072   3070   6049   6045     1  0.0000000  1.6038667  3
   3074   3075   3087   3088     1  0.0000000  0.6508444  3
   3074   3075   3087   3089     1  0.0000000  0.6508444  3
   3074   3078   3090   3091     1  0.0000000  0.6508444  3
   3074   3078   3090   3092     1  0.0000000  0.6508444  3
   3074   3081   3084   3085     1  0.0000000  0.6508444  3
   3074   3081   3084   3086     1  0.0000000  0.6508444  3
   3075   3074   3078   3079     1  0.0000000  1.2552000  3
   3075   3074   3078   3080     1  0.0000000  1.2552000  3
   3075   3074   3081   3082     1  0.0000000  1.2552000  3
   3075   3074   3081   3083     1  0.0000000  1.2552000  3
   3075   3087   3099   3100     1  0.0000000  0.6508444  3
   3075   3087   3099   3101     1  0.0000000  0.6508444  3
   3076   3075   3074   3078     1  0.0000000  1.2552000  3
   3076   3075   3074   3081     1  0.0000000  1.2552000  3
   3076   3075   3087   3099     1  0.0000000  0.6508444  3
   3076   3075   3087   3088     1  0.0000000  0.6508444  3
   3076   3075   3087   3089     1  0.0000000  0.6508444  3
   3077   3075   3074   3078     1  0.0000000  1.2552000  3
   3077   3075   3074   3081     1  0.0000000  1.2552000  3
   3077   3075   3087   3099     1  0.0000000  0.6508444  3
   3077   3075   3087   3088     1  0.0000000  0.6508444  3
   3077   3075   3087   3089     1  0.0000000  0.6508444  3
   3078   3074   3081   3082     1  0.0000000  1.2552000  3
   3078   3074   3081   3083     1  0.0000000  1.2552000  3
   3078   3090   3096   3097     1  0.0000000  0.6508444  3
   3078   3090   3096   3098     1  0.0000000  0.6508444  3
   3079   3078   3074   3081     1  0.0000000  1.2552000  3
   3079   3078   3090   3096     1  0.0000000  0.6508444  3
   3079   3078   3090   3091     1  0.0000000  0.6508444  3
   3079   3078   3090   3092     1  0.0000000  0.6508444  3
   3080   3078   3074   3081     1  0.0000000  1.2552000  3
   3080   3078   3090   3096     1  0.0000000  0.6508444  3
   3080   3078   3090   3091     1  0.0000000  0.6508444  3
   3080   3078   3090   3092     1  0.0000000  0.6508444  3
   3081   3084   3093   3094     1  0.0000000  0.6508444  3
   3081   3084   3093   3095     1  0.0000000  0.6508444  3
   3082   3081   3084   3093     1  0.0000000  0.6508444  3
   3082   3081   3084   3085     1  0.0000000  0.6508444  3
   3082   3081   3084   3086     1  0.0000000  0.6508444  3
   3083   3081   3084   3093     1  0.0000000  0.6508444  3
   3083   3081   3084   3085     1  0.0000000  0.6508444  3
   3083   3081   3084   3086     1  0.0000000  0.6508444  3
   3085   3084   3093   3102     1  0.0000000  1.0460000  1
   3085   3084   3093   3102     1  0.0000000  0.0000000  3
   3085   3084   3093   3094     1  0.0000000  0.6508444  3
   3085   3084   3093   3095     1  0.0000000  0.6508444  3
   3086   3084   3093   3102     1  0.0000000  1.0460000  1
   3086   3084   3093   3102     1  0.0000000  0.0000000  3
   3086   3084   3093   3094     1  0.0000000  0.6508444  3
   3086   3084   3093   3095     1  0.0000000  0.6508444  3
   3088   3087   3099   6095     1  0.0000000  1.0460000  1
   3088   3087   3099   6095     1  0.0000000  0.0000000  3
   3088   3087   3099   3100     1  0.0000000  0.6508444  3
   3088   3087   3099   3101     1  0.0000000  0.6508444  3
   3089   3087   3099   6095     1  0.0000000  1.0460000  1
   3089   3087   3099   6095     1  0.0000000  0.0000000  3
   3089   3087   3099   3100     1  0.0000000  0.6508444  3
   3089   3087   3099   3101     1  0.0000000  0.6508444  3
   3091   3090   3096   6072     1  0.0000000  1.0460000  1
   3091   3090   3096   6072     1  0.0000000  0.0000000  3
   3091   3090   3096   3097     1  0.0000000  0.6508444  3
   3091   3090   3096   3098     1  0.0000000  0.6508444  3
   3092   3090   3096   6072     1  0.0000000  1.0460000  1
   3092   3090   3096   6072     1  0.0000000  0.0000000  3
   3092   3090   3096   3097     1  0.0000000  0.6508444  3
   3092   3090   3096   3098     1  0.0000000  0.6508444  3
   3096   6072   6068   6071     1  0.0000000  1.6038667  3
   3097   3096   6072   6068     1  0.0000000  1.6038667  3
   3098   3096   6072   6068     1  0.0000000  1.6038667  3
   3099   6095   6091   6094     1  0.0000000  1.6038667  3
   3100   3099   6095   6091     1  0.0000000  1.6038667  3
   3101   3099   6095   6091     1  0.0000000  1.6038667  3
   3103   3104   3116   3117     1  0.0000000  0.6508444  3
   3103   3104   3116   3118     1  0.0000000  0.6508444  3
   3103   3107   3119   3120     1  0.0000000  0.6508444  3
   3103   3107   3119   3121     1  0.0000000  0.6508444  3
   3103   3110   3113   3114     1  0.0000000  0.6508444  3
   3103   3110   3113   3115     1  0.0000000  0.6508444  3
   3104   3103   3107   3108     1  0.0000000  1.2552000  3
   3104   3103   3107   3109     1  0.0000000  1.2552000  3
   3104   3103   3110   3111     1  0.0000000  1.2552000  3
   3104   3103   3110   3112     1  0.0000000  1.2552000  3
   3104   3116   3128   3129     1  0.0000000  0.6508444  3
   3104   3116   3128   3130     1  0.0000000  0.6508444  3
   3105   3104   3103   3107     1  0.0000000  1.2552000  3
   3105   3104   3103   3110     1  0.0000000  1.2552000  3
   3105   3104   3116   3128     1  0.0000000  0.6508444  3
   3105   3104   3116   3117     1  0.0000000  0.6508444  3
   3105   3104   3116   3118     1  0.0000000  0.6508444  3
   3106   3104   3103   3107     1  0.0000000  1.2552000  3
   3106   3104   3103   3110     1  0.0000000  1.2552000  3
   3106   3104   3116   3128     1  0.0000000  0.6508444  3
   3106   3104   3116   3117     1  0.0000000  0.6508444  3
   3106   3104   3116   3118     1  0.0000000  0.6508444  3
   3107   3103   3110   3111     1  0.0000000  1.2552000  3
   3107   3103   3110   3112     1  0.0000000  1.2552000  3
   3107   3119   3125   3126     1  0.0000000  0.6508444  3
   3107   3119   3125   3127     1  0.0000000  0.6508444  3
   3108   3107   3103   3110     1  0.0000000  1.2552000  3
   3108   3107   3119   3125     1  0.0000000  0.6508444  3
   3108   3107   3119   3120     1  0.0000000  0.6508444  3
   3108   3107   3119   3121     1  0.0000000  0.6508444  3
   3109   3107   3103   3110     1  0.0000000  1.2552000  3
   3109   3107   3119   3125     1  0.0000000  0.6508444  3
   3109   3107   3119   3120     1  0.0000000  0.6508444  3
   3109   3107   3119   3121     1  0.0000000  0.6508444  3
   3110   3113   3122   3123     1  0.0000000  0.6508444  3
   3110   3113   3122   3124     1  0.0000000  0.6508444  3
   3111   3110   3113   3122     1  0.0000000  0.6508444  3
   3111   3110   3113   3114     1  0.0000000  0.6508444  3
   3111   3110   3113   3115     1  0.0000000  0.6508444  3
   3112   3110   3113   3122     1  0.0000000  0.6508444  3
   3112   3110   3113   3114     1  0.0000000  0.6508444  3
   3112   3110   3113   3115     1  0.0000000  0.6508444  3
   3114   3113   3122   3131     1  0.0000000  1.0460000  1
   3114   3113   3122   3131     1  0.0000000  0.0000000  3
   3114   3113   3122   3123     1  0.0000000  0.6508444  3
   3114   3113   3122   3124     1  0.0000000  0.6508444  3
   3115   3113   3122   3131     1  0.0000000  1.0460000  1
   3115   3113   3122   3131     1  0.0000000  0.0000000  3
   3115   3113   3122   3123     1  0.0000000  0.6508444  3
   3115   3113   3122   3124     1  0.0000000  0.6508444  3
   3117   3116   3128   6141     1  0.0000000  1.0460000  1
   3117   3116   3128   6141     1  0.0000000  0.0000000  3
   3117   3116   3128   3129     1  0.0000000  0.6508444  3
   3117   3116   3128   3130     1  0.0000000  0.6508444  3
   3118   3116   3128   6141     1  0.0000000  1.0460000  1
   3118   3116   3128   6141     1  0.0000000  0.0000000  3
   3118   3116   3128   3129     1  0.0000000  0.6508444  3
   3118   3116   3128   3130     1  0.0000000  0.6508444  3
   3120   3119   3125   6118     1  0.0000000  1.0460000  1
   3120   3119   3125   6118     1  0.0000000  0.0000000  3
   3120   3119   3125   3126     1  0.0000000  0.6508444  3
   3120   3119   3125   3127     1  0.0000000  0.6508444  3
   3121   3119   3125   6118     1  0.0000000  1.0460000  1
   3121   3119   3125   6118     1  0.0000000  0.0000000  3
   3121   3119   3125   3126     1  0.0000000  0.6508444  3
   3121   3119   3125   3127     1  0.0000000  0.6508444  3
   3125   6118   6114   6117     1  0.0000000  1.6038667  3
   3126   3125   6118   6114     1  0.0000000  1.6038667  3
   3127   3125   6118   6114     1  0.0000000  1.6038667  3
   3128   6141   6137   6140     1  0.0000000  1.6038667  3
   3129   3128   6141   6137     1  0.0000000  1.6038667  3
   3130   3128   6141   6137     1  0.0000000  1.6038667  3
   3132   3133   3145   3146     1  0.0000000  0.6508444  3
   3132   3133   3145   3147     1  0.0000000  0.6508444  3
   3132   3136   3148   3149     1  0.0000000  0.6508444  3
   3132   3136   3148   3150     1  0.0000000  0.6508444  3
   3132   3139   3142   3143     1  0.0000000  0.6508444  3
   3132   3139   3142   3144     1  0.0000000  0.6508444  3
   3133   3132   3136   3137     1  0.0000000  1.2552000  3
   3133   3132   3136   3138     1  0.0000000  1.2552000  3
   3133   3132   3139   3140     1  0.0000000  1.2552000  3
   3133   3132   3139   3141     1  0.0000000  1.2552000  3
   3133   3145   3157   3158     1  0.0000000  0.6508444  3
   3133   3145   3157   3159     1  0.0000000  0.6508444  3
   3134   3133   3132   3136     1  0.0000000  1.2552000  3
   3134   3133   3132   3139     1  0.0000000  1.2552000  3
   3134   3133   3145   3157     1  0.0000000  0.6508444  3
   3134   3133   3145   3146     1  0.0000000  0.6508444  3
   3134   3133   3145   3147     1  0.0000000  0.6508444  3
   3135   3133   3132   3136     1  0.0000000  1.2552000  3
   3135   3133   3132   3139     1  0.0000000  1.2552000  3
   3135   3133   3145   3157     1  0.0000000  0.6508444  3
   3135   3133   3145   3146     1  0.0000000  0.6508444  3
   3135   3133   3145   3147     1  0.0000000  0.6508444  3
   3136   3132   3139   3140     1  0.0000000  1.2552000  3
   3136   3132   3139   3141     1  0.0000000  1.2552000  3
   3136   3148   3154   3155     1  0.0000000  0.6508444  3
   3136   3148   3154   3156     1  0.0000000  0.6508444  3
   3137   3136   3132   3139     1  0.0000000  1.2552000  3
   3137   3136   3148   3154     1  0.0000000  0.6508444  3
   3137   3136   3148   3149     1  0.0000000  0.6508444  3
   3137   3136   3148   3150     1  0.0000000  0.6508444  3
   3138   3136   3132   3139     1  0.0000000  1.2552000  3
   3138   3136   3148   3154     1  0.0000000  0.6508444  3
   3138   3136   3148   3149     1  0.0000000  0.6508444  3
   3138   3136   3148   3150     1  0.0000000  0.6508444  3
   3139   3142   3151   3152     1  0.0000000  0.6508444  3
   3139   3142   3151   3153     1  0.0000000  0.6508444  3
   3140   3139   3142   3151     1  0.0000000  0.6508444  3
   3140   3139   3142   3143     1  0.0000000  0.6508444  3
   3140   3139   3142   3144     1  0.0000000  0.6508444  3
   3141   3139   3142   3151     1  0.0000000  0.6508444  3
   3141   3139   3142   3143     1  0.0000000  0.6508444  3
   3141   3139   3142   3144     1  0.0000000  0.6508444  3
   3143   3142   3151   3160     1  0.0000000  1.0460000  1
   3143   3142   3151   3160     1  0.0000000  0.0000000  3
   3143   3142   3151   3152     1  0.0000000  0.6508444  3
   3143   3142   3151   3153     1  0.0000000  0.6508444  3
   3144   3142   3151   3160     1  0.0000000  1.0460000  1
   3144   3142   3151   3160     1  0.0000000  0.0000000  3
   3144   3142   3151   3152     1  0.0000000  0.6508444  3
   3144   3142   3151   3153     1  0.0000000  0.6508444  3
   3146   3145   3157   6187     1  0.0000000  1.0460000  1
   3146   3145   3157   6187     1  0.0000000  0.0000000  3
   3146   3145   3157   3158     1  0.0000000  0.6508444  3
   3146   3145   3157   3159     1  0.0000000  0.6508444  3
   3147   3145   3157   6187     1  0.0000000  1.0460000  1
   3147   3145   3157   6187     1  0.0000000  0.0000000  3
   3147   3145   3157   3158     1  0.0000000  0.6508444  3
   3147   3145   3157   3159     1  0.0000000  0.6508444  3
   3149   3148   3154   6164     1  0.0000000  1.0460000  1
   3149   3148   3154   6164     1  0.0000000  0.0000000  3
   3149   3148   3154   3155     1  0.0000000  0.6508444  3
   3149   3148   3154   3156     1  0.0000000  0.6508444  3
   3150   3148   3154   6164     1  0.0000000  1.0460000  1
   3150   3148   3154   6164     1  0.0000000  0.0000000  3
   3150   3148   3154   3155     1  0.0000000  0.6508444  3
   3150   3148   3154   3156     1  0.0000000  0.6508444  3
   3154   6164   6160   6163     1  0.0000000  1.6038667  3
   3155   3154   6164   6160     1  0.0000000  1.6038667  3
   3156   3154   6164   6160     1  0.0000000  1.6038667  3
   3157   6187   6183   6186     1  0.0000000  1.6038667  3
   3158   3157   6187   6183     1  0.0000000  1.6038667  3
   3159   3157   6187   6183     1  0.0000000  1.6038667  3
   3161   3162   3174   3175     1  0.0000000  0.6508444  3
   3161   3162   3174   3176     1  0.0000000  0.6508444  3
   3161   3165   3177   3178     1  0.0000000  0.6508444  3
   3161   3165   3177   3179     1  0.0000000  0.6508444  3
   3161   3168   3171   3172     1  0.0000000  0.6508444  3
   3161   3168   3171   3173     1  0.0000000  0.6508444  3
   3162   3161   3165   3166     1  0.0000000  1.2552000  3
   3162   3161   3165   3167     1  0.0000000  1.2552000  3
   3162   3161   3168   3169     1  0.0000000  1.2552000  3
   3162   3161   3168   3170     1  0.0000000  1.2552000  3
   3162   3174   3186   3187     1  0.0000000  0.6508444  3
   3162   3174   3186   3188     1  0.0000000  0.6508444  3
   3163   3162   3161   3165     1  0.0000000  1.2552000  3
   3163   3162   3161   3168     1  0.0000000  1.2552000  3
   3163   3162   3174   3186     1  0.0000000  0.6508444  3
   3163   3162   3174   3175     1  0.0000000  0.6508444  3
   3163   3162   3174   3176     1  0.0000000  0.6508444  3
   3164   3162   3161   3165     1  0.0000000  1.2552000  3
   3164   3162   3161   3168     1  0.0000000  1.2552000  3
   3164   3162   3174   3186     1  0.0000000  0.6508444  3
   3164   3162   3174   3175     1  0.0000000  0.6508444  3
   3164   3162   3174   3176     1  0.0000000  0.6508444  3
   3165   3161   3168   3169     1  0.0000000  1.2552000  3
   3165   3161   3168   3170     1  0.0000000  1.2552000  3
   3165   3177   3183   3184     1  0.0000000  0.6508444  3
   3165   3177   3183   3185     1  0.0000000  0.6508444  3
   3166   3165   3161   3168     1  0.0000000  1.2552000  3
   3166   3165   3177   3183     1  0.0000000  0.6508444  3
   3166   3165   3177   3178     1  0.0000000  0.6508444  3
   3166   3165   3177   3179     1  0.0000000  0.6508444  3
   3167   3165   3161   3168     1  0.0000000  1.2552000  3
   3167   3165   3177   3183     1  0.0000000  0.6508444  3
   3167   3165   3177   3178     1  0.0000000  0.6508444  3
   3167   3165   3177   3179     1  0.0000000  0.6508444  3
   3168   3171   3180   3181     1  0.0000000  0.6508444  3
   3168   3171   3180   3182     1  0.0000000  0.6508444  3
   3169   3168   3171   3180     1  0.0000000  0.6508444  3
   3169   3168   3171   3172     1  0.0000000  0.6508444  3
   3169   3168   3171   3173     1  0.0000000  0.6508444  3
   3170   3168   3171   3180     1  0.0000000  0.6508444  3
   3170   3168   3171   3172     1  0.0000000  0.6508444  3
   3170   3168   3171   3173     1  0.0000000  0.6508444  3
   3172   3171   3180   3189     1  0.0000000  1.0460000  1
   3172   3171   3180   3189     1  0.0000000  0.0000000  3
   3172   3171   3180   3181     1  0.0000000  0.6508444  3
   3172   3171   3180   3182     1  0.0000000  0.6508444  3
   3173   3171   3180   3189     1  0.0000000  1.0460000  1
   3173   3171   3180   3189     1  0.0000000  0.0000000  3
   3173   3171   3180   3181     1  0.0000000  0.6508444  3
   3173   3171   3180   3182     1  0.0000000  0.6508444  3
   3175   3174   3186   6233     1  0.0000000  1.0460000  1
   3175   3174   3186   6233     1  0.0000000  0.0000000  3
   3175   3174   3186   3187     1  0.0000000  0.6508444  3
   3175   3174   3186   3188     1  0.0000000  0.6508444  3
   3176   3174   3186   6233     1  0.0000000  1.0460000  1
   3176   3174   3186   6233     1  0.0000000  0.0000000  3
   3176   3174   3186   3187     1  0.0000000  0.6508444  3
   3176   3174   3186   3188     1  0.0000000  0.6508444  3
   3178   3177   3183   6210     1  0.0000000  1.0460000  1
   3178   3177   3183   6210     1  0.0000000  0.0000000  3
   3178   3177   3183   3184     1  0.0000000  0.6508444  3
   3178   3177   3183   3185     1  0.0000000  0.6508444  3
   3179   3177   3183   6210     1  0.0000000  1.0460000  1
   3179   3177   3183   6210     1  0.0000000  0.0000000  3
   3179   3177   3183   3184     1  0.0000000  0.6508444  3
   3179   3177   3183   3185     1  0.0000000  0.6508444  3
   3183   6210   6206   6209     1  0.0000000  1.6038667  3
   3184   3183   6210   6206     1  0.0000000  1.6038667  3
   3185   3183   6210   6206     1  0.0000000  1.6038667  3
   3186   6233   6229   6232     1  0.0000000  1.6038667  3
   3187   3186   6233   6229     1  0.0000000  1.6038667  3
   3188   3186   6233   6229     1  0.0000000  1.6038667  3
   3190   3191   3203   3204     1  0.0000000  0.6508444  3
   3190   3191   3203   3205     1  0.0000000  0.6508444  3
   3190   3194   3206   3207     1  0.0000000  0.6508444  3
   3190   3194   3206   3208     1  0.0000000  0.6508444  3
   3190   3197   3200   3201     1  0.0000000  0.6508444  3
   3190   3197   3200   3202     1  0.0000000  0.6508444  3
   3191   3190   3194   3195     1  0.0000000  1.2552000  3
   3191   3190   3194   3196     1  0.0000000  1.2552000  3
   3191   3190   3197   3198     1  0.0000000  1.2552000  3
   3191   3190   3197   3199     1  0.0000000  1.2552000  3
   3191   3203   3215   3216     1  0.0000000  0.6508444  3
   3191   3203   3215   3217     1  0.0000000  0.6508444  3
   3192   3191   3190   3194     1  0.0000000  1.2552000  3
   3192   3191   3190   3197     1  0.0000000  1.2552000  3
   3192   3191   3203   3215     1  0.0000000  0.6508444  3
   3192   3191   3203   3204     1  0.0000000  0.6508444  3
   3192   3191   3203   3205     1  0.0000000  0.6508444  3
   3193   3191   3190   3194     1  0.0000000  1.2552000  3
   3193   3191   3190   3197     1  0.0000000  1.2552000  3
   3193   3191   3203   3215     1  0.0000000  0.6508444  3
   3193   3191   3203   3204     1  0.0000000  0.6508444  3
   3193   3191   3203   3205     1  0.0000000  0.6508444  3
   3194   3190   3197   3198     1  0.0000000  1.2552000  3
   3194   3190   3197   3199     1  0.0000000  1.2552000  3
   3194   3206   3212   3213     1  0.0000000  0.6508444  3
   3194   3206   3212   3214     1  0.0000000  0.6508444  3
   3195   3194   3190   3197     1  0.0000000  1.2552000  3
   3195   3194   3206   3212     1  0.0000000  0.6508444  3
   3195   3194   3206   3207     1  0.0000000  0.6508444  3
   3195   3194   3206   3208     1  0.0000000  0.6508444  3
   3196   3194   3190   3197     1  0.0000000  1.2552000  3
   3196   3194   3206   3212     1  0.0000000  0.6508444  3
   3196   3194   3206   3207     1  0.0000000  0.6508444  3
   3196   3194   3206   3208     1  0.0000000  0.6508444  3
   3197   3200   3209   3210     1  0.0000000  0.6508444  3
   3197   3200   3209   3211     1  0.0000000  0.6508444  3
   3198   3197   3200   3209     1  0.0000000  0.6508444  3
   3198   3197   3200   3201     1  0.0000000  0.6508444  3
   3198   3197   3200   3202     1  0.0000000  0.6508444  3
   3199   3197   3200   3209     1  0.0000000  0.6508444  3
   3199   3197   3200   3201     1  0.0000000  0.6508444  3
   3199   3197   3200   3202     1  0.0000000  0.6508444  3
   3201   3200   3209   3218     1  0.0000000  1.0460000  1
   3201   3200   3209   3218     1  0.0000000  0.0000000  3
   3201   3200   3209   3210     1  0.0000000  0.6508444  3
   3201   3200   3209   3211     1  0.0000000  0.6508444  3
   3202   3200   3209   3218     1  0.0000000  1.0460000  1
   3202   3200   3209   3218     1  0.0000000  0.0000000  3
   3202   3200   3209   3210     1  0.0000000  0.6508444  3
   3202   3200   3209   3211     1  0.0000000  0.6508444  3
   3204   3203   3215   6279     1  0.0000000  1.0460000  1
   3204   3203   3215   6279     1  0.0000000  0.0000000  3
   3204   3203   3215   3216     1  0.0000000  0.6508444  3
   3204   3203   3215   3217     1  0.0000000  0.6508444  3
   3205   3203   3215   6279     1  0.0000000  1.0460000  1
   3205   3203   3215   6279     1  0.0000000  0.0000000  3
   3205   3203   3215   3216     1  0.0000000  0.6508444  3
   3205   3203   3215   3217     1  0.0000000  0.6508444  3
   3207   3206   3212   6256     1  0.0000000  1.0460000  1
   3207   3206   3212   6256     1  0.0000000  0.0000000  3
   3207   3206   3212   3213     1  0.0000000  0.6508444  3
   3207   3206   3212   3214     1  0.0000000  0.6508444  3
   3208   3206   3212   6256     1  0.0000000  1.0460000  1
   3208   3206   3212   6256     1  0.0000000  0.0000000  3
   3208   3206   3212   3213     1  0.0000000  0.6508444  3
   3208   3206   3212   3214     1  0.0000000  0.6508444  3
   3212   6256   6252   6255     1  0.0000000  1.6038667  3
   3213   3212   6256   6252     1  0.0000000  1.6038667  3
   3214   3212   6256   6252     1  0.0000000  1.6038667  3
   3215   6279   6275   6278     1  0.0000000  1.6038667  3
   3216   3215   6279   6275     1  0.0000000  1.6038667  3
   3217   3215   6279   6275     1  0.0000000  1.6038667  3
   3219   3220   3232   3233     1  0.0000000  0.6508444  3
   3219   3220   3232   3234     1  0.0000000  0.6508444  3
   3219   3223   3235   3236     1  0.0000000  0.6508444  3
   3219   3223   3235   3237     1  0.0000000  0.6508444  3
   3219   3226   3229   3230     1  0.0000000  0.6508444  3
   3219   3226   3229   3231     1  0.0000000  0.6508444  3
   3220   3219   3223   3224     1  0.0000000  1.2552000  3
   3220   3219   3223   3225     1  0.0000000  1.2552000  3
   3220   3219   3226   3227     1  0.0000000  1.2552000  3
   3220   3219   3226   3228     1  0.0000000  1.2552000  3
   3220   3232   3244   3245     1  0.0000000  0.6508444  3
   3220   3232   3244   3246     1  0.0000000  0.6508444  3
   3221   3220   3219   3223     1  0.0000000  1.2552000  3
   3221   3220   3219   3226     1  0.0000000  1.2552000  3
   3221   3220   3232   3244     1  0.0000000  0.6508444  3
   3221   3220   3232   3233     1  0.0000000  0.6508444  3
   3221   3220   3232   3234     1  0.0000000  0.6508444  3
   3222   3220   3219   3223     1  0.0000000  1.2552000  3
   3222   3220   3219   3226     1  0.0000000  1.2552000  3
   3222   3220   3232   3244     1  0.0000000  0.6508444  3
   3222   3220   3232   3233     1  0.0000000  0.6508444  3
   3222   3220   3232   3234     1  0.0000000  0.6508444  3
   3223   3219   3226   3227     1  0.0000000  1.2552000  3
   3223   3219   3226   3228     1  0.0000000  1.2552000  3
   3223   3235   3241   3242     1  0.0000000  0.6508444  3
   3223   3235   3241   3243     1  0.0000000  0.6508444  3
   3224   3223   3219   3226     1  0.0000000  1.2552000  3
   3224   3223   3235   3241     1  0.0000000  0.6508444  3
   3224   3223   3235   3236     1  0.0000000  0.6508444  3
   3224   3223   3235   3237     1  0.0000000  0.6508444  3
   3225   3223   3219   3226     1  0.0000000  1.2552000  3
   3225   3223   3235   3241     1  0.0000000  0.6508444  3
   3225   3223   3235   3236     1  0.0000000  0.6508444  3
   3225   3223   3235   3237     1  0.0000000  0.6508444  3
   3226   3229   3238   3239     1  0.0000000  0.6508444  3
   3226   3229   3238   3240     1  0.0000000  0.6508444  3
   3227   3226   3229   3238     1  0.0000000  0.6508444  3
   3227   3226   3229   3230     1  0.0000000  0.6508444  3
   3227   3226   3229   3231     1  0.0000000  0.6508444  3
   3228   3226   3229   3238     1  0.0000000  0.6508444  3
   3228   3226   3229   3230     1  0.0000000  0.6508444  3
   3228   3226   3229   3231     1  0.0000000  0.6508444  3
   3230   3229   3238   3247     1  0.0000000  1.0460000  1
   3230   3229   3238   3247     1  0.0000000  0.0000000  3
   3230   3229   3238   3239     1  0.0000000  0.6508444  3
   3230   3229   3238   3240     1  0.0000000  0.6508444  3
   3231   3229   3238   3247     1  0.0000000  1.0460000  1
   3231   3229   3238   3247     1  0.0000000  0.0000000  3
   3231   3229   3238   3239     1  0.0000000  0.6508444  3
   3231   3229   3238   3240     1  0.0000000  0.6508444  3
   3233   3232   3244   6325     1  0.0000000  1.0460000  1
   3233   3232   3244   6325     1  0.0000000  0.0000000  3
   3233   3232   3244   3245     1  0.0000000  0.6508444  3
   3233   3232   3244   3246     1  0.0000000  0.6508444  3
   3234   3232   3244   6325     1  0.0000000  1.0460000  1
   3234   3232   3244   6325     1  0.0000000  0.0000000  3
   3234   3232   3244   3245     1  0.0000000  0.6508444  3
   3234   3232   3244   3246     1  0.0000000  0.6508444  3
   3236   3235   3241   6302     1  0.0000000  1.0460000  1
   3236   3235   3241   6302     1  0.0000000  0.0000000  3
   3236   3235   3241   3242     1  0.0000000  0.6508444  3
   3236   3235   3241   3243     1  0.0000000  0.6508444  3
   3237   3235   3241   6302     1  0.0000000  1.0460000  1
   3237   3235   3241   6302     1  0.0000000  0.0000000  3
   3237   3235   3241   3242     1  0.0000000  0.6508444  3
   3237   3235   3241   3243     1  0.0000000  0.6508444  3
   3241   6302   6298   6301     1  0.0000000  1.6038667  3
   3242   3241   6302   6298     1  0.0000000  1.6038667  3
   3243   3241   6302   6298     1  0.0000000  1.6038667  3
   3244   6325   6321   6324     1  0.0000000  1.6038667  3
   3245   3244   6325   6321     1  0.0000000  1.6038667  3
   3246   3244   6325   6321     1  0.0000000  1.6038667  3
   3248   3249   3261   3262     1  0.0000000  0.6508444  3
   3248   3249   3261   3263     1  0.0000000  0.6508444  3
   3248   3252   3264   3265     1  0.0000000  0.6508444  3
   3248   3252   3264   3266     1  0.0000000  0.6508444  3
   3248   3255   3258   3259     1  0.0000000  0.6508444  3
   3248   3255   3258   3260     1  0.0000000  0.6508444  3
   3249   3248   3252   3253     1  0.0000000  1.2552000  3
   3249   3248   3252   3254     1  0.0000000  1.2552000  3
   3249   3248   3255   3256     1  0.0000000  1.2552000  3
   3249   3248   3255   3257     1  0.0000000  1.2552000  3
   3249   3261   3273   3274     1  0.0000000  0.6508444  3
   3249   3261   3273   3275     1  0.0000000  0.6508444  3
   3250   3249   3248   3252     1  0.0000000  1.2552000  3
   3250   3249   3248   3255     1  0.0000000  1.2552000  3
   3250   3249   3261   3273     1  0.0000000  0.6508444  3
   3250   3249   3261   3262     1  0.0000000  0.6508444  3
   3250   3249   3261   3263     1  0.0000000  0.6508444  3
   3251   3249   3248   3252     1  0.0000000  1.2552000  3
   3251   3249   3248   3255     1  0.0000000  1.2552000  3
   3251   3249   3261   3273     1  0.0000000  0.6508444  3
   3251   3249   3261   3262     1  0.0000000  0.6508444  3
   3251   3249   3261   3263     1  0.0000000  0.6508444  3
   3252   3248   3255   3256     1  0.0000000  1.2552000  3
   3252   3248   3255   3257     1  0.0000000  1.2552000  3
   3252   3264   3270   3271     1  0.0000000  0.6508444  3
   3252   3264   3270   3272     1  0.0000000  0.6508444  3
   3253   3252   3248   3255     1  0.0000000  1.2552000  3
   3253   3252   3264   3270     1  0.0000000  0.6508444  3
   3253   3252   3264   3265     1  0.0000000  0.6508444  3
   3253   3252   3264   3266     1  0.0000000  0.6508444  3
   3254   3252   3248   3255     1  0.0000000  1.2552000  3
   3254   3252   3264   3270     1  0.0000000  0.6508444  3
   3254   3252   3264   3265     1  0.0000000  0.6508444  3
   3254   3252   3264   3266     1  0.0000000  0.6508444  3
   3255   3258   3267   3268     1  0.0000000  0.6508444  3
   3255   3258   3267   3269     1  0.0000000  0.6508444  3
   3256   3255   3258   3267     1  0.0000000  0.6508444  3
   3256   3255   3258   3259     1  0.0000000  0.6508444  3
   3256   3255   3258   3260     1  0.0000000  0.6508444  3
   3257   3255   3258   3267     1  0.0000000  0.6508444  3
   3257   3255   3258   3259     1  0.0000000  0.6508444  3
   3257   3255   3258   3260     1  0.0000000  0.6508444  3
   3259   3258   3267   3276     1  0.0000000  1.0460000  1
   3259   3258   3267   3276     1  0.0000000  0.0000000  3
   3259   3258   3267   3268     1  0.0000000  0.6508444  3
   3259   3258   3267   3269     1  0.0000000  0.6508444  3
   3260   3258   3267   3276     1  0.0000000  1.0460000  1
   3260   3258   3267   3276     1  0.0000000  0.0000000  3
   3260   3258   3267   3268     1  0.0000000  0.6508444  3
   3260   3258   3267   3269     1  0.0000000  0.6508444  3
   3262   3261   3273   6371     1  0.0000000  1.0460000  1
   3262   3261   3273   6371     1  0.0000000  0.0000000  3
   3262   3261   3273   3274     1  0.0000000  0.6508444  3
   3262   3261   3273   3275     1  0.0000000  0.6508444  3
   3263   3261   3273   6371     1  0.0000000  1.0460000  1
   3263   3261   3273   6371     1  0.0000000  0.0000000  3
   3263   3261   3273   3274     1  0.0000000  0.6508444  3
   3263   3261   3273   3275     1  0.0000000  0.6508444  3
   3265   3264   3270   6348     1  0.0000000  1.0460000  1
   3265   3264   3270   6348     1  0.0000000  0.0000000  3
   3265   3264   3270   3271     1  0.0000000  0.6508444  3
   3265   3264   3270   3272     1  0.0000000  0.6508444  3
   3266   3264   3270   6348     1  0.0000000  1.0460000  1
   3266   3264   3270   6348     1  0.0000000  0.0000000  3
   3266   3264   3270   3271     1  0.0000000  0.6508444  3
   3266   3264   3270   3272     1  0.0000000  0.6508444  3
   3270   6348   6344   6347     1  0.0000000  1.6038667  3
   3271   3270   6348   6344     1  0.0000000  1.6038667  3
   3272   3270   6348   6344     1  0.0000000  1.6038667  3
   3273   6371   6367   6370     1  0.0000000  1.6038667  3
   3274   3273   6371   6367     1  0.0000000  1.6038667  3
   3275   3273   6371   6367     1  0.0000000  1.6038667  3
   3277   3278   3290   3291     1  0.0000000  0.6508444  3
   3277   3278   3290   3292     1  0.0000000  0.6508444  3
   3277   3281   3293   3294     1  0.0000000  0.6508444  3
   3277   3281   3293   3295     1  0.0000000  0.6508444  3
   3277   3284   3287   3288     1  0.0000000  0.6508444  3
   3277   3284   3287   3289     1  0.0000000  0.6508444  3
   3278   3277   3281   3282     1  0.0000000  1.2552000  3
   3278   3277   3281   3283     1  0.0000000  1.2552000  3
   3278   3277   3284   3285     1  0.0000000  1.2552000  3
   3278   3277   3284   3286     1  0.0000000  1.2552000  3
   3278   3290   3302   3303     1  0.0000000  0.6508444  3
   3278   3290   3302   3304     1  0.0000000  0.6508444  3
   3279   3278   3277   3281     1  0.0000000  1.2552000  3
   3279   3278   3277   3284     1  0.0000000  1.2552000  3
   3279   3278   3290   3302     1  0.0000000  0.6508444  3
   3279   3278   3290   3291     1  0.0000000  0.6508444  3
   3279   3278   3290   3292     1  0.0000000  0.6508444  3
   3280   3278   3277   3281     1  0.0000000  1.2552000  3
   3280   3278   3277   3284     1  0.0000000  1.2552000  3
   3280   3278   3290   3302     1  0.0000000  0.6508444  3
   3280   3278   3290   3291     1  0.0000000  0.6508444  3
   3280   3278   3290   3292     1  0.0000000  0.6508444  3
   3281   3277   3284   3285     1  0.0000000  1.2552000  3
   3281   3277   3284   3286     1  0.0000000  1.2552000  3
   3281   3293   3299   3300     1  0.0000000  0.6508444  3
   3281   3293   3299   3301     1  0.0000000  0.6508444  3
   3282   3281   3277   3284     1  0.0000000  1.2552000  3
   3282   3281   3293   3299     1  0.0000000  0.6508444  3
   3282   3281   3293   3294     1  0.0000000  0.6508444  3
   3282   3281   3293   3295     1  0.0000000  0.6508444  3
   3283   3281   3277   3284     1  0.0000000  1.2552000  3
   3283   3281   3293   3299     1  0.0000000  0.6508444  3
   3283   3281   3293   3294     1  0.0000000  0.6508444  3
   3283   3281   3293   3295     1  0.0000000  0.6508444  3
   3284   3287   3296   3297     1  0.0000000  0.6508444  3
   3284   3287   3296   3298     1  0.0000000  0.6508444  3
   3285   3284   3287   3296     1  0.0000000  0.6508444  3
   3285   3284   3287   3288     1  0.0000000  0.6508444  3
   3285   3284   3287   3289     1  0.0000000  0.6508444  3
   3286   3284   3287   3296     1  0.0000000  0.6508444  3
   3286   3284   3287   3288     1  0.0000000  0.6508444  3
   3286   3284   3287   3289     1  0.0000000  0.6508444  3
   3288   3287   3296   3305     1  0.0000000  1.0460000  1
   3288   3287   3296   3305     1  0.0000000  0.0000000  3
   3288   3287   3296   3297     1  0.0000000  0.6508444  3
   3288   3287   3296   3298     1  0.0000000  0.6508444  3
   3289   3287   3296   3305     1  0.0000000  1.0460000  1
   3289   3287   3296   3305     1  0.0000000  0.0000000  3
   3289   3287   3296   3297     1  0.0000000  0.6508444  3
   3289   3287   3296   3298     1  0.0000000  0.6508444  3
   3291   3290   3302   6417     1  0.0000000  1.0460000  1
   3291   3290   3302   6417     1  0.0000000  0.0000000  3
   3291   3290   3302   3303     1  0.0000000  0.6508444  3
   3291   3290   3302   3304     1  0.0000000  0.6508444  3
   3292   3290   3302   6417     1  0.0000000  1.0460000  1
   3292   3290   3302   6417     1  0.0000000  0.0000000  3
   3292   3290   3302   3303     1  0.0000000  0.6508444  3
   3292   3290   3302   3304     1  0.0000000  0.6508444  3
   3294   3293   3299   6394     1  0.0000000  1.0460000  1
   3294   3293   3299   6394     1  0.0000000  0.0000000  3
   3294   3293   3299   3300     1  0.0000000  0.6508444  3
   3294   3293   3299   3301     1  0.0000000  0.6508444  3
   3295   3293   3299   6394     1  0.0000000  1.0460000  1
   3295   3293   3299   6394     1  0.0000000  0.0000000  3
   3295   3293   3299   3300     1  0.0000000  0.6508444  3
   3295   3293   3299   3301     1  0.0000000  0.6508444  3
   3299   6394   6390   6393     1  0.0000000  1.6038667  3
   3300   3299   6394   6390     1  0.0000000  1.6038667  3
   3301   3299   6394   6390     1  0.0000000  1.6038667  3
   3302   6417   6413   6416     1  0.0000000  1.6038667  3
   3303   3302   6417   6413     1  0.0000000  1.6038667  3
   3304   3302   6417   6413     1  0.0000000  1.6038667  3
   3306   3307   3319   3320     1  0.0000000  0.6508444  3
   3306   3307   3319   3321     1  0.0000000  0.6508444  3
   3306   3310   3322   3323     1  0.0000000  0.6508444  3
   3306   3310   3322   3324     1  0.0000000  0.6508444  3
   3306   3313   3316   3317     1  0.0000000  0.6508444  3
   3306   3313   3316   3318     1  0.0000000  0.6508444  3
   3307   3306   3310   3311     1  0.0000000  1.2552000  3
   3307   3306   3310   3312     1  0.0000000  1.2552000  3
   3307   3306   3313   3314     1  0.0000000  1.2552000  3
   3307   3306   3313   3315     1  0.0000000  1.2552000  3
   3307   3319   3331   3332     1  0.0000000  0.6508444  3
   3307   3319   3331   3333     1  0.0000000  0.6508444  3
   3308   3307   3306   3310     1  0.0000000  1.2552000  3
   3308   3307   3306   3313     1  0.0000000  1.2552000  3
   3308   3307   3319   3331     1  0.0000000  0.6508444  3
   3308   3307   3319   3320     1  0.0000000  0.6508444  3
   3308   3307   3319   3321     1  0.0000000  0.6508444  3
   3309   3307   3306   3310     1  0.0000000  1.2552000  3
   3309   3307   3306   3313     1  0.0000000  1.2552000  3
   3309   3307   3319   3331     1  0.0000000  0.6508444  3
   3309   3307   3319   3320     1  0.0000000  0.6508444  3
   3309   3307   3319   3321     1  0.0000000  0.6508444  3
   3310   3306   3313   3314     1  0.0000000  1.2552000  3
   3310   3306   3313   3315     1  0.0000000  1.2552000  3
   3310   3322   3328   3329     1  0.0000000  0.6508444  3
   3310   3322   3328   3330     1  0.0000000  0.6508444  3
   3311   3310   3306   3313     1  0.0000000  1.2552000  3
   3311   3310   3322   3328     1  0.0000000  0.6508444  3
   3311   3310   3322   3323     1  0.0000000  0.6508444  3
   3311   3310   3322   3324     1  0.0000000  0.6508444  3
   3312   3310   3306   3313     1  0.0000000  1.2552000  3
   3312   3310   3322   3328     1  0.0000000  0.6508444  3
   3312   3310   3322   3323     1  0.0000000  0.6508444  3
   3312   3310   3322   3324     1  0.0000000  0.6508444  3
   3313   3316   3325   3326     1  0.0000000  0.6508444  3
   3313   3316   3325   3327     1  0.0000000  0.6508444  3
   3314   3313   3316   3325     1  0.0000000  0.6508444  3
   3314   3313   3316   3317     1  0.0000000  0.6508444  3
   3314   3313   3316   3318     1  0.0000000  0.6508444  3
   3315   3313   3316   3325     1  0.0000000  0.6508444  3
   3315   3313   3316   3317     1  0.0000000  0.6508444  3
   3315   3313   3316   3318     1  0.0000000  0.6508444  3
   3317   3316   3325   3334     1  0.0000000  1.0460000  1
   3317   3316   3325   3334     1  0.0000000  0.0000000  3
   3317   3316   3325   3326     1  0.0000000  0.6508444  3
   3317   3316   3325   3327     1  0.0000000  0.6508444  3
   3318   3316   3325   3334     1  0.0000000  1.0460000  1
   3318   3316   3325   3334     1  0.0000000  0.0000000  3
   3318   3316   3325   3326     1  0.0000000  0.6508444  3
   3318   3316   3325   3327     1  0.0000000  0.6508444  3
   3320   3319   3331   6463     1  0.0000000  1.0460000  1
   3320   3319   3331   6463     1  0.0000000  0.0000000  3
   3320   3319   3331   3332     1  0.0000000  0.6508444  3
   3320   3319   3331   3333     1  0.0000000  0.6508444  3
   3321   3319   3331   6463     1  0.0000000  1.0460000  1
   3321   3319   3331   6463     1  0.0000000  0.0000000  3
   3321   3319   3331   3332     1  0.0000000  0.6508444  3
   3321   3319   3331   3333     1  0.0000000  0.6508444  3
   3323   3322   3328   6440     1  0.0000000  1.0460000  1
   3323   3322   3328   6440     1  0.0000000  0.0000000  3
   3323   3322   3328   3329     1  0.0000000  0.6508444  3
   3323   3322   3328   3330     1  0.0000000  0.6508444  3
   3324   3322   3328   6440     1  0.0000000  1.0460000  1
   3324   3322   3328   6440     1  0.0000000  0.0000000  3
   3324   3322   3328   3329     1  0.0000000  0.6508444  3
   3324   3322   3328   3330     1  0.0000000  0.6508444  3
   3328   6440   6436   6439     1  0.0000000  1.6038667  3
   3329   3328   6440   6436     1  0.0000000  1.6038667  3
   3330   3328   6440   6436     1  0.0000000  1.6038667  3
   3331   6463   6459   6462     1  0.0000000  1.6038667  3
   3332   3331   6463   6459     1  0.0000000  1.6038667  3
   3333   3331   6463   6459     1  0.0000000  1.6038667  3
   3335   3336   3348   3349     1  0.0000000  0.6508444  3
   3335   3336   3348   3350     1  0.0000000  0.6508444  3
   3335   3339   3351   3352     1  0.0000000  0.6508444  3
   3335   3339   3351   3353     1  0.0000000  0.6508444  3
   3335   3342   3345   3346     1  0.0000000  0.6508444  3
   3335   3342   3345   3347     1  0.0000000  0.6508444  3
   3336   3335   3339   3340     1  0.0000000  1.2552000  3
   3336   3335   3339   3341     1  0.0000000  1.2552000  3
   3336   3335   3342   3343     1  0.0000000  1.2552000  3
   3336   3335   3342   3344     1  0.0000000  1.2552000  3
   3336   3348   3360   3361     1  0.0000000  0.6508444  3
   3336   3348   3360   3362     1  0.0000000  0.6508444  3
   3337   3336   3335   3339     1  0.0000000  1.2552000  3
   3337   3336   3335   3342     1  0.0000000  1.2552000  3
   3337   3336   3348   3360     1  0.0000000  0.6508444  3
   3337   3336   3348   3349     1  0.0000000  0.6508444  3
   3337   3336   3348   3350     1  0.0000000  0.6508444  3
   3338   3336   3335   3339     1  0.0000000  1.2552000  3
   3338   3336   3335   3342     1  0.0000000  1.2552000  3
   3338   3336   3348   3360     1  0.0000000  0.6508444  3
   3338   3336   3348   3349     1  0.0000000  0.6508444  3
   3338   3336   3348   3350     1  0.0000000  0.6508444  3
   3339   3335   3342   3343     1  0.0000000  1.2552000  3
   3339   3335   3342   3344     1  0.0000000  1.2552000  3
   3339   3351   3357   3358     1  0.0000000  0.6508444  3
   3339   3351   3357   3359     1  0.0000000  0.6508444  3
   3340   3339   3335   3342     1  0.0000000  1.2552000  3
   3340   3339   3351   3357     1  0.0000000  0.6508444  3
   3340   3339   3351   3352     1  0.0000000  0.6508444  3
   3340   3339   3351   3353     1  0.0000000  0.6508444  3
   3341   3339   3335   3342     1  0.0000000  1.2552000  3
   3341   3339   3351   3357     1  0.0000000  0.6508444  3
   3341   3339   3351   3352     1  0.0000000  0.6508444  3
   3341   3339   3351   3353     1  0.0000000  0.6508444  3
   3342   3345   3354   3355     1  0.0000000  0.6508444  3
   3342   3345   3354   3356     1  0.0000000  0.6508444  3
   3343   3342   3345   3354     1  0.0000000  0.6508444  3
   3343   3342   3345   3346     1  0.0000000  0.6508444  3
   3343   3342   3345   3347     1  0.0000000  0.6508444  3
   3344   3342   3345   3354     1  0.0000000  0.6508444  3
   3344   3342   3345   3346     1  0.0000000  0.6508444  3
   3344   3342   3345   3347     1  0.0000000  0.6508444  3
   3346   3345   3354   3363     1  0.0000000  1.0460000  1
   3346   3345   3354   3363     1  0.0000000  0.0000000  3
   3346   3345   3354   3355     1  0.0000000  0.6508444  3
   3346   3345   3354   3356     1  0.0000000  0.6508444  3
   3347   3345   3354   3363     1  0.0000000  1.0460000  1
   3347   3345   3354   3363     1  0.0000000  0.0000000  3
   3347   3345   3354   3355     1  0.0000000  0.6508444  3
   3347   3345   3354   3356     1  0.0000000  0.6508444  3
   3349   3348   3360   6509     1  0.0000000  1.0460000  1
   3349   3348   3360   6509     1  0.0000000  0.0000000  3
   3349   3348   3360   3361     1  0.0000000  0.6508444  3
   3349   3348   3360   3362     1  0.0000000  0.6508444  3
   3350   3348   3360   6509     1  0.0000000  1.0460000  1
   3350   3348   3360   6509     1  0.0000000  0.0000000  3
   3350   3348   3360   3361     1  0.0000000  0.6508444  3
   3350   3348   3360   3362     1  0.0000000  0.6508444  3
   3352   3351   3357   6486     1  0.0000000  1.0460000  1
   3352   3351   3357   6486     1  0.0000000  0.0000000  3
   3352   3351   3357   3358     1  0.0000000  0.6508444  3
   3352   3351   3357   3359     1  0.0000000  0.6508444  3
   3353   3351   3357   6486     1  0.0000000  1.0460000  1
   3353   3351   3357   6486     1  0.0000000  0.0000000  3
   3353   3351   3357   3358     1  0.0000000  0.6508444  3
   3353   3351   3357   3359     1  0.0000000  0.6508444  3
   3357   6486   6482   6485     1  0.0000000  1.6038667  3
   3358   3357   6486   6482     1  0.0000000  1.6038667  3
   3359   3357   6486   6482     1  0.0000000  1.6038667  3
   3360   6509   6505   6508     1  0.0000000  1.6038667  3
   3361   3360   6509   6505     1  0.0000000  1.6038667  3
   3362   3360   6509   6505     1  0.0000000  1.6038667  3
   3364   3365   3377   3378     1  0.0000000  0.6508444  3
   3364   3365   3377   3379     1  0.0000000  0.6508444  3
   3364   3368   3380   3381     1  0.0000000  0.6508444  3
   3364   3368   3380   3382     1  0.0000000  0.6508444  3
   3364   3371   3374   3375     1  0.0000000  0.6508444  3
   3364   3371   3374   3376     1  0.0000000  0.6508444  3
   3365   3364   3368   3369     1  0.0000000  1.2552000  3
   3365   3364   3368   3370     1  0.0000000  1.2552000  3
   3365   3364   3371   3372     1  0.0000000  1.2552000  3
   3365   3364   3371   3373     1  0.0000000  1.2552000  3
   3365   3377   3389   3390     1  0.0000000  0.6508444  3
   3365   3377   3389   3391     1  0.0000000  0.6508444  3
   3366   3365   3364   3368     1  0.0000000  1.2552000  3
   3366   3365   3364   3371     1  0.0000000  1.2552000  3
   3366   3365   3377   3389     1  0.0000000  0.6508444  3
   3366   3365   3377   3378     1  0.0000000  0.6508444  3
   3366   3365   3377   3379     1  0.0000000  0.6508444  3
   3367   3365   3364   3368     1  0.0000000  1.2552000  3
   3367   3365   3364   3371     1  0.0000000  1.2552000  3
   3367   3365   3377   3389     1  0.0000000  0.6508444  3
   3367   3365   3377   3378     1  0.0000000  0.6508444  3
   3367   3365   3377   3379     1  0.0000000  0.6508444  3
   3368   3364   3371   3372     1  0.0000000  1.2552000  3
   3368   3364   3371   3373     1  0.0000000  1.2552000  3
   3368   3380   3386   3387     1  0.0000000  0.6508444  3
   3368   3380   3386   3388     1  0.0000000  0.6508444  3
   3369   3368   3364   3371     1  0.0000000  1.2552000  3
   3369   3368   3380   3386     1  0.0000000  0.6508444  3
   3369   3368   3380   3381     1  0.0000000  0.6508444  3
   3369   3368   3380   3382     1  0.0000000  0.6508444  3
   3370   3368   3364   3371     1  0.0000000  1.2552000  3
   3370   3368   3380   3386     1  0.0000000  0.6508444  3
   3370   3368   3380   3381     1  0.0000000  0.6508444  3
   3370   3368   3380   3382     1  0.0000000  0.6508444  3
   3371   3374   3383   3384     1  0.0000000  0.6508444  3
   3371   3374   3383   3385     1  0.0000000  0.6508444  3
   3372   3371   3374   3383     1  0.0000000  0.6508444  3
   3372   3371   3374   3375     1  0.0000000  0.6508444  3
   3372   3371   3374   3376     1  0.0000000  0.6508444  3
   3373   3371   3374   3383     1  0.0000000  0.6508444  3
   3373   3371   3374   3375     1  0.0000000  0.6508444  3
   3373   3371   3374   3376     1  0.0000000  0.6508444  3
   3375   3374   3383   3392     1  0.0000000  1.0460000  1
   3375   3374   3383   3392     1  0.0000000  0.0000000  3
   3375   3374   3383   3384     1  0.0000000  0.6508444  3
   3375   3374   3383   3385     1  0.0000000  0.6508444  3
   3376   3374   3383   3392     1  0.0000000  1.0460000  1
   3376   3374   3383   3392     1  0.0000000  0.0000000  3
   3376   3374   3383   3384     1  0.0000000  0.6508444  3
   3376   3374   3383   3385     1  0.0000000  0.6508444  3
   3378   3377   3389   6555     1  0.0000000  1.0460000  1
   3378   3377   3389   6555     1  0.0000000  0.0000000  3
   3378   3377   3389   3390     1  0.0000000  0.6508444  3
   3378   3377   3389   3391     1  0.0000000  0.6508444  3
   3379   3377   3389   6555     1  0.0000000  1.0460000  1
   3379   3377   3389   6555     1  0.0000000  0.0000000  3
   3379   3377   3389   3390     1  0.0000000  0.6508444  3
   3379   3377   3389   3391     1  0.0000000  0.6508444  3
   3381   3380   3386   6532     1  0.0000000  1.0460000  1
   3381   3380   3386   6532     1  0.0000000  0.0000000  3
   3381   3380   3386   3387     1  0.0000000  0.6508444  3
   3381   3380   3386   3388     1  0.0000000  0.6508444  3
   3382   3380   3386   6532     1  0.0000000  1.0460000  1
   3382   3380   3386   6532     1  0.0000000  0.0000000  3
   3382   3380   3386   3387     1  0.0000000  0.6508444  3
   3382   3380   3386   3388     1  0.0000000  0.6508444  3
   3386   6532   6528   6531     1  0.0000000  1.6038667  3
   3387   3386   6532   6528     1  0.0000000  1.6038667  3
   3388   3386   6532   6528     1  0.0000000  1.6038667  3
   3389   6555   6551   6554     1  0.0000000  1.6038667  3
   3390   3389   6555   6551     1  0.0000000  1.6038667  3
   3391   3389   6555   6551     1  0.0000000  1.6038667  3
   3393   3394   3406   3407     1  0.0000000  0.6508444  3
   3393   3394   3406   3408     1  0.0000000  0.6508444  3
   3393   3397   3409   3410     1  0.0000000  0.6508444  3
   3393   3397   3409   3411     1  0.0000000  0.6508444  3
   3393   3400   3403   3404     1  0.0000000  0.6508444  3
   3393   3400   3403   3405     1  0.0000000  0.6508444  3
   3394   3393   3397   3398     1  0.0000000  1.2552000  3
   3394   3393   3397   3399     1  0.0000000  1.2552000  3
   3394   3393   3400   3401     1  0.0000000  1.2552000  3
   3394   3393   3400   3402     1  0.0000000  1.2552000  3
   3394   3406   3418   3419     1  0.0000000  0.6508444  3
   3394   3406   3418   3420     1  0.0000000  0.6508444  3
   3395   3394   3393   3397     1  0.0000000  1.2552000  3
   3395   3394   3393   3400     1  0.0000000  1.2552000  3
   3395   3394   3406   3418     1  0.0000000  0.6508444  3
   3395   3394   3406   3407     1  0.0000000  0.6508444  3
   3395   3394   3406   3408     1  0.0000000  0.6508444  3
   3396   3394   3393   3397     1  0.0000000  1.2552000  3
   3396   3394   3393   3400     1  0.0000000  1.2552000  3
   3396   3394   3406   3418     1  0.0000000  0.6508444  3
   3396   3394   3406   3407     1  0.0000000  0.6508444  3
   3396   3394   3406   3408     1  0.0000000  0.6508444  3
   3397   3393   3400   3401     1  0.0000000  1.2552000  3
   3397   3393   3400   3402     1  0.0000000  1.2552000  3
   3397   3409   3415   3416     1  0.0000000  0.6508444  3
   3397   3409   3415   3417     1  0.0000000  0.6508444  3
   3398   3397   3393   3400     1  0.0000000  1.2552000  3
   3398   3397   3409   3415     1  0.0000000  0.6508444  3
   3398   3397   3409   3410     1  0.0000000  0.6508444  3
   3398   3397   3409   3411     1  0.0000000  0.6508444  3
   3399   3397   3393   3400     1  0.0000000  1.2552000  3
   3399   3397   3409   3415     1  0.0000000  0.6508444  3
   3399   3397   3409   3410     1  0.0000000  0.6508444  3
   3399   3397   3409   3411     1  0.0000000  0.6508444  3
   3400   3403   3412   3413     1  0.0000000  0.6508444  3
   3400   3403   3412   3414     1  0.0000000  0.6508444  3
   3401   3400   3403   3412     1  0.0000000  0.6508444  3
   3401   3400   3403   3404     1  0.0000000  0.6508444  3
   3401   3400   3403   3405     1  0.0000000  0.6508444  3
   3402   3400   3403   3412     1  0.0000000  0.6508444  3
   3402   3400   3403   3404     1  0.0000000  0.6508444  3
   3402   3400   3403   3405     1  0.0000000  0.6508444  3
   3404   3403   3412   3421     1  0.0000000  1.0460000  1
   3404   3403   3412   3421     1  0.0000000  0.0000000  3
   3404   3403   3412   3413     1  0.0000000  0.6508444  3
   3404   3403   3412   3414     1  0.0000000  0.6508444  3
   3405   3403   3412   3421     1  0.0000000  1.0460000  1
   3405   3403   3412   3421     1  0.0000000  0.0000000  3
   3405   3403   3412   3413     1  0.0000000  0.6508444  3
   3405   3403   3412   3414     1  0.0000000  0.6508444  3
   3407   3406   3418   6601     1  0.0000000  1.0460000  1
   3407   3406   3418   6601     1  0.0000000  0.0000000  3
   3407   3406   3418   3419     1  0.0000000  0.6508444  3
   3407   3406   3418   3420     1  0.0000000  0.6508444  3
   3408   3406   3418   6601     1  0.0000000  1.0460000  1
   3408   3406   3418   6601     1  0.0000000  0.0000000  3
   3408   3406   3418   3419     1  0.0000000  0.6508444  3
   3408   3406   3418   3420     1  0.0000000  0.6508444  3
   3410   3409   3415   6578     1  0.0000000  1.0460000  1
   3410   3409   3415   6578     1  0.0000000  0.0000000  3
   3410   3409   3415   3416     1  0.0000000  0.6508444  3
   3410   3409   3415   3417     1  0.0000000  0.6508444  3
   3411   3409   3415   6578     1  0.0000000  1.0460000  1
   3411   3409   3415   6578     1  0.0000000  0.0000000  3
   3411   3409   3415   3416     1  0.0000000  0.6508444  3
   3411   3409   3415   3417     1  0.0000000  0.6508444  3
   3415   6578   6574   6577     1  0.0000000  1.6038667  3
   3416   3415   6578   6574     1  0.0000000  1.6038667  3
   3417   3415   6578   6574     1  0.0000000  1.6038667  3
   3418   6601   6597   6600     1  0.0000000  1.6038667  3
   3419   3418   6601   6597     1  0.0000000  1.6038667  3
   3420   3418   6601   6597     1  0.0000000  1.6038667  3
   3422   3423   3435   3436     1  0.0000000  0.6508444  3
   3422   3423   3435   3437     1  0.0000000  0.6508444  3
   3422   3426   3438   3439     1  0.0000000  0.6508444  3
   3422   3426   3438   3440     1  0.0000000  0.6508444  3
   3422   3429   3432   3433     1  0.0000000  0.6508444  3
   3422   3429   3432   3434     1  0.0000000  0.6508444  3
   3423   3422   3426   3427     1  0.0000000  1.2552000  3
   3423   3422   3426   3428     1  0.0000000  1.2552000  3
   3423   3422   3429   3430     1  0.0000000  1.2552000  3
   3423   3422   3429   3431     1  0.0000000  1.2552000  3
   3423   3435   3447   3448     1  0.0000000  0.6508444  3
   3423   3435   3447   3449     1  0.0000000  0.6508444  3
   3424   3423   3422   3426     1  0.0000000  1.2552000  3
   3424   3423   3422   3429     1  0.0000000  1.2552000  3
   3424   3423   3435   3447     1  0.0000000  0.6508444  3
   3424   3423   3435   3436     1  0.0000000  0.6508444  3
   3424   3423   3435   3437     1  0.0000000  0.6508444  3
   3425   3423   3422   3426     1  0.0000000  1.2552000  3
   3425   3423   3422   3429     1  0.0000000  1.2552000  3
   3425   3423   3435   3447     1  0.0000000  0.6508444  3
   3425   3423   3435   3436     1  0.0000000  0.6508444  3
   3425   3423   3435   3437     1  0.0000000  0.6508444  3
   3426   3422   3429   3430     1  0.0000000  1.2552000  3
   3426   3422   3429   3431     1  0.0000000  1.2552000  3
   3426   3438   3444   3445     1  0.0000000  0.6508444  3
   3426   3438   3444   3446     1  0.0000000  0.6508444  3
   3427   3426   3422   3429     1  0.0000000  1.2552000  3
   3427   3426   3438   3444     1  0.0000000  0.6508444  3
   3427   3426   3438   3439     1  0.0000000  0.6508444  3
   3427   3426   3438   3440     1  0.0000000  0.6508444  3
   3428   3426   3422   3429     1  0.0000000  1.2552000  3
   3428   3426   3438   3444     1  0.0000000  0.6508444  3
   3428   3426   3438   3439     1  0.0000000  0.6508444  3
   3428   3426   3438   3440     1  0.0000000  0.6508444  3
   3429   3432   3441   3442     1  0.0000000  0.6508444  3
   3429   3432   3441   3443     1  0.0000000  0.6508444  3
   3430   3429   3432   3441     1  0.0000000  0.6508444  3
   3430   3429   3432   3433     1  0.0000000  0.6508444  3
   3430   3429   3432   3434     1  0.0000000  0.6508444  3
   3431   3429   3432   3441     1  0.0000000  0.6508444  3
   3431   3429   3432   3433     1  0.0000000  0.6508444  3
   3431   3429   3432   3434     1  0.0000000  0.6508444  3
   3433   3432   3441   3450     1  0.0000000  1.0460000  1
   3433   3432   3441   3450     1  0.0000000  0.0000000  3
   3433   3432   3441   3442     1  0.0000000  0.6508444  3
   3433   3432   3441   3443     1  0.0000000  0.6508444  3
   3434   3432   3441   3450     1  0.0000000  1.0460000  1
   3434   3432   3441   3450     1  0.0000000  0.0000000  3
   3434   3432   3441   3442     1  0.0000000  0.6508444  3
   3434   3432   3441   3443     1  0.0000000  0.6508444  3
   3436   3435   3447   6647     1  0.0000000  1.0460000  1
   3436   3435   3447   6647     1  0.0000000  0.0000000  3
   3436   3435   3447   3448     1  0.0000000  0.6508444  3
   3436   3435   3447   3449     1  0.0000000  0.6508444  3
   3437   3435   3447   6647     1  0.0000000  1.0460000  1
   3437   3435   3447   6647     1  0.0000000  0.0000000  3
   3437   3435   3447   3448     1  0.0000000  0.6508444  3
   3437   3435   3447   3449     1  0.0000000  0.6508444  3
   3439   3438   3444   6624     1  0.0000000  1.0460000  1
   3439   3438   3444   6624     1  0.0000000  0.0000000  3
   3439   3438   3444   3445     1  0.0000000  0.6508444  3
   3439   3438   3444   3446     1  0.0000000  0.6508444  3
   3440   3438   3444   6624     1  0.0000000  1.0460000  1
   3440   3438   3444   6624     1  0.0000000  0.0000000  3
   3440   3438   3444   3445     1  0.0000000  0.6508444  3
   3440   3438   3444   3446     1  0.0000000  0.6508444  3
   3444   6624   6620   6623     1  0.0000000  1.6038667  3
   3445   3444   6624   6620     1  0.0000000  1.6038667  3
   3446   3444   6624   6620     1  0.0000000  1.6038667  3
   3447   6647   6643   6646     1  0.0000000  1.6038667  3
   3448   3447   6647   6643     1  0.0000000  1.6038667  3
   3449   3447   6647   6643     1  0.0000000  1.6038667  3
   3451   3452   3464   3465     1  0.0000000  0.6508444  3
   3451   3452   3464   3466     1  0.0000000  0.6508444  3
   3451   3455   3467   3468     1  0.0000000  0.6508444  3
   3451   3455   3467   3469     1  0.0000000  0.6508444  3
   3451   3458   3461   3462     1  0.0000000  0.6508444  3
   3451   3458   3461   3463     1  0.0000000  0.6508444  3
   3452   3451   3455   3456     1  0.0000000  1.2552000  3
   3452   3451   3455   3457     1  0.0000000  1.2552000  3
   3452   3451   3458   3459     1  0.0000000  1.2552000  3
   3452   3451   3458   3460     1  0.0000000  1.2552000  3
   3452   3464   3476   3477     1  0.0000000  0.6508444  3
   3452   3464   3476   3478     1  0.0000000  0.6508444  3
   3453   3452   3451   3455     1  0.0000000  1.2552000  3
   3453   3452   3451   3458     1  0.0000000  1.2552000  3
   3453   3452   3464   3476     1  0.0000000  0.6508444  3
   3453   3452   3464   3465     1  0.0000000  0.6508444  3
   3453   3452   3464   3466     1  0.0000000  0.6508444  3
   3454   3452   3451   3455     1  0.0000000  1.2552000  3
   3454   3452   3451   3458     1  0.0000000  1.2552000  3
   3454   3452   3464   3476     1  0.0000000  0.6508444  3
   3454   3452   3464   3465     1  0.0000000  0.6508444  3
   3454   3452   3464   3466     1  0.0000000  0.6508444  3
   3455   3451   3458   3459     1  0.0000000  1.2552000  3
   3455   3451   3458   3460     1  0.0000000  1.2552000  3
   3455   3467   3473   3474     1  0.0000000  0.6508444  3
   3455   3467   3473   3475     1  0.0000000  0.6508444  3
   3456   3455   3451   3458     1  0.0000000  1.2552000  3
   3456   3455   3467   3473     1  0.0000000  0.6508444  3
   3456   3455   3467   3468     1  0.0000000  0.6508444  3
   3456   3455   3467   3469     1  0.0000000  0.6508444  3
   3457   3455   3451   3458     1  0.0000000  1.2552000  3
   3457   3455   3467   3473     1  0.0000000  0.6508444  3
   3457   3455   3467   3468     1  0.0000000  0.6508444  3
   3457   3455   3467   3469     1  0.0000000  0.6508444  3
   3458   3461   3470   3471     1  0.0000000  0.6508444  3
   3458   3461   3470   3472     1  0.0000000  0.6508444  3
   3459   3458   3461   3470     1  0.0000000  0.6508444  3
   3459   3458   3461   3462     1  0.0000000  0.6508444  3
   3459   3458   3461   3463     1  0.0000000  0.6508444  3
   3460   3458   3461   3470     1  0.0000000  0.6508444  3
   3460   3458   3461   3462     1  0.0000000  0.6508444  3
   3460   3458   3461   3463     1  0.0000000  0.6508444  3
   3462   3461   3470   3479     1  0.0000000  1.0460000  1
   3462   3461   3470   3479     1  0.0000000  0.0000000  3
   3462   3461   3470   3471     1  0.0000000  0.6508444  3
   3462   3461   3470   3472     1  0.0000000  0.6508444  3
   3463   3461   3470   3479     1  0.0000000  1.0460000  1
   3463   3461   3470   3479     1  0.0000000  0.0000000  3
   3463   3461   3470   3471     1  0.0000000  0.6508444  3
   3463   3461   3470   3472     1  0.0000000  0.6508444  3
   3465   3464   3476   6693     1  0.0000000  1.0460000  1
   3465   3464   3476   6693     1  0.0000000  0.0000000  3
   3465   3464   3476   3477     1  0.0000000  0.6508444  3
   3465   3464   3476   3478     1  0.0000000  0.6508444  3
   3466   3464   3476   6693     1  0.0000000  1.0460000  1
   3466   3464   3476   6693     1  0.0000000  0.0000000  3
   3466   3464   3476   3477     1  0.0000000  0.6508444  3
   3466   3464   3476   3478     1  0.0000000  0.6508444  3
   3468   3467   3473   6670     1  0.0000000  1.0460000  1
   3468   3467   3473   6670     1  0.0000000  0.0000000  3
   3468   3467   3473   3474     1  0.0000000  0.6508444  3
   3468   3467   3473   3475     1  0.0000000  0.6508444  3
   3469   3467   3473   6670     1  0.0000000  1.0460000  1
   3469   3467   3473   6670     1  0.0000000  0.0000000  3
   3469   3467   3473   3474     1  0.0000000  0.6508444  3
   3469   3467   3473   3475     1  0.0000000  0.6508444  3
   3473   6670   6666   6669     1  0.0000000  1.6038667  3
   3474   3473   6670   6666     1  0.0000000  1.6038667  3
   3475   3473   6670   6666     1  0.0000000  1.6038667  3
   3476   6693   6689   6692     1  0.0000000  1.6038667  3
   3477   3476   6693   6689     1  0.0000000  1.6038667  3
   3478   3476   6693   6689     1  0.0000000  1.6038667  3
   3480   3481   3493   3494     1  0.0000000  0.6508444  3
   3480   3481   3493   3495     1  0.0000000  0.6508444  3
   3480   3484   3496   3497     1  0.0000000  0.6508444  3
   3480   3484   3496   3498     1  0.0000000  0.6508444  3
   3480   3487   3490   3491     1  0.0000000  0.6508444  3
   3480   3487   3490   3492     1  0.0000000  0.6508444  3
   3481   3480   3484   3485     1  0.0000000  1.2552000  3
   3481   3480   3484   3486     1  0.0000000  1.2552000  3
   3481   3480   3487   3488     1  0.0000000  1.2552000  3
   3481   3480   3487   3489     1  0.0000000  1.2552000  3
   3481   3493   3505   3506     1  0.0000000  0.6508444  3
   3481   3493   3505   3507     1  0.0000000  0.6508444  3
   3482   3481   3480   3484     1  0.0000000  1.2552000  3
   3482   3481   3480   3487     1  0.0000000  1.2552000  3
   3482   3481   3493   3505     1  0.0000000  0.6508444  3
   3482   3481   3493   3494     1  0.0000000  0.6508444  3
   3482   3481   3493   3495     1  0.0000000  0.6508444  3
   3483   3481   3480   3484     1  0.0000000  1.2552000  3
   3483   3481   3480   3487     1  0.0000000  1.2552000  3
   3483   3481   3493   3505     1  0.0000000  0.6508444  3
   3483   3481   3493   3494     1  0.0000000  0.6508444  3
   3483   3481   3493   3495     1  0.0000000  0.6508444  3
   3484   3480   3487   3488     1  0.0000000  1.2552000  3
   3484   3480   3487   3489     1  0.0000000  1.2552000  3
   3484   3496   3502   3503     1  0.0000000  0.6508444  3
   3484   3496   3502   3504     1  0.0000000  0.6508444  3
   3485   3484   3480   3487     1  0.0000000  1.2552000  3
   3485   3484   3496   3502     1  0.0000000  0.6508444  3
   3485   3484   3496   3497     1  0.0000000  0.6508444  3
   3485   3484   3496   3498     1  0.0000000  0.6508444  3
   3486   3484   3480   3487     1  0.0000000  1.2552000  3
   3486   3484   3496   3502     1  0.0000000  0.6508444  3
   3486   3484   3496   3497     1  0.0000000  0.6508444  3
   3486   3484   3496   3498     1  0.0000000  0.6508444  3
   3487   3490   3499   3500     1  0.0000000  0.6508444  3
   3487   3490   3499   3501     1  0.0000000  0.6508444  3
   3488   3487   3490   3499     1  0.0000000  0.6508444  3
   3488   3487   3490   3491     1  0.0000000  0.6508444  3
   3488   3487   3490   3492     1  0.0000000  0.6508444  3
   3489   3487   3490   3499     1  0.0000000  0.6508444  3
   3489   3487   3490   3491     1  0.0000000  0.6508444  3
   3489   3487   3490   3492     1  0.0000000  0.6508444  3
   3491   3490   3499   3508     1  0.0000000  1.0460000  1
   3491   3490   3499   3508     1  0.0000000  0.0000000  3
   3491   3490   3499   3500     1  0.0000000  0.6508444  3
   3491   3490   3499   3501     1  0.0000000  0.6508444  3
   3492   3490   3499   3508     1  0.0000000  1.0460000  1
   3492   3490   3499   3508     1  0.0000000  0.0000000  3
   3492   3490   3499   3500     1  0.0000000  0.6508444  3
   3492   3490   3499   3501     1  0.0000000  0.6508444  3
   3494   3493   3505   6739     1  0.0000000  1.0460000  1
   3494   3493   3505   6739     1  0.0000000  0.0000000  3
   3494   3493   3505   3506     1  0.0000000  0.6508444  3
   3494   3493   3505   3507     1  0.0000000  0.6508444  3
   3495   3493   3505   6739     1  0.0000000  1.0460000  1
   3495   3493   3505   6739     1  0.0000000  0.0000000  3
   3495   3493   3505   3506     1  0.0000000  0.6508444  3
   3495   3493   3505   3507     1  0.0000000  0.6508444  3
   3497   3496   3502   6716     1  0.0000000  1.0460000  1
   3497   3496   3502   6716     1  0.0000000  0.0000000  3
   3497   3496   3502   3503     1  0.0000000  0.6508444  3
   3497   3496   3502   3504     1  0.0000000  0.6508444  3
   3498   3496   3502   6716     1  0.0000000  1.0460000  1
   3498   3496   3502   6716     1  0.0000000  0.0000000  3
   3498   3496   3502   3503     1  0.0000000  0.6508444  3
   3498   3496   3502   3504     1  0.0000000  0.6508444  3
   3502   6716   6712   6715     1  0.0000000  1.6038667  3
   3503   3502   6716   6712     1  0.0000000  1.6038667  3
   3504   3502   6716   6712     1  0.0000000  1.6038667  3
   3505   6739   6735   6738     1  0.0000000  1.6038667  3
   3506   3505   6739   6735     1  0.0000000  1.6038667  3
   3507   3505   6739   6735     1  0.0000000  1.6038667  3
   3509   3510   3522   3523     1  0.0000000  0.6508444  3
   3509   3510   3522   3524     1  0.0000000  0.6508444  3
   3509   3513   3525   3526     1  0.0000000  0.6508444  3
   3509   3513   3525   3527     1  0.0000000  0.6508444  3
   3509   3516   3519   3520     1  0.0000000  0.6508444  3
   3509   3516   3519   3521     1  0.0000000  0.6508444  3
   3510   3509   3513   3514     1  0.0000000  1.2552000  3
   3510   3509   3513   3515     1  0.0000000  1.2552000  3
   3510   3509   3516   3517     1  0.0000000  1.2552000  3
   3510   3509   3516   3518     1  0.0000000  1.2552000  3
   3510   3522   3534   3535     1  0.0000000  0.6508444  3
   3510   3522   3534   3536     1  0.0000000  0.6508444  3
   3511   3510   3509   3513     1  0.0000000  1.2552000  3
   3511   3510   3509   3516     1  0.0000000  1.2552000  3
   3511   3510   3522   3534     1  0.0000000  0.6508444  3
   3511   3510   3522   3523     1  0.0000000  0.6508444  3
   3511   3510   3522   3524     1  0.0000000  0.6508444  3
   3512   3510   3509   3513     1  0.0000000  1.2552000  3
   3512   3510   3509   3516     1  0.0000000  1.2552000  3
   3512   3510   3522   3534     1  0.0000000  0.6508444  3
   3512   3510   3522   3523     1  0.0000000  0.6508444  3
   3512   3510   3522   3524     1  0.0000000  0.6508444  3
   3513   3509   3516   3517     1  0.0000000  1.2552000  3
   3513   3509   3516   3518     1  0.0000000  1.2552000  3
   3513   3525   3531   3532     1  0.0000000  0.6508444  3
   3513   3525   3531   3533     1  0.0000000  0.6508444  3
   3514   3513   3509   3516     1  0.0000000  1.2552000  3
   3514   3513   3525   3531     1  0.0000000  0.6508444  3
   3514   3513   3525   3526     1  0.0000000  0.6508444  3
   3514   3513   3525   3527     1  0.0000000  0.6508444  3
   3515   3513   3509   3516     1  0.0000000  1.2552000  3
   3515   3513   3525   3531     1  0.0000000  0.6508444  3
   3515   3513   3525   3526     1  0.0000000  0.6508444  3
   3515   3513   3525   3527     1  0.0000000  0.6508444  3
   3516   3519   3528   3529     1  0.0000000  0.6508444  3
   3516   3519   3528   3530     1  0.0000000  0.6508444  3
   3517   3516   3519   3528     1  0.0000000  0.6508444  3
   3517   3516   3519   3520     1  0.0000000  0.6508444  3
   3517   3516   3519   3521     1  0.0000000  0.6508444  3
   3518   3516   3519   3528     1  0.0000000  0.6508444  3
   3518   3516   3519   3520     1  0.0000000  0.6508444  3
   3518   3516   3519   3521     1  0.0000000  0.6508444  3
   3520   3519   3528   3537     1  0.0000000  1.0460000  1
   3520   3519   3528   3537     1  0.0000000  0.0000000  3
   3520   3519   3528   3529     1  0.0000000  0.6508444  3
   3520   3519   3528   3530     1  0.0000000  0.6508444  3
   3521   3519   3528   3537     1  0.0000000  1.0460000  1
   3521   3519   3528   3537     1  0.0000000  0.0000000  3
   3521   3519   3528   3529     1  0.0000000  0.6508444  3
   3521   3519   3528   3530     1  0.0000000  0.6508444  3
   3523   3522   3534   6785     1  0.0000000  1.0460000  1
   3523   3522   3534   6785     1  0.0000000  0.0000000  3
   3523   3522   3534   3535     1  0.0000000  0.6508444  3
   3523   3522   3534   3536     1  0.0000000  0.6508444  3
   3524   3522   3534   6785     1  0.0000000  1.0460000  1
   3524   3522   3534   6785     1  0.0000000  0.0000000  3
   3524   3522   3534   3535     1  0.0000000  0.6508444  3
   3524   3522   3534   3536     1  0.0000000  0.6508444  3
   3526   3525   3531   6762     1  0.0000000  1.0460000  1
   3526   3525   3531   6762     1  0.0000000  0.0000000  3
   3526   3525   3531   3532     1  0.0000000  0.6508444  3
   3526   3525   3531   3533     1  0.0000000  0.6508444  3
   3527   3525   3531   6762     1  0.0000000  1.0460000  1
   3527   3525   3531   6762     1  0.0000000  0.0000000  3
   3527   3525   3531   3532     1  0.0000000  0.6508444  3
   3527   3525   3531   3533     1  0.0000000  0.6508444  3
   3531   6762   6758   6761     1  0.0000000  1.6038667  3
   3532   3531   6762   6758     1  0.0000000  1.6038667  3
   3533   3531   6762   6758     1  0.0000000  1.6038667  3
   3534   6785   6781   6784     1  0.0000000  1.6038667  3
   3535   3534   6785   6781     1  0.0000000  1.6038667  3
   3536   3534   6785   6781     1  0.0000000  1.6038667  3
   3538   3539   3551   3552     1  0.0000000  0.6508444  3
   3538   3539   3551   3553     1  0.0000000  0.6508444  3
   3538   3542   3554   3555     1  0.0000000  0.6508444  3
   3538   3542   3554   3556     1  0.0000000  0.6508444  3
   3538   3545   3548   3549     1  0.0000000  0.6508444  3
   3538   3545   3548   3550     1  0.0000000  0.6508444  3
   3539   3538   3542   3543     1  0.0000000  1.2552000  3
   3539   3538   3542   3544     1  0.0000000  1.2552000  3
   3539   3538   3545   3546     1  0.0000000  1.2552000  3
   3539   3538   3545   3547     1  0.0000000  1.2552000  3
   3539   3551   3563   3564     1  0.0000000  0.6508444  3
   3539   3551   3563   3565     1  0.0000000  0.6508444  3
   3540   3539   3538   3542     1  0.0000000  1.2552000  3
   3540   3539   3538   3545     1  0.0000000  1.2552000  3
   3540   3539   3551   3563     1  0.0000000  0.6508444  3
   3540   3539   3551   3552     1  0.0000000  0.6508444  3
   3540   3539   3551   3553     1  0.0000000  0.6508444  3
   3541   3539   3538   3542     1  0.0000000  1.2552000  3
   3541   3539   3538   3545     1  0.0000000  1.2552000  3
   3541   3539   3551   3563     1  0.0000000  0.6508444  3
   3541   3539   3551   3552     1  0.0000000  0.6508444  3
   3541   3539   3551   3553     1  0.0000000  0.6508444  3
   3542   3538   3545   3546     1  0.0000000  1.2552000  3
   3542   3538   3545   3547     1  0.0000000  1.2552000  3
   3542   3554   3560   3561     1  0.0000000  0.6508444  3
   3542   3554   3560   3562     1  0.0000000  0.6508444  3
   3543   3542   3538   3545     1  0.0000000  1.2552000  3
   3543   3542   3554   3560     1  0.0000000  0.6508444  3
   3543   3542   3554   3555     1  0.0000000  0.6508444  3
   3543   3542   3554   3556     1  0.0000000  0.6508444  3
   3544   3542   3538   3545     1  0.0000000  1.2552000  3
   3544   3542   3554   3560     1  0.0000000  0.6508444  3
   3544   3542   3554   3555     1  0.0000000  0.6508444  3
   3544   3542   3554   3556     1  0.0000000  0.6508444  3
   3545   3548   3557   3558     1  0.0000000  0.6508444  3
   3545   3548   3557   3559     1  0.0000000  0.6508444  3
   3546   3545   3548   3557     1  0.0000000  0.6508444  3
   3546   3545   3548   3549     1  0.0000000  0.6508444  3
   3546   3545   3548   3550     1  0.0000000  0.6508444  3
   3547   3545   3548   3557     1  0.0000000  0.6508444  3
   3547   3545   3548   3549     1  0.0000000  0.6508444  3
   3547   3545   3548   3550     1  0.0000000  0.6508444  3
   3549   3548   3557   3566     1  0.0000000  1.0460000  1
   3549   3548   3557   3566     1  0.0000000  0.0000000  3
   3549   3548   3557   3558     1  0.0000000  0.6508444  3
   3549   3548   3557   3559     1  0.0000000  0.6508444  3
   3550   3548   3557   3566     1  0.0000000  1.0460000  1
   3550   3548   3557   3566     1  0.0000000  0.0000000  3
   3550   3548   3557   3558     1  0.0000000  0.6508444  3
   3550   3548   3557   3559     1  0.0000000  0.6508444  3
   3552   3551   3563   6831     1  0.0000000  1.0460000  1
   3552   3551   3563   6831     1  0.0000000  0.0000000  3
   3552   3551   3563   3564     1  0.0000000  0.6508444  3
   3552   3551   3563   3565     1  0.0000000  0.6508444  3
   3553   3551   3563   6831     1  0.0000000  1.0460000  1
   3553   3551   3563   6831     1  0.0000000  0.0000000  3
   3553   3551   3563   3564     1  0.0000000  0.6508444  3
   3553   3551   3563   3565     1  0.0000000  0.6508444  3
   3555   3554   3560   6808     1  0.0000000  1.0460000  1
   3555   3554   3560   6808     1  0.0000000  0.0000000  3
   3555   3554   3560   3561     1  0.0000000  0.6508444  3
   3555   3554   3560   3562     1  0.0000000  0.6508444  3
   3556   3554   3560   6808     1  0.0000000  1.0460000  1
   3556   3554   3560   6808     1  0.0000000  0.0000000  3
   3556   3554   3560   3561     1  0.0000000  0.6508444  3
   3556   3554   3560   3562     1  0.0000000  0.6508444  3
   3560   6808   6804   6807     1  0.0000000  1.6038667  3
   3561   3560   6808   6804     1  0.0000000  1.6038667  3
   3562   3560   6808   6804     1  0.0000000  1.6038667  3
   3563   6831   6827   6830     1  0.0000000  1.6038667  3
   3564   3563   6831   6827     1  0.0000000  1.6038667  3
   3565   3563   6831   6827     1  0.0000000  1.6038667  3
   3567   3568   3580   3581     1  0.0000000  0.6508444  3
   3567   3568   3580   3582     1  0.0000000  0.6508444  3
   3567   3571   3583   3584     1  0.0000000  0.6508444  3
   3567   3571   3583   3585     1  0.0000000  0.6508444  3
   3567   3574   3577   3578     1  0.0000000  0.6508444  3
   3567   3574   3577   3579     1  0.0000000  0.6508444  3
   3568   3567   3571   3572     1  0.0000000  1.2552000  3
   3568   3567   3571   3573     1  0.0000000  1.2552000  3
   3568   3567   3574   3575     1  0.0000000  1.2552000  3
   3568   3567   3574   3576     1  0.0000000  1.2552000  3
   3568   3580   3592   3593     1  0.0000000  0.6508444  3
   3568   3580   3592   3594     1  0.0000000  0.6508444  3
   3569   3568   3567   3571     1  0.0000000  1.2552000  3
   3569   3568   3567   3574     1  0.0000000  1.2552000  3
   3569   3568   3580   3592     1  0.0000000  0.6508444  3
   3569   3568   3580   3581     1  0.0000000  0.6508444  3
   3569   3568   3580   3582     1  0.0000000  0.6508444  3
   3570   3568   3567   3571     1  0.0000000  1.2552000  3
   3570   3568   3567   3574     1  0.0000000  1.2552000  3
   3570   3568   3580   3592     1  0.0000000  0.6508444  3
   3570   3568   3580   3581     1  0.0000000  0.6508444  3
   3570   3568   3580   3582     1  0.0000000  0.6508444  3
   3571   3567   3574   3575     1  0.0000000  1.2552000  3
   3571   3567   3574   3576     1  0.0000000  1.2552000  3
   3571   3583   3589   3590     1  0.0000000  0.6508444  3
   3571   3583   3589   3591     1  0.0000000  0.6508444  3
   3572   3571   3567   3574     1  0.0000000  1.2552000  3
   3572   3571   3583   3589     1  0.0000000  0.6508444  3
   3572   3571   3583   3584     1  0.0000000  0.6508444  3
   3572   3571   3583   3585     1  0.0000000  0.6508444  3
   3573   3571   3567   3574     1  0.0000000  1.2552000  3
   3573   3571   3583   3589     1  0.0000000  0.6508444  3
   3573   3571   3583   3584     1  0.0000000  0.6508444  3
   3573   3571   3583   3585     1  0.0000000  0.6508444  3
   3574   3577   3586   3587     1  0.0000000  0.6508444  3
   3574   3577   3586   3588     1  0.0000000  0.6508444  3
   3575   3574   3577   3586     1  0.0000000  0.6508444  3
   3575   3574   3577   3578     1  0.0000000  0.6508444  3
   3575   3574   3577   3579     1  0.0000000  0.6508444  3
   3576   3574   3577   3586     1  0.0000000  0.6508444  3
   3576   3574   3577   3578     1  0.0000000  0.6508444  3
   3576   3574   3577   3579     1  0.0000000  0.6508444  3
   3578   3577   3586   3595     1  0.0000000  1.0460000  1
   3578   3577   3586   3595     1  0.0000000  0.0000000  3
   3578   3577   3586   3587     1  0.0000000  0.6508444  3
   3578   3577   3586   3588     1  0.0000000  0.6508444  3
   3579   3577   3586   3595     1  0.0000000  1.0460000  1
   3579   3577   3586   3595     1  0.0000000  0.0000000  3
   3579   3577   3586   3587     1  0.0000000  0.6508444  3
   3579   3577   3586   3588     1  0.0000000  0.6508444  3
   3581   3580   3592   6877     1  0.0000000  1.0460000  1
   3581   3580   3592   6877     1  0.0000000  0.0000000  3
   3581   3580   3592   3593     1  0.0000000  0.6508444  3
   3581   3580   3592   3594     1  0.0000000  0.6508444  3
   3582   3580   3592   6877     1  0.0000000  1.0460000  1
   3582   3580   3592   6877     1  0.0000000  0.0000000  3
   3582   3580   3592   3593     1  0.0000000  0.6508444  3
   3582   3580   3592   3594     1  0.0000000  0.6508444  3
   3584   3583   3589   6854     1  0.0000000  1.0460000  1
   3584   3583   3589   6854     1  0.0000000  0.0000000  3
   3584   3583   3589   3590     1  0.0000000  0.6508444  3
   3584   3583   3589   3591     1  0.0000000  0.6508444  3
   3585   3583   3589   6854     1  0.0000000  1.0460000  1
   3585   3583   3589   6854     1  0.0000000  0.0000000  3
   3585   3583   3589   3590     1  0.0000000  0.6508444  3
   3585   3583   3589   3591     1  0.0000000  0.6508444  3
   3589   6854   6850   6853     1  0.0000000  1.6038667  3
   3590   3589   6854   6850     1  0.0000000  1.6038667  3
   3591   3589   6854   6850     1  0.0000000  1.6038667  3
   3592   6877   6873   6876     1  0.0000000  1.6038667  3
   3593   3592   6877   6873     1  0.0000000  1.6038667  3
   3594   3592   6877   6873     1  0.0000000  1.6038667  3
   3596   3597   3609   3610     1  0.0000000  0.6508444  3
   3596   3597   3609   3611     1  0.0000000  0.6508444  3
   3596   3600   3612   3613     1  0.0000000  0.6508444  3
   3596   3600   3612   3614     1  0.0000000  0.6508444  3
   3596   3603   3606   3607     1  0.0000000  0.6508444  3
   3596   3603   3606   3608     1  0.0000000  0.6508444  3
   3597   3596   3600   3601     1  0.0000000  1.2552000  3
   3597   3596   3600   3602     1  0.0000000  1.2552000  3
   3597   3596   3603   3604     1  0.0000000  1.2552000  3
   3597   3596   3603   3605     1  0.0000000  1.2552000  3
   3597   3609   3621   3622     1  0.0000000  0.6508444  3
   3597   3609   3621   3623     1  0.0000000  0.6508444  3
   3598   3597   3596   3600     1  0.0000000  1.2552000  3
   3598   3597   3596   3603     1  0.0000000  1.2552000  3
   3598   3597   3609   3621     1  0.0000000  0.6508444  3
   3598   3597   3609   3610     1  0.0000000  0.6508444  3
   3598   3597   3609   3611     1  0.0000000  0.6508444  3
   3599   3597   3596   3600     1  0.0000000  1.2552000  3
   3599   3597   3596   3603     1  0.0000000  1.2552000  3
   3599   3597   3609   3621     1  0.0000000  0.6508444  3
   3599   3597   3609   3610     1  0.0000000  0.6508444  3
   3599   3597   3609   3611     1  0.0000000  0.6508444  3
   3600   3596   3603   3604     1  0.0000000  1.2552000  3
   3600   3596   3603   3605     1  0.0000000  1.2552000  3
   3600   3612   3618   3619     1  0.0000000  0.6508444  3
   3600   3612   3618   3620     1  0.0000000  0.6508444  3
   3601   3600   3596   3603     1  0.0000000  1.2552000  3
   3601   3600   3612   3618     1  0.0000000  0.6508444  3
   3601   3600   3612   3613     1  0.0000000  0.6508444  3
   3601   3600   3612   3614     1  0.0000000  0.6508444  3
   3602   3600   3596   3603     1  0.0000000  1.2552000  3
   3602   3600   3612   3618     1  0.0000000  0.6508444  3
   3602   3600   3612   3613     1  0.0000000  0.6508444  3
   3602   3600   3612   3614     1  0.0000000  0.6508444  3
   3603   3606   3615   3616     1  0.0000000  0.6508444  3
   3603   3606   3615   3617     1  0.0000000  0.6508444  3
   3604   3603   3606   3615     1  0.0000000  0.6508444  3
   3604   3603   3606   3607     1  0.0000000  0.6508444  3
   3604   3603   3606   3608     1  0.0000000  0.6508444  3
   3605   3603   3606   3615     1  0.0000000  0.6508444  3
   3605   3603   3606   3607     1  0.0000000  0.6508444  3
   3605   3603   3606   3608     1  0.0000000  0.6508444  3
   3607   3606   3615   3624     1  0.0000000  1.0460000  1
   3607   3606   3615   3624     1  0.0000000  0.0000000  3
   3607   3606   3615   3616     1  0.0000000  0.6508444  3
   3607   3606   3615   3617     1  0.0000000  0.6508444  3
   3608   3606   3615   3624     1  0.0000000  1.0460000  1
   3608   3606   3615   3624     1  0.0000000  0.0000000  3
   3608   3606   3615   3616     1  0.0000000  0.6508444  3
   3608   3606   3615   3617     1  0.0000000  0.6508444  3
   3610   3609   3621   6923     1  0.0000000  1.0460000  1
   3610   3609   3621   6923     1  0.0000000  0.0000000  3
   3610   3609   3621   3622     1  0.0000000  0.6508444  3
   3610   3609   3621   3623     1  0.0000000  0.6508444  3
   3611   3609   3621   6923     1  0.0000000  1.0460000  1
   3611   3609   3621   6923     1  0.0000000  0.0000000  3
   3611   3609   3621   3622     1  0.0000000  0.6508444  3
   3611   3609   3621   3623     1  0.0000000  0.6508444  3
   3613   3612   3618   6900     1  0.0000000  1.0460000  1
   3613   3612   3618   6900     1  0.0000000  0.0000000  3
   3613   3612   3618   3619     1  0.0000000  0.6508444  3
   3613   3612   3618   3620     1  0.0000000  0.6508444  3
   3614   3612   3618   6900     1  0.0000000  1.0460000  1
   3614   3612   3618   6900     1  0.0000000  0.0000000  3
   3614   3612   3618   3619     1  0.0000000  0.6508444  3
   3614   3612   3618   3620     1  0.0000000  0.6508444  3
   3618   6900   6896   6899     1  0.0000000  1.6038667  3
   3619   3618   6900   6896     1  0.0000000  1.6038667  3
   3620   3618   6900   6896     1  0.0000000  1.6038667  3
   3621   6923   6919   6922     1  0.0000000  1.6038667  3
   3622   3621   6923   6919     1  0.0000000  1.6038667  3
   3623   3621   6923   6919     1  0.0000000  1.6038667  3
   3625   3626   3638   3639     1  0.0000000  0.6508444  3
   3625   3626   3638   3640     1  0.0000000  0.6508444  3
   3625   3629   3641   3642     1  0.0000000  0.6508444  3
   3625   3629   3641   3643     1  0.0000000  0.6508444  3
   3625   3632   3635   3636     1  0.0000000  0.6508444  3
   3625   3632   3635   3637     1  0.0000000  0.6508444  3
   3626   3625   3629   3630     1  0.0000000  1.2552000  3
   3626   3625   3629   3631     1  0.0000000  1.2552000  3
   3626   3625   3632   3633     1  0.0000000  1.2552000  3
   3626   3625   3632   3634     1  0.0000000  1.2552000  3
   3626   3638   3650   3651     1  0.0000000  0.6508444  3
   3626   3638   3650   3652     1  0.0000000  0.6508444  3
   3627   3626   3625   3629     1  0.0000000  1.2552000  3
   3627   3626   3625   3632     1  0.0000000  1.2552000  3
   3627   3626   3638   3650     1  0.0000000  0.6508444  3
   3627   3626   3638   3639     1  0.0000000  0.6508444  3
   3627   3626   3638   3640     1  0.0000000  0.6508444  3
   3628   3626   3625   3629     1  0.0000000  1.2552000  3
   3628   3626   3625   3632     1  0.0000000  1.2552000  3
   3628   3626   3638   3650     1  0.0000000  0.6508444  3
   3628   3626   3638   3639     1  0.0000000  0.6508444  3
   3628   3626   3638   3640     1  0.0000000  0.6508444  3
   3629   3625   3632   3633     1  0.0000000  1.2552000  3
   3629   3625   3632   3634     1  0.0000000  1.2552000  3
   3629   3641   3647   3648     1  0.0000000  0.6508444  3
   3629   3641   3647   3649     1  0.0000000  0.6508444  3
   3630   3629   3625   3632     1  0.0000000  1.2552000  3
   3630   3629   3641   3647     1  0.0000000  0.6508444  3
   3630   3629   3641   3642     1  0.0000000  0.6508444  3
   3630   3629   3641   3643     1  0.0000000  0.6508444  3
   3631   3629   3625   3632     1  0.0000000  1.2552000  3
   3631   3629   3641   3647     1  0.0000000  0.6508444  3
   3631   3629   3641   3642     1  0.0000000  0.6508444  3
   3631   3629   3641   3643     1  0.0000000  0.6508444  3
   3632   3635   3644   3645     1  0.0000000  0.6508444  3
   3632   3635   3644   3646     1  0.0000000  0.6508444  3
   3633   3632   3635   3644     1  0.0000000  0.6508444  3
   3633   3632   3635   3636     1  0.0000000  0.6508444  3
   3633   3632   3635   3637     1  0.0000000  0.6508444  3
   3634   3632   3635   3644     1  0.0000000  0.6508444  3
   3634   3632   3635   3636     1  0.0000000  0.6508444  3
   3634   3632   3635   3637     1  0.0000000  0.6508444  3
   3636   3635   3644   3653     1  0.0000000  1.0460000  1
   3636   3635   3644   3653     1  0.0000000  0.0000000  3
   3636   3635   3644   3645     1  0.0000000  0.6508444  3
   3636   3635   3644   3646     1  0.0000000  0.6508444  3
   3637   3635   3644   3653     1  0.0000000  1.0460000  1
   3637   3635   3644   3653     1  0.0000000  0.0000000  3
   3637   3635   3644   3645     1  0.0000000  0.6508444  3
   3637   3635   3644   3646     1  0.0000000  0.6508444  3
   3639   3638   3650   6969     1  0.0000000  1.0460000  1
   3639   3638   3650   6969     1  0.0000000  0.0000000  3
   3639   3638   3650   3651     1  0.0000000  0.6508444  3
   3639   3638   3650   3652     1  0.0000000  0.6508444  3
   3640   3638   3650   6969     1  0.0000000  1.0460000  1
   3640   3638   3650   6969     1  0.0000000  0.0000000  3
   3640   3638   3650   3651     1  0.0000000  0.6508444  3
   3640   3638   3650   3652     1  0.0000000  0.6508444  3
   3642   3641   3647   6946     1  0.0000000  1.0460000  1
   3642   3641   3647   6946     1  0.0000000  0.0000000  3
   3642   3641   3647   3648     1  0.0000000  0.6508444  3
   3642   3641   3647   3649     1  0.0000000  0.6508444  3
   3643   3641   3647   6946     1  0.0000000  1.0460000  1
   3643   3641   3647   6946     1  0.0000000  0.0000000  3
   3643   3641   3647   3648     1  0.0000000  0.6508444  3
   3643   3641   3647   3649     1  0.0000000  0.6508444  3
   3647   6946   6942   6945     1  0.0000000  1.6038667  3
   3648   3647   6946   6942     1  0.0000000  1.6038667  3
   3649   3647   6946   6942     1  0.0000000  1.6038667  3
   3650   6969   6965   6968     1  0.0000000  1.6038667  3
   3651   3650   6969   6965     1  0.0000000  1.6038667  3
   3652   3650   6969   6965     1  0.0000000  1.6038667  3
   3654   3655   3667   3668     1  0.0000000  0.6508444  3
   3654   3655   3667   3669     1  0.0000000  0.6508444  3
   3654   3658   3670   3671     1  0.0000000  0.6508444  3
   3654   3658   3670   3672     1  0.0000000  0.6508444  3
   3654   3661   3664   3665     1  0.0000000  0.6508444  3
   3654   3661   3664   3666     1  0.0000000  0.6508444  3
   3655   3654   3658   3659     1  0.0000000  1.2552000  3
   3655   3654   3658   3660     1  0.0000000  1.2552000  3
   3655   3654   3661   3662     1  0.0000000  1.2552000  3
   3655   3654   3661   3663     1  0.0000000  1.2552000  3
   3655   3667   3679   3680     1  0.0000000  0.6508444  3
   3655   3667   3679   3681     1  0.0000000  0.6508444  3
   3656   3655   3654   3658     1  0.0000000  1.2552000  3
   3656   3655   3654   3661     1  0.0000000  1.2552000  3
   3656   3655   3667   3679     1  0.0000000  0.6508444  3
   3656   3655   3667   3668     1  0.0000000  0.6508444  3
   3656   3655   3667   3669     1  0.0000000  0.6508444  3
   3657   3655   3654   3658     1  0.0000000  1.2552000  3
   3657   3655   3654   3661     1  0.0000000  1.2552000  3
   3657   3655   3667   3679     1  0.0000000  0.6508444  3
   3657   3655   3667   3668     1  0.0000000  0.6508444  3
   3657   3655   3667   3669     1  0.0000000  0.6508444  3
   3658   3654   3661   3662     1  0.0000000  1.2552000  3
   3658   3654   3661   3663     1  0.0000000  1.2552000  3
   3658   3670   3676   3677     1  0.0000000  0.6508444  3
   3658   3670   3676   3678     1  0.0000000  0.6508444  3
   3659   3658   3654   3661     1  0.0000000  1.2552000  3
   3659   3658   3670   3676     1  0.0000000  0.6508444  3
   3659   3658   3670   3671     1  0.0000000  0.6508444  3
   3659   3658   3670   3672     1  0.0000000  0.6508444  3
   3660   3658   3654   3661     1  0.0000000  1.2552000  3
   3660   3658   3670   3676     1  0.0000000  0.6508444  3
   3660   3658   3670   3671     1  0.0000000  0.6508444  3
   3660   3658   3670   3672     1  0.0000000  0.6508444  3
   3661   3664   3673   3674     1  0.0000000  0.6508444  3
   3661   3664   3673   3675     1  0.0000000  0.6508444  3
   3662   3661   3664   3673     1  0.0000000  0.6508444  3
   3662   3661   3664   3665     1  0.0000000  0.6508444  3
   3662   3661   3664   3666     1  0.0000000  0.6508444  3
   3663   3661   3664   3673     1  0.0000000  0.6508444  3
   3663   3661   3664   3665     1  0.0000000  0.6508444  3
   3663   3661   3664   3666     1  0.0000000  0.6508444  3
   3665   3664   3673   3682     1  0.0000000  1.0460000  1
   3665   3664   3673   3682     1  0.0000000  0.0000000  3
   3665   3664   3673   3674     1  0.0000000  0.6508444  3
   3665   3664   3673   3675     1  0.0000000  0.6508444  3
   3666   3664   3673   3682     1  0.0000000  1.0460000  1
   3666   3664   3673   3682     1  0.0000000  0.0000000  3
   3666   3664   3673   3674     1  0.0000000  0.6508444  3
   3666   3664   3673   3675     1  0.0000000  0.6508444  3
   3668   3667   3679   7015     1  0.0000000  1.0460000  1
   3668   3667   3679   7015     1  0.0000000  0.0000000  3
   3668   3667   3679   3680     1  0.0000000  0.6508444  3
   3668   3667   3679   3681     1  0.0000000  0.6508444  3
   3669   3667   3679   7015     1  0.0000000  1.0460000  1
   3669   3667   3679   7015     1  0.0000000  0.0000000  3
   3669   3667   3679   3680     1  0.0000000  0.6508444  3
   3669   3667   3679   3681     1  0.0000000  0.6508444  3
   3671   3670   3676   6992     1  0.0000000  1.0460000  1
   3671   3670   3676   6992     1  0.0000000  0.0000000  3
   3671   3670   3676   3677     1  0.0000000  0.6508444  3
   3671   3670   3676   3678     1  0.0000000  0.6508444  3
   3672   3670   3676   6992     1  0.0000000  1.0460000  1
   3672   3670   3676   6992     1  0.0000000  0.0000000  3
   3672   3670   3676   3677     1  0.0000000  0.6508444  3
   3672   3670   3676   3678     1  0.0000000  0.6508444  3
   3676   6992   6988   6991     1  0.0000000  1.6038667  3
   3677   3676   6992   6988     1  0.0000000  1.6038667  3
   3678   3676   6992   6988     1  0.0000000  1.6038667  3
   3679   7015   7011   7014     1  0.0000000  1.6038667  3
   3680   3679   7015   7011     1  0.0000000  1.6038667  3
   3681   3679   7015   7011     1  0.0000000  1.6038667  3
   3683   3684   3696   3697     1  0.0000000  0.6508444  3
   3683   3684   3696   3698     1  0.0000000  0.6508444  3
   3683   3687   3699   3700     1  0.0000000  0.6508444  3
   3683   3687   3699   3701     1  0.0000000  0.6508444  3
   3683   3690   3693   3694     1  0.0000000  0.6508444  3
   3683   3690   3693   3695     1  0.0000000  0.6508444  3
   3684   3683   3687   3688     1  0.0000000  1.2552000  3
   3684   3683   3687   3689     1  0.0000000  1.2552000  3
   3684   3683   3690   3691     1  0.0000000  1.2552000  3
   3684   3683   3690   3692     1  0.0000000  1.2552000  3
   3684   3696   3708   3709     1  0.0000000  0.6508444  3
   3684   3696   3708   3710     1  0.0000000  0.6508444  3
   3685   3684   3683   3687     1  0.0000000  1.2552000  3
   3685   3684   3683   3690     1  0.0000000  1.2552000  3
   3685   3684   3696   3708     1  0.0000000  0.6508444  3
   3685   3684   3696   3697     1  0.0000000  0.6508444  3
   3685   3684   3696   3698     1  0.0000000  0.6508444  3
   3686   3684   3683   3687     1  0.0000000  1.2552000  3
   3686   3684   3683   3690     1  0.0000000  1.2552000  3
   3686   3684   3696   3708     1  0.0000000  0.6508444  3
   3686   3684   3696   3697     1  0.0000000  0.6508444  3
   3686   3684   3696   3698     1  0.0000000  0.6508444  3
   3687   3683   3690   3691     1  0.0000000  1.2552000  3
   3687   3683   3690   3692     1  0.0000000  1.2552000  3
   3687   3699   3705   3706     1  0.0000000  0.6508444  3
   3687   3699   3705   3707     1  0.0000000  0.6508444  3
   3688   3687   3683   3690     1  0.0000000  1.2552000  3
   3688   3687   3699   3705     1  0.0000000  0.6508444  3
   3688   3687   3699   3700     1  0.0000000  0.6508444  3
   3688   3687   3699   3701     1  0.0000000  0.6508444  3
   3689   3687   3683   3690     1  0.0000000  1.2552000  3
   3689   3687   3699   3705     1  0.0000000  0.6508444  3
   3689   3687   3699   3700     1  0.0000000  0.6508444  3
   3689   3687   3699   3701     1  0.0000000  0.6508444  3
   3690   3693   3702   3703     1  0.0000000  0.6508444  3
   3690   3693   3702   3704     1  0.0000000  0.6508444  3
   3691   3690   3693   3702     1  0.0000000  0.6508444  3
   3691   3690   3693   3694     1  0.0000000  0.6508444  3
   3691   3690   3693   3695     1  0.0000000  0.6508444  3
   3692   3690   3693   3702     1  0.0000000  0.6508444  3
   3692   3690   3693   3694     1  0.0000000  0.6508444  3
   3692   3690   3693   3695     1  0.0000000  0.6508444  3
   3694   3693   3702   3711     1  0.0000000  1.0460000  1
   3694   3693   3702   3711     1  0.0000000  0.0000000  3
   3694   3693   3702   3703     1  0.0000000  0.6508444  3
   3694   3693   3702   3704     1  0.0000000  0.6508444  3
   3695   3693   3702   3711     1  0.0000000  1.0460000  1
   3695   3693   3702   3711     1  0.0000000  0.0000000  3
   3695   3693   3702   3703     1  0.0000000  0.6508444  3
   3695   3693   3702   3704     1  0.0000000  0.6508444  3
   3697   3696   3708   7061     1  0.0000000  1.0460000  1
   3697   3696   3708   7061     1  0.0000000  0.0000000  3
   3697   3696   3708   3709     1  0.0000000  0.6508444  3
   3697   3696   3708   3710     1  0.0000000  0.6508444  3
   3698   3696   3708   7061     1  0.0000000  1.0460000  1
   3698   3696   3708   7061     1  0.0000000  0.0000000  3
   3698   3696   3708   3709     1  0.0000000  0.6508444  3
   3698   3696   3708   3710     1  0.0000000  0.6508444  3
   3700   3699   3705   7038     1  0.0000000  1.0460000  1
   3700   3699   3705   7038     1  0.0000000  0.0000000  3
   3700   3699   3705   3706     1  0.0000000  0.6508444  3
   3700   3699   3705   3707     1  0.0000000  0.6508444  3
   3701   3699   3705   7038     1  0.0000000  1.0460000  1
   3701   3699   3705   7038     1  0.0000000  0.0000000  3
   3701   3699   3705   3706     1  0.0000000  0.6508444  3
   3701   3699   3705   3707     1  0.0000000  0.6508444  3
   3705   7038   7034   7037     1  0.0000000  1.6038667  3
   3706   3705   7038   7034     1  0.0000000  1.6038667  3
   3707   3705   7038   7034     1  0.0000000  1.6038667  3
   3708   7061   7057   7060     1  0.0000000  1.6038667  3
   3709   3708   7061   7057     1  0.0000000  1.6038667  3
   3710   3708   7061   7057     1  0.0000000  1.6038667  3
   3712   3713   3725   3726     1  0.0000000  0.6508444  3
   3712   3713   3725   3727     1  0.0000000  0.6508444  3
   3712   3716   3728   3729     1  0.0000000  0.6508444  3
   3712   3716   3728   3730     1  0.0000000  0.6508444  3
   3712   3719   3722   3723     1  0.0000000  0.6508444  3
   3712   3719   3722   3724     1  0.0000000  0.6508444  3
   3713   3712   3716   3717     1  0.0000000  1.2552000  3
   3713   3712   3716   3718     1  0.0000000  1.2552000  3
   3713   3712   3719   3720     1  0.0000000  1.2552000  3
   3713   3712   3719   3721     1  0.0000000  1.2552000  3
   3713   3725   3737   3738     1  0.0000000  0.6508444  3
   3713   3725   3737   3739     1  0.0000000  0.6508444  3
   3714   3713   3712   3716     1  0.0000000  1.2552000  3
   3714   3713   3712   3719     1  0.0000000  1.2552000  3
   3714   3713   3725   3737     1  0.0000000  0.6508444  3
   3714   3713   3725   3726     1  0.0000000  0.6508444  3
   3714   3713   3725   3727     1  0.0000000  0.6508444  3
   3715   3713   3712   3716     1  0.0000000  1.2552000  3
   3715   3713   3712   3719     1  0.0000000  1.2552000  3
   3715   3713   3725   3737     1  0.0000000  0.6508444  3
   3715   3713   3725   3726     1  0.0000000  0.6508444  3
   3715   3713   3725   3727     1  0.0000000  0.6508444  3
   3716   3712   3719   3720     1  0.0000000  1.2552000  3
   3716   3712   3719   3721     1  0.0000000  1.2552000  3
   3716   3728   3734   3735     1  0.0000000  0.6508444  3
   3716   3728   3734   3736     1  0.0000000  0.6508444  3
   3717   3716   3712   3719     1  0.0000000  1.2552000  3
   3717   3716   3728   3734     1  0.0000000  0.6508444  3
   3717   3716   3728   3729     1  0.0000000  0.6508444  3
   3717   3716   3728   3730     1  0.0000000  0.6508444  3
   3718   3716   3712   3719     1  0.0000000  1.2552000  3
   3718   3716   3728   3734     1  0.0000000  0.6508444  3
   3718   3716   3728   3729     1  0.0000000  0.6508444  3
   3718   3716   3728   3730     1  0.0000000  0.6508444  3
   3719   3722   3731   3732     1  0.0000000  0.6508444  3
   3719   3722   3731   3733     1  0.0000000  0.6508444  3
   3720   3719   3722   3731     1  0.0000000  0.6508444  3
   3720   3719   3722   3723     1  0.0000000  0.6508444  3
   3720   3719   3722   3724     1  0.0000000  0.6508444  3
   3721   3719   3722   3731     1  0.0000000  0.6508444  3
   3721   3719   3722   3723     1  0.0000000  0.6508444  3
   3721   3719   3722   3724     1  0.0000000  0.6508444  3
   3723   3722   3731   3740     1  0.0000000  1.0460000  1
   3723   3722   3731   3740     1  0.0000000  0.0000000  3
   3723   3722   3731   3732     1  0.0000000  0.6508444  3
   3723   3722   3731   3733     1  0.0000000  0.6508444  3
   3724   3722   3731   3740     1  0.0000000  1.0460000  1
   3724   3722   3731   3740     1  0.0000000  0.0000000  3
   3724   3722   3731   3732     1  0.0000000  0.6508444  3
   3724   3722   3731   3733     1  0.0000000  0.6508444  3
   3726   3725   3737   7107     1  0.0000000  1.0460000  1
   3726   3725   3737   7107     1  0.0000000  0.0000000  3
   3726   3725   3737   3738     1  0.0000000  0.6508444  3
   3726   3725   3737   3739     1  0.0000000  0.6508444  3
   3727   3725   3737   7107     1  0.0000000  1.0460000  1
   3727   3725   3737   7107     1  0.0000000  0.0000000  3
   3727   3725   3737   3738     1  0.0000000  0.6508444  3
   3727   3725   3737   3739     1  0.0000000  0.6508444  3
   3729   3728   3734   7084     1  0.0000000  1.0460000  1
   3729   3728   3734   7084     1  0.0000000  0.0000000  3
   3729   3728   3734   3735     1  0.0000000  0.6508444  3
   3729   3728   3734   3736     1  0.0000000  0.6508444  3
   3730   3728   3734   7084     1  0.0000000  1.0460000  1
   3730   3728   3734   7084     1  0.0000000  0.0000000  3
   3730   3728   3734   3735     1  0.0000000  0.6508444  3
   3730   3728   3734   3736     1  0.0000000  0.6508444  3
   3734   7084   7080   7083     1  0.0000000  1.6038667  3
   3735   3734   7084   7080     1  0.0000000  1.6038667  3
   3736   3734   7084   7080     1  0.0000000  1.6038667  3
   3737   7107   7103   7106     1  0.0000000  1.6038667  3
   3738   3737   7107   7103     1  0.0000000  1.6038667  3
   3739   3737   7107   7103     1  0.0000000  1.6038667  3
   3741   3742   3754   3755     1  0.0000000  0.6508444  3
   3741   3742   3754   3756     1  0.0000000  0.6508444  3
   3741   3745   3757   3758     1  0.0000000  0.6508444  3
   3741   3745   3757   3759     1  0.0000000  0.6508444  3
   3741   3748   3751   3752     1  0.0000000  0.6508444  3
   3741   3748   3751   3753     1  0.0000000  0.6508444  3
   3742   3741   3745   3746     1  0.0000000  1.2552000  3
   3742   3741   3745   3747     1  0.0000000  1.2552000  3
   3742   3741   3748   3749     1  0.0000000  1.2552000  3
   3742   3741   3748   3750     1  0.0000000  1.2552000  3
   3742   3754   3766   3767     1  0.0000000  0.6508444  3
   3742   3754   3766   3768     1  0.0000000  0.6508444  3
   3743   3742   3741   3745     1  0.0000000  1.2552000  3
   3743   3742   3741   3748     1  0.0000000  1.2552000  3
   3743   3742   3754   3766     1  0.0000000  0.6508444  3
   3743   3742   3754   3755     1  0.0000000  0.6508444  3
   3743   3742   3754   3756     1  0.0000000  0.6508444  3
   3744   3742   3741   3745     1  0.0000000  1.2552000  3
   3744   3742   3741   3748     1  0.0000000  1.2552000  3
   3744   3742   3754   3766     1  0.0000000  0.6508444  3
   3744   3742   3754   3755     1  0.0000000  0.6508444  3
   3744   3742   3754   3756     1  0.0000000  0.6508444  3
   3745   3741   3748   3749     1  0.0000000  1.2552000  3
   3745   3741   3748   3750     1  0.0000000  1.2552000  3
   3745   3757   3763   3764     1  0.0000000  0.6508444  3
   3745   3757   3763   3765     1  0.0000000  0.6508444  3
   3746   3745   3741   3748     1  0.0000000  1.2552000  3
   3746   3745   3757   3763     1  0.0000000  0.6508444  3
   3746   3745   3757   3758     1  0.0000000  0.6508444  3
   3746   3745   3757   3759     1  0.0000000  0.6508444  3
   3747   3745   3741   3748     1  0.0000000  1.2552000  3
   3747   3745   3757   3763     1  0.0000000  0.6508444  3
   3747   3745   3757   3758     1  0.0000000  0.6508444  3
   3747   3745   3757   3759     1  0.0000000  0.6508444  3
   3748   3751   3760   3761     1  0.0000000  0.6508444  3
   3748   3751   3760   3762     1  0.0000000  0.6508444  3
   3749   3748   3751   3760     1  0.0000000  0.6508444  3
   3749   3748   3751   3752     1  0.0000000  0.6508444  3
   3749   3748   3751   3753     1  0.0000000  0.6508444  3
   3750   3748   3751   3760     1  0.0000000  0.6508444  3
   3750   3748   3751   3752     1  0.0000000  0.6508444  3
   3750   3748   3751   3753     1  0.0000000  0.6508444  3
   3752   3751   3760   3769     1  0.0000000  1.0460000  1
   3752   3751   3760   3769     1  0.0000000  0.0000000  3
   3752   3751   3760   3761     1  0.0000000  0.6508444  3
   3752   3751   3760   3762     1  0.0000000  0.6508444  3
   3753   3751   3760   3769     1  0.0000000  1.0460000  1
   3753   3751   3760   3769     1  0.0000000  0.0000000  3
   3753   3751   3760   3761     1  0.0000000  0.6508444  3
   3753   3751   3760   3762     1  0.0000000  0.6508444  3
   3755   3754   3766   7153     1  0.0000000  1.0460000  1
   3755   3754   3766   7153     1  0.0000000  0.0000000  3
   3755   3754   3766   3767     1  0.0000000  0.6508444  3
   3755   3754   3766   3768     1  0.0000000  0.6508444  3
   3756   3754   3766   7153     1  0.0000000  1.0460000  1
   3756   3754   3766   7153     1  0.0000000  0.0000000  3
   3756   3754   3766   3767     1  0.0000000  0.6508444  3
   3756   3754   3766   3768     1  0.0000000  0.6508444  3
   3758   3757   3763   7130     1  0.0000000  1.0460000  1
   3758   3757   3763   7130     1  0.0000000  0.0000000  3
   3758   3757   3763   3764     1  0.0000000  0.6508444  3
   3758   3757   3763   3765     1  0.0000000  0.6508444  3
   3759   3757   3763   7130     1  0.0000000  1.0460000  1
   3759   3757   3763   7130     1  0.0000000  0.0000000  3
   3759   3757   3763   3764     1  0.0000000  0.6508444  3
   3759   3757   3763   3765     1  0.0000000  0.6508444  3
   3763   7130   7126   7129     1  0.0000000  1.6038667  3
   3764   3763   7130   7126     1  0.0000000  1.6038667  3
   3765   3763   7130   7126     1  0.0000000  1.6038667  3
   3766   7153   7149   7152     1  0.0000000  1.6038667  3
   3767   3766   7153   7149     1  0.0000000  1.6038667  3
   3768   3766   7153   7149     1  0.0000000  1.6038667  3
   3770   3771   3783   3784     1  0.0000000  0.6508444  3
   3770   3771   3783   3785     1  0.0000000  0.6508444  3
   3770   3774   3786   3787     1  0.0000000  0.6508444  3
   3770   3774   3786   3788     1  0.0000000  0.6508444  3
   3770   3777   3780   3781     1  0.0000000  0.6508444  3
   3770   3777   3780   3782     1  0.0000000  0.6508444  3
   3771   3770   3774   3775     1  0.0000000  1.2552000  3
   3771   3770   3774   3776     1  0.0000000  1.2552000  3
   3771   3770   3777   3778     1  0.0000000  1.2552000  3
   3771   3770   3777   3779     1  0.0000000  1.2552000  3
   3771   3783   3795   3796     1  0.0000000  0.6508444  3
   3771   3783   3795   3797     1  0.0000000  0.6508444  3
   3772   3771   3770   3774     1  0.0000000  1.2552000  3
   3772   3771   3770   3777     1  0.0000000  1.2552000  3
   3772   3771   3783   3795     1  0.0000000  0.6508444  3
   3772   3771   3783   3784     1  0.0000000  0.6508444  3
   3772   3771   3783   3785     1  0.0000000  0.6508444  3
   3773   3771   3770   3774     1  0.0000000  1.2552000  3
   3773   3771   3770   3777     1  0.0000000  1.2552000  3
   3773   3771   3783   3795     1  0.0000000  0.6508444  3
   3773   3771   3783   3784     1  0.0000000  0.6508444  3
   3773   3771   3783   3785     1  0.0000000  0.6508444  3
   3774   3770   3777   3778     1  0.0000000  1.2552000  3
   3774   3770   3777   3779     1  0.0000000  1.2552000  3
   3774   3786   3792   3793     1  0.0000000  0.6508444  3
   3774   3786   3792   3794     1  0.0000000  0.6508444  3
   3775   3774   3770   3777     1  0.0000000  1.2552000  3
   3775   3774   3786   3792     1  0.0000000  0.6508444  3
   3775   3774   3786   3787     1  0.0000000  0.6508444  3
   3775   3774   3786   3788     1  0.0000000  0.6508444  3
   3776   3774   3770   3777     1  0.0000000  1.2552000  3
   3776   3774   3786   3792     1  0.0000000  0.6508444  3
   3776   3774   3786   3787     1  0.0000000  0.6508444  3
   3776   3774   3786   3788     1  0.0000000  0.6508444  3
   3777   3780   3789   3790     1  0.0000000  0.6508444  3
   3777   3780   3789   3791     1  0.0000000  0.6508444  3
   3778   3777   3780   3789     1  0.0000000  0.6508444  3
   3778   3777   3780   3781     1  0.0000000  0.6508444  3
   3778   3777   3780   3782     1  0.0000000  0.6508444  3
   3779   3777   3780   3789     1  0.0000000  0.6508444  3
   3779   3777   3780   3781     1  0.0000000  0.6508444  3
   3779   3777   3780   3782     1  0.0000000  0.6508444  3
   3781   3780   3789   3798     1  0.0000000  1.0460000  1
   3781   3780   3789   3798     1  0.0000000  0.0000000  3
   3781   3780   3789   3790     1  0.0000000  0.6508444  3
   3781   3780   3789   3791     1  0.0000000  0.6508444  3
   3782   3780   3789   3798     1  0.0000000  1.0460000  1
   3782   3780   3789   3798     1  0.0000000  0.0000000  3
   3782   3780   3789   3790     1  0.0000000  0.6508444  3
   3782   3780   3789   3791     1  0.0000000  0.6508444  3
   3784   3783   3795   7199     1  0.0000000  1.0460000  1
   3784   3783   3795   7199     1  0.0000000  0.0000000  3
   3784   3783   3795   3796     1  0.0000000  0.6508444  3
   3784   3783   3795   3797     1  0.0000000  0.6508444  3
   3785   3783   3795   7199     1  0.0000000  1.0460000  1
   3785   3783   3795   7199     1  0.0000000  0.0000000  3
   3785   3783   3795   3796     1  0.0000000  0.6508444  3
   3785   3783   3795   3797     1  0.0000000  0.6508444  3
   3787   3786   3792   7176     1  0.0000000  1.0460000  1
   3787   3786   3792   7176     1  0.0000000  0.0000000  3
   3787   3786   3792   3793     1  0.0000000  0.6508444  3
   3787   3786   3792   3794     1  0.0000000  0.6508444  3
   3788   3786   3792   7176     1  0.0000000  1.0460000  1
   3788   3786   3792   7176     1  0.0000000  0.0000000  3
   3788   3786   3792   3793     1  0.0000000  0.6508444  3
   3788   3786   3792   3794     1  0.0000000  0.6508444  3
   3792   7176   7172   7175     1  0.0000000  1.6038667  3
   3793   3792   7176   7172     1  0.0000000  1.6038667  3
   3794   3792   7176   7172     1  0.0000000  1.6038667  3
   3795   7199   7195   7198     1  0.0000000  1.6038667  3
   3796   3795   7199   7195     1  0.0000000  1.6038667  3
   3797   3795   7199   7195     1  0.0000000  1.6038667  3
   3799   3800   3812   3813     1  0.0000000  0.6508444  3
   3799   3800   3812   3814     1  0.0000000  0.6508444  3
   3799   3803   3815   3816     1  0.0000000  0.6508444  3
   3799   3803   3815   3817     1  0.0000000  0.6508444  3
   3799   3806   3809   3810     1  0.0000000  0.6508444  3
   3799   3806   3809   3811     1  0.0000000  0.6508444  3
   3800   3799   3803   3804     1  0.0000000  1.2552000  3
   3800   3799   3803   3805     1  0.0000000  1.2552000  3
   3800   3799   3806   3807     1  0.0000000  1.2552000  3
   3800   3799   3806   3808     1  0.0000000  1.2552000  3
   3800   3812   3824   3825     1  0.0000000  0.6508444  3
   3800   3812   3824   3826     1  0.0000000  0.6508444  3
   3801   3800   3799   3803     1  0.0000000  1.2552000  3
   3801   3800   3799   3806     1  0.0000000  1.2552000  3
   3801   3800   3812   3824     1  0.0000000  0.6508444  3
   3801   3800   3812   3813     1  0.0000000  0.6508444  3
   3801   3800   3812   3814     1  0.0000000  0.6508444  3
   3802   3800   3799   3803     1  0.0000000  1.2552000  3
   3802   3800   3799   3806     1  0.0000000  1.2552000  3
   3802   3800   3812   3824     1  0.0000000  0.6508444  3
   3802   3800   3812   3813     1  0.0000000  0.6508444  3
   3802   3800   3812   3814     1  0.0000000  0.6508444  3
   3803   3799   3806   3807     1  0.0000000  1.2552000  3
   3803   3799   3806   3808     1  0.0000000  1.2552000  3
   3803   3815   3821   3822     1  0.0000000  0.6508444  3
   3803   3815   3821   3823     1  0.0000000  0.6508444  3
   3804   3803   3799   3806     1  0.0000000  1.2552000  3
   3804   3803   3815   3821     1  0.0000000  0.6508444  3
   3804   3803   3815   3816     1  0.0000000  0.6508444  3
   3804   3803   3815   3817     1  0.0000000  0.6508444  3
   3805   3803   3799   3806     1  0.0000000  1.2552000  3
   3805   3803   3815   3821     1  0.0000000  0.6508444  3
   3805   3803   3815   3816     1  0.0000000  0.6508444  3
   3805   3803   3815   3817     1  0.0000000  0.6508444  3
   3806   3809   3818   3819     1  0.0000000  0.6508444  3
   3806   3809   3818   3820     1  0.0000000  0.6508444  3
   3807   3806   3809   3818     1  0.0000000  0.6508444  3
   3807   3806   3809   3810     1  0.0000000  0.6508444  3
   3807   3806   3809   3811     1  0.0000000  0.6508444  3
   3808   3806   3809   3818     1  0.0000000  0.6508444  3
   3808   3806   3809   3810     1  0.0000000  0.6508444  3
   3808   3806   3809   3811     1  0.0000000  0.6508444  3
   3810   3809   3818   3827     1  0.0000000  1.0460000  1
   3810   3809   3818   3827     1  0.0000000  0.0000000  3
   3810   3809   3818   3819     1  0.0000000  0.6508444  3
   3810   3809   3818   3820     1  0.0000000  0.6508444  3
   3811   3809   3818   3827     1  0.0000000  1.0460000  1
   3811   3809   3818   3827     1  0.0000000  0.0000000  3
   3811   3809   3818   3819     1  0.0000000  0.6508444  3
   3811   3809   3818   3820     1  0.0000000  0.6508444  3
   3813   3812   3824   7245     1  0.0000000  1.0460000  1
   3813   3812   3824   7245     1  0.0000000  0.0000000  3
   3813   3812   3824   3825     1  0.0000000  0.6508444  3
   3813   3812   3824   3826     1  0.0000000  0.6508444  3
   3814   3812   3824   7245     1  0.0000000  1.0460000  1
   3814   3812   3824   7245     1  0.0000000  0.0000000  3
   3814   3812   3824   3825     1  0.0000000  0.6508444  3
   3814   3812   3824   3826     1  0.0000000  0.6508444  3
   3816   3815   3821   7222     1  0.0000000  1.0460000  1
   3816   3815   3821   7222     1  0.0000000  0.0000000  3
   3816   3815   3821   3822     1  0.0000000  0.6508444  3
   3816   3815   3821   3823     1  0.0000000  0.6508444  3
   3817   3815   3821   7222     1  0.0000000  1.0460000  1
   3817   3815   3821   7222     1  0.0000000  0.0000000  3
   3817   3815   3821   3822     1  0.0000000  0.6508444  3
   3817   3815   3821   3823     1  0.0000000  0.6508444  3
   3821   7222   7218   7221     1  0.0000000  1.6038667  3
   3822   3821   7222   7218     1  0.0000000  1.6038667  3
   3823   3821   7222   7218     1  0.0000000  1.6038667  3
   3824   7245   7241   7244     1  0.0000000  1.6038667  3
   3825   3824   7245   7241     1  0.0000000  1.6038667  3
   3826   3824   7245   7241     1  0.0000000  1.6038667  3
   3828   3829   3841   3842     1  0.0000000  0.6508444  3
   3828   3829   3841   3843     1  0.0000000  0.6508444  3
   3828   3832   3844   3845     1  0.0000000  0.6508444  3
   3828   3832   3844   3846     1  0.0000000  0.6508444  3
   3828   3835   3838   3839     1  0.0000000  0.6508444  3
   3828   3835   3838   3840     1  0.0000000  0.6508444  3
   3829   3828   3832   3833     1  0.0000000  1.2552000  3
   3829   3828   3832   3834     1  0.0000000  1.2552000  3
   3829   3828   3835   3836     1  0.0000000  1.2552000  3
   3829   3828   3835   3837     1  0.0000000  1.2552000  3
   3829   3841   3853   3854     1  0.0000000  0.6508444  3
   3829   3841   3853   3855     1  0.0000000  0.6508444  3
   3830   3829   3828   3832     1  0.0000000  1.2552000  3
   3830   3829   3828   3835     1  0.0000000  1.2552000  3
   3830   3829   3841   3853     1  0.0000000  0.6508444  3
   3830   3829   3841   3842     1  0.0000000  0.6508444  3
   3830   3829   3841   3843     1  0.0000000  0.6508444  3
   3831   3829   3828   3832     1  0.0000000  1.2552000  3
   3831   3829   3828   3835     1  0.0000000  1.2552000  3
   3831   3829   3841   3853     1  0.0000000  0.6508444  3
   3831   3829   3841   3842     1  0.0000000  0.6508444  3
   3831   3829   3841   3843     1  0.0000000  0.6508444  3
   3832   3828   3835   3836     1  0.0000000  1.2552000  3
   3832   3828   3835   3837     1  0.0000000  1.2552000  3
   3832   3844   3850   3851     1  0.0000000  0.6508444  3
   3832   3844   3850   3852     1  0.0000000  0.6508444  3
   3833   3832   3828   3835     1  0.0000000  1.2552000  3
   3833   3832   3844   3850     1  0.0000000  0.6508444  3
   3833   3832   3844   3845     1  0.0000000  0.6508444  3
   3833   3832   3844   3846     1  0.0000000  0.6508444  3
   3834   3832   3828   3835     1  0.0000000  1.2552000  3
   3834   3832   3844   3850     1  0.0000000  0.6508444  3
   3834   3832   3844   3845     1  0.0000000  0.6508444  3
   3834   3832   3844   3846     1  0.0000000  0.6508444  3
   3835   3838   3847   3848     1  0.0000000  0.6508444  3
   3835   3838   3847   3849     1  0.0000000  0.6508444  3
   3836   3835   3838   3847     1  0.0000000  0.6508444  3
   3836   3835   3838   3839     1  0.0000000  0.6508444  3
   3836   3835   3838   3840     1  0.0000000  0.6508444  3
   3837   3835   3838   3847     1  0.0000000  0.6508444  3
   3837   3835   3838   3839     1  0.0000000  0.6508444  3
   3837   3835   3838   3840     1  0.0000000  0.6508444  3
   3839   3838   3847   3856     1  0.0000000  1.0460000  1
   3839   3838   3847   3856     1  0.0000000  0.0000000  3
   3839   3838   3847   3848     1  0.0000000  0.6508444  3
   3839   3838   3847   3849     1  0.0000000  0.6508444  3
   3840   3838   3847   3856     1  0.0000000  1.0460000  1
   3840   3838   3847   3856     1  0.0000000  0.0000000  3
   3840   3838   3847   3848     1  0.0000000  0.6508444  3
   3840   3838   3847   3849     1  0.0000000  0.6508444  3
   3842   3841   3853   7291     1  0.0000000  1.0460000  1
   3842   3841   3853   7291     1  0.0000000  0.0000000  3
   3842   3841   3853   3854     1  0.0000000  0.6508444  3
   3842   3841   3853   3855     1  0.0000000  0.6508444  3
   3843   3841   3853   7291     1  0.0000000  1.0460000  1
   3843   3841   3853   7291     1  0.0000000  0.0000000  3
   3843   3841   3853   3854     1  0.0000000  0.6508444  3
   3843   3841   3853   3855     1  0.0000000  0.6508444  3
   3845   3844   3850   7268     1  0.0000000  1.0460000  1
   3845   3844   3850   7268     1  0.0000000  0.0000000  3
   3845   3844   3850   3851     1  0.0000000  0.6508444  3
   3845   3844   3850   3852     1  0.0000000  0.6508444  3
   3846   3844   3850   7268     1  0.0000000  1.0460000  1
   3846   3844   3850   7268     1  0.0000000  0.0000000  3
   3846   3844   3850   3851     1  0.0000000  0.6508444  3
   3846   3844   3850   3852     1  0.0000000  0.6508444  3
   3850   7268   7264   7267     1  0.0000000  1.6038667  3
   3851   3850   7268   7264     1  0.0000000  1.6038667  3
   3852   3850   7268   7264     1  0.0000000  1.6038667  3
   3853   7291   7287   7290     1  0.0000000  1.6038667  3
   3854   3853   7291   7287     1  0.0000000  1.6038667  3
   3855   3853   7291   7287     1  0.0000000  1.6038667  3
   3857   3858   3870   3871     1  0.0000000  0.6508444  3
   3857   3858   3870   3872     1  0.0000000  0.6508444  3
   3857   3861   3873   3874     1  0.0000000  0.6508444  3
   3857   3861   3873   3875     1  0.0000000  0.6508444  3
   3857   3864   3867   3868     1  0.0000000  0.6508444  3
   3857   3864   3867   3869     1  0.0000000  0.6508444  3
   3858   3857   3861   3862     1  0.0000000  1.2552000  3
   3858   3857   3861   3863     1  0.0000000  1.2552000  3
   3858   3857   3864   3865     1  0.0000000  1.2552000  3
   3858   3857   3864   3866     1  0.0000000  1.2552000  3
   3858   3870   3882   3883     1  0.0000000  0.6508444  3
   3858   3870   3882   3884     1  0.0000000  0.6508444  3
   3859   3858   3857   3861     1  0.0000000  1.2552000  3
   3859   3858   3857   3864     1  0.0000000  1.2552000  3
   3859   3858   3870   3882     1  0.0000000  0.6508444  3
   3859   3858   3870   3871     1  0.0000000  0.6508444  3
   3859   3858   3870   3872     1  0.0000000  0.6508444  3
   3860   3858   3857   3861     1  0.0000000  1.2552000  3
   3860   3858   3857   3864     1  0.0000000  1.2552000  3
   3860   3858   3870   3882     1  0.0000000  0.6508444  3
   3860   3858   3870   3871     1  0.0000000  0.6508444  3
   3860   3858   3870   3872     1  0.0000000  0.6508444  3
   3861   3857   3864   3865     1  0.0000000  1.2552000  3
   3861   3857   3864   3866     1  0.0000000  1.2552000  3
   3861   3873   3879   3880     1  0.0000000  0.6508444  3
   3861   3873   3879   3881     1  0.0000000  0.6508444  3
   3862   3861   3857   3864     1  0.0000000  1.2552000  3
   3862   3861   3873   3879     1  0.0000000  0.6508444  3
   3862   3861   3873   3874     1  0.0000000  0.6508444  3
   3862   3861   3873   3875     1  0.0000000  0.6508444  3
   3863   3861   3857   3864     1  0.0000000  1.2552000  3
   3863   3861   3873   3879     1  0.0000000  0.6508444  3
   3863   3861   3873   3874     1  0.0000000  0.6508444  3
   3863   3861   3873   3875     1  0.0000000  0.6508444  3
   3864   3867   3876   3877     1  0.0000000  0.6508444  3
   3864   3867   3876   3878     1  0.0000000  0.6508444  3
   3865   3864   3867   3876     1  0.0000000  0.6508444  3
   3865   3864   3867   3868     1  0.0000000  0.6508444  3
   3865   3864   3867   3869     1  0.0000000  0.6508444  3
   3866   3864   3867   3876     1  0.0000000  0.6508444  3
   3866   3864   3867   3868     1  0.0000000  0.6508444  3
   3866   3864   3867   3869     1  0.0000000  0.6508444  3
   3868   3867   3876   3885     1  0.0000000  1.0460000  1
   3868   3867   3876   3885     1  0.0000000  0.0000000  3
   3868   3867   3876   3877     1  0.0000000  0.6508444  3
   3868   3867   3876   3878     1  0.0000000  0.6508444  3
   3869   3867   3876   3885     1  0.0000000  1.0460000  1
   3869   3867   3876   3885     1  0.0000000  0.0000000  3
   3869   3867   3876   3877     1  0.0000000  0.6508444  3
   3869   3867   3876   3878     1  0.0000000  0.6508444  3
   3871   3870   3882   7337     1  0.0000000  1.0460000  1
   3871   3870   3882   7337     1  0.0000000  0.0000000  3
   3871   3870   3882   3883     1  0.0000000  0.6508444  3
   3871   3870   3882   3884     1  0.0000000  0.6508444  3
   3872   3870   3882   7337     1  0.0000000  1.0460000  1
   3872   3870   3882   7337     1  0.0000000  0.0000000  3
   3872   3870   3882   3883     1  0.0000000  0.6508444  3
   3872   3870   3882   3884     1  0.0000000  0.6508444  3
   3874   3873   3879   7314     1  0.0000000  1.0460000  1
   3874   3873   3879   7314     1  0.0000000  0.0000000  3
   3874   3873   3879   3880     1  0.0000000  0.6508444  3
   3874   3873   3879   3881     1  0.0000000  0.6508444  3
   3875   3873   3879   7314     1  0.0000000  1.0460000  1
   3875   3873   3879   7314     1  0.0000000  0.0000000  3
   3875   3873   3879   3880     1  0.0000000  0.6508444  3
   3875   3873   3879   3881     1  0.0000000  0.6508444  3
   3879   7314   7310   7313     1  0.0000000  1.6038667  3
   3880   3879   7314   7310     1  0.0000000  1.6038667  3
   3881   3879   7314   7310     1  0.0000000  1.6038667  3
   3882   7337   7333   7336     1  0.0000000  1.6038667  3
   3883   3882   7337   7333     1  0.0000000  1.6038667  3
   3884   3882   7337   7333     1  0.0000000  1.6038667  3
   3886   3887   3899   3900     1  0.0000000  0.6508444  3
   3886   3887   3899   3901     1  0.0000000  0.6508444  3
   3886   3890   3902   3903     1  0.0000000  0.6508444  3
   3886   3890   3902   3904     1  0.0000000  0.6508444  3
   3886   3893   3896   3897     1  0.0000000  0.6508444  3
   3886   3893   3896   3898     1  0.0000000  0.6508444  3
   3887   3886   3890   3891     1  0.0000000  1.2552000  3
   3887   3886   3890   3892     1  0.0000000  1.2552000  3
   3887   3886   3893   3894     1  0.0000000  1.2552000  3
   3887   3886   3893   3895     1  0.0000000  1.2552000  3
   3887   3899   3911   3912     1  0.0000000  0.6508444  3
   3887   3899   3911   3913     1  0.0000000  0.6508444  3
   3888   3887   3886   3890     1  0.0000000  1.2552000  3
   3888   3887   3886   3893     1  0.0000000  1.2552000  3
   3888   3887   3899   3911     1  0.0000000  0.6508444  3
   3888   3887   3899   3900     1  0.0000000  0.6508444  3
   3888   3887   3899   3901     1  0.0000000  0.6508444  3
   3889   3887   3886   3890     1  0.0000000  1.2552000  3
   3889   3887   3886   3893     1  0.0000000  1.2552000  3
   3889   3887   3899   3911     1  0.0000000  0.6508444  3
   3889   3887   3899   3900     1  0.0000000  0.6508444  3
   3889   3887   3899   3901     1  0.0000000  0.6508444  3
   3890   3886   3893   3894     1  0.0000000  1.2552000  3
   3890   3886   3893   3895     1  0.0000000  1.2552000  3
   3890   3902   3908   3909     1  0.0000000  0.6508444  3
   3890   3902   3908   3910     1  0.0000000  0.6508444  3
   3891   3890   3886   3893     1  0.0000000  1.2552000  3
   3891   3890   3902   3908     1  0.0000000  0.6508444  3
   3891   3890   3902   3903     1  0.0000000  0.6508444  3
   3891   3890   3902   3904     1  0.0000000  0.6508444  3
   3892   3890   3886   3893     1  0.0000000  1.2552000  3
   3892   3890   3902   3908     1  0.0000000  0.6508444  3
   3892   3890   3902   3903     1  0.0000000  0.6508444  3
   3892   3890   3902   3904     1  0.0000000  0.6508444  3
   3893   3896   3905   3906     1  0.0000000  0.6508444  3
   3893   3896   3905   3907     1  0.0000000  0.6508444  3
   3894   3893   3896   3905     1  0.0000000  0.6508444  3
   3894   3893   3896   3897     1  0.0000000  0.6508444  3
   3894   3893   3896   3898     1  0.0000000  0.6508444  3
   3895   3893   3896   3905     1  0.0000000  0.6508444  3
   3895   3893   3896   3897     1  0.0000000  0.6508444  3
   3895   3893   3896   3898     1  0.0000000  0.6508444  3
   3897   3896   3905   3914     1  0.0000000  1.0460000  1
   3897   3896   3905   3914     1  0.0000000  0.0000000  3
   3897   3896   3905   3906     1  0.0000000  0.6508444  3
   3897   3896   3905   3907     1  0.0000000  0.6508444  3
   3898   3896   3905   3914     1  0.0000000  1.0460000  1
   3898   3896   3905   3914     1  0.0000000  0.0000000  3
   3898   3896   3905   3906     1  0.0000000  0.6508444  3
   3898   3896   3905   3907     1  0.0000000  0.6508444  3
   3900   3899   3911   7383     1  0.0000000  1.0460000  1
   3900   3899   3911   7383     1  0.0000000  0.0000000  3
   3900   3899   3911   3912     1  0.0000000  0.6508444  3
   3900   3899   3911   3913     1  0.0000000  0.6508444  3
   3901   3899   3911   7383     1  0.0000000  1.0460000  1
   3901   3899   3911   7383     1  0.0000000  0.0000000  3
   3901   3899   3911   3912     1  0.0000000  0.6508444  3
   3901   3899   3911   3913     1  0.0000000  0.6508444  3
   3903   3902   3908   7360     1  0.0000000  1.0460000  1
   3903   3902   3908   7360     1  0.0000000  0.0000000  3
   3903   3902   3908   3909     1  0.0000000  0.6508444  3
   3903   3902   3908   3910     1  0.0000000  0.6508444  3
   3904   3902   3908   7360     1  0.0000000  1.0460000  1
   3904   3902   3908   7360     1  0.0000000  0.0000000  3
   3904   3902   3908   3909     1  0.0000000  0.6508444  3
   3904   3902   3908   3910     1  0.0000000  0.6508444  3
   3908   7360   7356   7359     1  0.0000000  1.6038667  3
   3909   3908   7360   7356     1  0.0000000  1.6038667  3
   3910   3908   7360   7356     1  0.0000000  1.6038667  3
   3911   7383   7379   7382     1  0.0000000  1.6038667  3
   3912   3911   7383   7379     1  0.0000000  1.6038667  3
   3913   3911   7383   7379     1  0.0000000  1.6038667  3
   3915   3916   3928   3929     1  0.0000000  0.6508444  3
   3915   3916   3928   3930     1  0.0000000  0.6508444  3
   3915   3919   3931   3932     1  0.0000000  0.6508444  3
   3915   3919   3931   3933     1  0.0000000  0.6508444  3
   3915   3922   3925   3926     1  0.0000000  0.6508444  3
   3915   3922   3925   3927     1  0.0000000  0.6508444  3
   3916   3915   3919   3920     1  0.0000000  1.2552000  3
   3916   3915   3919   3921     1  0.0000000  1.2552000  3
   3916   3915   3922   3923     1  0.0000000  1.2552000  3
   3916   3915   3922   3924     1  0.0000000  1.2552000  3
   3916   3928   3940   3941     1  0.0000000  0.6508444  3
   3916   3928   3940   3942     1  0.0000000  0.6508444  3
   3917   3916   3915   3919     1  0.0000000  1.2552000  3
   3917   3916   3915   3922     1  0.0000000  1.2552000  3
   3917   3916   3928   3940     1  0.0000000  0.6508444  3
   3917   3916   3928   3929     1  0.0000000  0.6508444  3
   3917   3916   3928   3930     1  0.0000000  0.6508444  3
   3918   3916   3915   3919     1  0.0000000  1.2552000  3
   3918   3916   3915   3922     1  0.0000000  1.2552000  3
   3918   3916   3928   3940     1  0.0000000  0.6508444  3
   3918   3916   3928   3929     1  0.0000000  0.6508444  3
   3918   3916   3928   3930     1  0.0000000  0.6508444  3
   3919   3915   3922   3923     1  0.0000000  1.2552000  3
   3919   3915   3922   3924     1  0.0000000  1.2552000  3
   3919   3931   3937   3938     1  0.0000000  0.6508444  3
   3919   3931   3937   3939     1  0.0000000  0.6508444  3
   3920   3919   3915   3922     1  0.0000000  1.2552000  3
   3920   3919   3931   3937     1  0.0000000  0.6508444  3
   3920   3919   3931   3932     1  0.0000000  0.6508444  3
   3920   3919   3931   3933     1  0.0000000  0.6508444  3
   3921   3919   3915   3922     1  0.0000000  1.2552000  3
   3921   3919   3931   3937     1  0.0000000  0.6508444  3
   3921   3919   3931   3932     1  0.0000000  0.6508444  3
   3921   3919   3931   3933     1  0.0000000  0.6508444  3
   3922   3925   3934   3935     1  0.0000000  0.6508444  3
   3922   3925   3934   3936     1  0.0000000  0.6508444  3
   3923   3922   3925   3934     1  0.0000000  0.6508444  3
   3923   3922   3925   3926     1  0.0000000  0.6508444  3
   3923   3922   3925   3927     1  0.0000000  0.6508444  3
   3924   3922   3925   3934     1  0.0000000  0.6508444  3
   3924   3922   3925   3926     1  0.0000000  0.6508444  3
   3924   3922   3925   3927     1  0.0000000  0.6508444  3
   3926   3925   3934   3943     1  0.0000000  1.0460000  1
   3926   3925   3934   3943     1  0.0000000  0.0000000  3
   3926   3925   3934   3935     1  0.0000000  0.6508444  3
   3926   3925   3934   3936     1  0.0000000  0.6508444  3
   3927   3925   3934   3943     1  0.0000000  1.0460000  1
   3927   3925   3934   3943     1  0.0000000  0.0000000  3
   3927   3925   3934   3935     1  0.0000000  0.6508444  3
   3927   3925   3934   3936     1  0.0000000  0.6508444  3
   3929   3928   3940   7429     1  0.0000000  1.0460000  1
   3929   3928   3940   7429     1  0.0000000  0.0000000  3
   3929   3928   3940   3941     1  0.0000000  0.6508444  3
   3929   3928   3940   3942     1  0.0000000  0.6508444  3
   3930   3928   3940   7429     1  0.0000000  1.0460000  1
   3930   3928   3940   7429     1  0.0000000  0.0000000  3
   3930   3928   3940   3941     1  0.0000000  0.6508444  3
   3930   3928   3940   3942     1  0.0000000  0.6508444  3
   3932   3931   3937   7406     1  0.0000000  1.0460000  1
   3932   3931   3937   7406     1  0.0000000  0.0000000  3
   3932   3931   3937   3938     1  0.0000000  0.6508444  3
   3932   3931   3937   3939     1  0.0000000  0.6508444  3
   3933   3931   3937   7406     1  0.0000000  1.0460000  1
   3933   3931   3937   7406     1  0.0000000  0.0000000  3
   3933   3931   3937   3938     1  0.0000000  0.6508444  3
   3933   3931   3937   3939     1  0.0000000  0.6508444  3
   3937   7406   7402   7405     1  0.0000000  1.6038667  3
   3938   3937   7406   7402     1  0.0000000  1.6038667  3
   3939   3937   7406   7402     1  0.0000000  1.6038667  3
   3940   7429   7425   7428     1  0.0000000  1.6038667  3
   3941   3940   7429   7425     1  0.0000000  1.6038667  3
   3942   3940   7429   7425     1  0.0000000  1.6038667  3
   3944   3945   3957   3958     1  0.0000000  0.6508444  3
   3944   3945   3957   3959     1  0.0000000  0.6508444  3
   3944   3948   3960   3961     1  0.0000000  0.6508444  3
   3944   3948   3960   3962     1  0.0000000  0.6508444  3
   3944   3951   3954   3955     1  0.0000000  0.6508444  3
   3944   3951   3954   3956     1  0.0000000  0.6508444  3
   3945   3944   3948   3949     1  0.0000000  1.2552000  3
   3945   3944   3948   3950     1  0.0000000  1.2552000  3
   3945   3944   3951   3952     1  0.0000000  1.2552000  3
   3945   3944   3951   3953     1  0.0000000  1.2552000  3
   3945   3957   3969   3970     1  0.0000000  0.6508444  3
   3945   3957   3969   3971     1  0.0000000  0.6508444  3
   3946   3945   3944   3948     1  0.0000000  1.2552000  3
   3946   3945   3944   3951     1  0.0000000  1.2552000  3
   3946   3945   3957   3969     1  0.0000000  0.6508444  3
   3946   3945   3957   3958     1  0.0000000  0.6508444  3
   3946   3945   3957   3959     1  0.0000000  0.6508444  3
   3947   3945   3944   3948     1  0.0000000  1.2552000  3
   3947   3945   3944   3951     1  0.0000000  1.2552000  3
   3947   3945   3957   3969     1  0.0000000  0.6508444  3
   3947   3945   3957   3958     1  0.0000000  0.6508444  3
   3947   3945   3957   3959     1  0.0000000  0.6508444  3
   3948   3944   3951   3952     1  0.0000000  1.2552000  3
   3948   3944   3951   3953     1  0.0000000  1.2552000  3
   3948   3960   3966   3967     1  0.0000000  0.6508444  3
   3948   3960   3966   3968     1  0.0000000  0.6508444  3
   3949   3948   3944   3951     1  0.0000000  1.2552000  3
   3949   3948   3960   3966     1  0.0000000  0.6508444  3
   3949   3948   3960   3961     1  0.0000000  0.6508444  3
   3949   3948   3960   3962     1  0.0000000  0.6508444  3
   3950   3948   3944   3951     1  0.0000000  1.2552000  3
   3950   3948   3960   3966     1  0.0000000  0.6508444  3
   3950   3948   3960   3961     1  0.0000000  0.6508444  3
   3950   3948   3960   3962     1  0.0000000  0.6508444  3
   3951   3954   3963   3964     1  0.0000000  0.6508444  3
   3951   3954   3963   3965     1  0.0000000  0.6508444  3
   3952   3951   3954   3963     1  0.0000000  0.6508444  3
   3952   3951   3954   3955     1  0.0000000  0.6508444  3
   3952   3951   3954   3956     1  0.0000000  0.6508444  3
   3953   3951   3954   3963     1  0.0000000  0.6508444  3
   3953   3951   3954   3955     1  0.0000000  0.6508444  3
   3953   3951   3954   3956     1  0.0000000  0.6508444  3
   3955   3954   3963   3972     1  0.0000000  1.0460000  1
   3955   3954   3963   3972     1  0.0000000  0.0000000  3
   3955   3954   3963   3964     1  0.0000000  0.6508444  3
   3955   3954   3963   3965     1  0.0000000  0.6508444  3
   3956   3954   3963   3972     1  0.0000000  1.0460000  1
   3956   3954   3963   3972     1  0.0000000  0.0000000  3
   3956   3954   3963   3964     1  0.0000000  0.6508444  3
   3956   3954   3963   3965     1  0.0000000  0.6508444  3
   3958   3957   3969   7475     1  0.0000000  1.0460000  1
   3958   3957   3969   7475     1  0.0000000  0.0000000  3
   3958   3957   3969   3970     1  0.0000000  0.6508444  3
   3958   3957   3969   3971     1  0.0000000  0.6508444  3
   3959   3957   3969   7475     1  0.0000000  1.0460000  1
   3959   3957   3969   7475     1  0.0000000  0.0000000  3
   3959   3957   3969   3970     1  0.0000000  0.6508444  3
   3959   3957   3969   3971     1  0.0000000  0.6508444  3
   3961   3960   3966   7452     1  0.0000000  1.0460000  1
   3961   3960   3966   7452     1  0.0000000  0.0000000  3
   3961   3960   3966   3967     1  0.0000000  0.6508444  3
   3961   3960   3966   3968     1  0.0000000  0.6508444  3
   3962   3960   3966   7452     1  0.0000000  1.0460000  1
   3962   3960   3966   7452     1  0.0000000  0.0000000  3
   3962   3960   3966   3967     1  0.0000000  0.6508444  3
   3962   3960   3966   3968     1  0.0000000  0.6508444  3
   3966   7452   7448   7451     1  0.0000000  1.6038667  3
   3967   3966   7452   7448     1  0.0000000  1.6038667  3
   3968   3966   7452   7448     1  0.0000000  1.6038667  3
   3969   7475   7471   7474     1  0.0000000  1.6038667  3
   3970   3969   7475   7471     1  0.0000000  1.6038667  3
   3971   3969   7475   7471     1  0.0000000  1.6038667  3
   3973   3974   3986   3987     1  0.0000000  0.6508444  3
   3973   3974   3986   3988     1  0.0000000  0.6508444  3
   3973   3977   3989   3990     1  0.0000000  0.6508444  3
   3973   3977   3989   3991     1  0.0000000  0.6508444  3
   3973   3980   3983   3984     1  0.0000000  0.6508444  3
   3973   3980   3983   3985     1  0.0000000  0.6508444  3
   3974   3973   3977   3978     1  0.0000000  1.2552000  3
   3974   3973   3977   3979     1  0.0000000  1.2552000  3
   3974   3973   3980   3981     1  0.0000000  1.2552000  3
   3974   3973   3980   3982     1  0.0000000  1.2552000  3
   3974   3986   3998   3999     1  0.0000000  0.6508444  3
   3974   3986   3998   4000     1  0.0000000  0.6508444  3
   3975   3974   3973   3977     1  0.0000000  1.2552000  3
   3975   3974   3973   3980     1  0.0000000  1.2552000  3
   3975   3974   3986   3998     1  0.0000000  0.6508444  3
   3975   3974   3986   3987     1  0.0000000  0.6508444  3
   3975   3974   3986   3988     1  0.0000000  0.6508444  3
   3976   3974   3973   3977     1  0.0000000  1.2552000  3
   3976   3974   3973   3980     1  0.0000000  1.2552000  3
   3976   3974   3986   3998     1  0.0000000  0.6508444  3
   3976   3974   3986   3987     1  0.0000000  0.6508444  3
   3976   3974   3986   3988     1  0.0000000  0.6508444  3
   3977   3973   3980   3981     1  0.0000000  1.2552000  3
   3977   3973   3980   3982     1  0.0000000  1.2552000  3
   3977   3989   3995   3996     1  0.0000000  0.6508444  3
   3977   3989   3995   3997     1  0.0000000  0.6508444  3
   3978   3977   3973   3980     1  0.0000000  1.2552000  3
   3978   3977   3989   3995     1  0.0000000  0.6508444  3
   3978   3977   3989   3990     1  0.0000000  0.6508444  3
   3978   3977   3989   3991     1  0.0000000  0.6508444  3
   3979   3977   3973   3980     1  0.0000000  1.2552000  3
   3979   3977   3989   3995     1  0.0000000  0.6508444  3
   3979   3977   3989   3990     1  0.0000000  0.6508444  3
   3979   3977   3989   3991     1  0.0000000  0.6508444  3
   3980   3983   3992   3993     1  0.0000000  0.6508444  3
   3980   3983   3992   3994     1  0.0000000  0.6508444  3
   3981   3980   3983   3992     1  0.0000000  0.6508444  3
   3981   3980   3983   3984     1  0.0000000  0.6508444  3
   3981   3980   3983   3985     1  0.0000000  0.6508444  3
   3982   3980   3983   3992     1  0.0000000  0.6508444  3
   3982   3980   3983   3984     1  0.0000000  0.6508444  3
   3982   3980   3983   3985     1  0.0000000  0.6508444  3
   3984   3983   3992   4001     1  0.0000000  1.0460000  1
   3984   3983   3992   4001     1  0.0000000  0.0000000  3
   3984   3983   3992   3993     1  0.0000000  0.6508444  3
   3984   3983   3992   3994     1  0.0000000  0.6508444  3
   3985   3983   3992   4001     1  0.0000000  1.0460000  1
   3985   3983   3992   4001     1  0.0000000  0.0000000  3
   3985   3983   3992   3993     1  0.0000000  0.6508444  3
   3985   3983   3992   3994     1  0.0000000  0.6508444  3
   3987   3986   3998   7521     1  0.0000000  1.0460000  1
   3987   3986   3998   7521     1  0.0000000  0.0000000  3
   3987   3986   3998   3999     1  0.0000000  0.6508444  3
   3987   3986   3998   4000     1  0.0000000  0.6508444  3
   3988   3986   3998   7521     1  0.0000000  1.0460000  1
   3988   3986   3998   7521     1  0.0000000  0.0000000  3
   3988   3986   3998   3999     1  0.0000000  0.6508444  3
   3988   3986   3998   4000     1  0.0000000  0.6508444  3
   3990   3989   3995   7498     1  0.0000000  1.0460000  1
   3990   3989   3995   7498     1  0.0000000  0.0000000  3
   3990   3989   3995   3996     1  0.0000000  0.6508444  3
   3990   3989   3995   3997     1  0.0000000  0.6508444  3
   3991   3989   3995   7498     1  0.0000000  1.0460000  1
   3991   3989   3995   7498     1  0.0000000  0.0000000  3
   3991   3989   3995   3996     1  0.0000000  0.6508444  3
   3991   3989   3995   3997     1  0.0000000  0.6508444  3
   3995   7498   7494   7497     1  0.0000000  1.6038667  3
   3996   3995   7498   7494     1  0.0000000  1.6038667  3
   3997   3995   7498   7494     1  0.0000000  1.6038667  3
   3998   7521   7517   7520     1  0.0000000  1.6038667  3
   3999   3998   7521   7517     1  0.0000000  1.6038667  3
   4000   3998   7521   7517     1  0.0000000  1.6038667  3
   4002   4003   4015   4016     1  0.0000000  0.6508444  3
   4002   4003   4015   4017     1  0.0000000  0.6508444  3
   4002   4006   4018   4019     1  0.0000000  0.6508444  3
   4002   4006   4018   4020     1  0.0000000  0.6508444  3
   4002   4009   4012   4013     1  0.0000000  0.6508444  3
   4002   4009   4012   4014     1  0.0000000  0.6508444  3
   4003   4002   4006   4007     1  0.0000000  1.2552000  3
   4003   4002   4006   4008     1  0.0000000  1.2552000  3
   4003   4002   4009   4010     1  0.0000000  1.2552000  3
   4003   4002   4009   4011     1  0.0000000  1.2552000  3
   4003   4015   4027   4028     1  0.0000000  0.6508444  3
   4003   4015   4027   4029     1  0.0000000  0.6508444  3
   4004   4003   4002   4006     1  0.0000000  1.2552000  3
   4004   4003   4002   4009     1  0.0000000  1.2552000  3
   4004   4003   4015   4027     1  0.0000000  0.6508444  3
   4004   4003   4015   4016     1  0.0000000  0.6508444  3
   4004   4003   4015   4017     1  0.0000000  0.6508444  3
   4005   4003   4002   4006     1  0.0000000  1.2552000  3
   4005   4003   4002   4009     1  0.0000000  1.2552000  3
   4005   4003   4015   4027     1  0.0000000  0.6508444  3
   4005   4003   4015   4016     1  0.0000000  0.6508444  3
   4005   4003   4015   4017     1  0.0000000  0.6508444  3
   4006   4002   4009   4010     1  0.0000000  1.2552000  3
   4006   4002   4009   4011     1  0.0000000  1.2552000  3
   4006   4018   4024   4025     1  0.0000000  0.6508444  3
   4006   4018   4024   4026     1  0.0000000  0.6508444  3
   4007   4006   4002   4009     1  0.0000000  1.2552000  3
   4007   4006   4018   4024     1  0.0000000  0.6508444  3
   4007   4006   4018   4019     1  0.0000000  0.6508444  3
   4007   4006   4018   4020     1  0.0000000  0.6508444  3
   4008   4006   4002   4009     1  0.0000000  1.2552000  3
   4008   4006   4018   4024     1  0.0000000  0.6508444  3
   4008   4006   4018   4019     1  0.0000000  0.6508444  3
   4008   4006   4018   4020     1  0.0000000  0.6508444  3
   4009   4012   4021   4022     1  0.0000000  0.6508444  3
   4009   4012   4021   4023     1  0.0000000  0.6508444  3
   4010   4009   4012   4021     1  0.0000000  0.6508444  3
   4010   4009   4012   4013     1  0.0000000  0.6508444  3
   4010   4009   4012   4014     1  0.0000000  0.6508444  3
   4011   4009   4012   4021     1  0.0000000  0.6508444  3
   4011   4009   4012   4013     1  0.0000000  0.6508444  3
   4011   4009   4012   4014     1  0.0000000  0.6508444  3
   4013   4012   4021   4030     1  0.0000000  1.0460000  1
   4013   4012   4021   4030     1  0.0000000  0.0000000  3
   4013   4012   4021   4022     1  0.0000000  0.6508444  3
   4013   4012   4021   4023     1  0.0000000  0.6508444  3
   4014   4012   4021   4030     1  0.0000000  1.0460000  1
   4014   4012   4021   4030     1  0.0000000  0.0000000  3
   4014   4012   4021   4022     1  0.0000000  0.6508444  3
   4014   4012   4021   4023     1  0.0000000  0.6508444  3
   4016   4015   4027   7567     1  0.0000000  1.0460000  1
   4016   4015   4027   7567     1  0.0000000  0.0000000  3
   4016   4015   4027   4028     1  0.0000000  0.6508444  3
   4016   4015   4027   4029     1  0.0000000  0.6508444  3
   4017   4015   4027   7567     1  0.0000000  1.0460000  1
   4017   4015   4027   7567     1  0.0000000  0.0000000  3
   4017   4015   4027   4028     1  0.0000000  0.6508444  3
   4017   4015   4027   4029     1  0.0000000  0.6508444  3
   4019   4018   4024   7544     1  0.0000000  1.0460000  1
   4019   4018   4024   7544     1  0.0000000  0.0000000  3
   4019   4018   4024   4025     1  0.0000000  0.6508444  3
   4019   4018   4024   4026     1  0.0000000  0.6508444  3
   4020   4018   4024   7544     1  0.0000000  1.0460000  1
   4020   4018   4024   7544     1  0.0000000  0.0000000  3
   4020   4018   4024   4025     1  0.0000000  0.6508444  3
   4020   4018   4024   4026     1  0.0000000  0.6508444  3
   4024   7544   7540   7543     1  0.0000000  1.6038667  3
   4025   4024   7544   7540     1  0.0000000  1.6038667  3
   4026   4024   7544   7540     1  0.0000000  1.6038667  3
   4027   7567   7563   7566     1  0.0000000  1.6038667  3
   4028   4027   7567   7563     1  0.0000000  1.6038667  3
   4029   4027   7567   7563     1  0.0000000  1.6038667  3
   4031   4032   4044   4045     1  0.0000000  0.6508444  3
   4031   4032   4044   4046     1  0.0000000  0.6508444  3
   4031   4035   4047   4048     1  0.0000000  0.6508444  3
   4031   4035   4047   4049     1  0.0000000  0.6508444  3
   4031   4038   4041   4042     1  0.0000000  0.6508444  3
   4031   4038   4041   4043     1  0.0000000  0.6508444  3
   4032   4031   4035   4036     1  0.0000000  1.2552000  3
   4032   4031   4035   4037     1  0.0000000  1.2552000  3
   4032   4031   4038   4039     1  0.0000000  1.2552000  3
   4032   4031   4038   4040     1  0.0000000  1.2552000  3
   4032   4044   4056   4057     1  0.0000000  0.6508444  3
   4032   4044   4056   4058     1  0.0000000  0.6508444  3
   4033   4032   4031   4035     1  0.0000000  1.2552000  3
   4033   4032   4031   4038     1  0.0000000  1.2552000  3
   4033   4032   4044   4056     1  0.0000000  0.6508444  3
   4033   4032   4044   4045     1  0.0000000  0.6508444  3
   4033   4032   4044   4046     1  0.0000000  0.6508444  3
   4034   4032   4031   4035     1  0.0000000  1.2552000  3
   4034   4032   4031   4038     1  0.0000000  1.2552000  3
   4034   4032   4044   4056     1  0.0000000  0.6508444  3
   4034   4032   4044   4045     1  0.0000000  0.6508444  3
   4034   4032   4044   4046     1  0.0000000  0.6508444  3
   4035   4031   4038   4039     1  0.0000000  1.2552000  3
   4035   4031   4038   4040     1  0.0000000  1.2552000  3
   4035   4047   4053   4054     1  0.0000000  0.6508444  3
   4035   4047   4053   4055     1  0.0000000  0.6508444  3
   4036   4035   4031   4038     1  0.0000000  1.2552000  3
   4036   4035   4047   4053     1  0.0000000  0.6508444  3
   4036   4035   4047   4048     1  0.0000000  0.6508444  3
   4036   4035   4047   4049     1  0.0000000  0.6508444  3
   4037   4035   4031   4038     1  0.0000000  1.2552000  3
   4037   4035   4047   4053     1  0.0000000  0.6508444  3
   4037   4035   4047   4048     1  0.0000000  0.6508444  3
   4037   4035   4047   4049     1  0.0000000  0.6508444  3
   4038   4041   4050   4051     1  0.0000000  0.6508444  3
   4038   4041   4050   4052     1  0.0000000  0.6508444  3
   4039   4038   4041   4050     1  0.0000000  0.6508444  3
   4039   4038   4041   4042     1  0.0000000  0.6508444  3
   4039   4038   4041   4043     1  0.0000000  0.6508444  3
   4040   4038   4041   4050     1  0.0000000  0.6508444  3
   4040   4038   4041   4042     1  0.0000000  0.6508444  3
   4040   4038   4041   4043     1  0.0000000  0.6508444  3
   4042   4041   4050   4059     1  0.0000000  1.0460000  1
   4042   4041   4050   4059     1  0.0000000  0.0000000  3
   4042   4041   4050   4051     1  0.0000000  0.6508444  3
   4042   4041   4050   4052     1  0.0000000  0.6508444  3
   4043   4041   4050   4059     1  0.0000000  1.0460000  1
   4043   4041   4050   4059     1  0.0000000  0.0000000  3
   4043   4041   4050   4051     1  0.0000000  0.6508444  3
   4043   4041   4050   4052     1  0.0000000  0.6508444  3
   4045   4044   4056   7613     1  0.0000000  1.0460000  1
   4045   4044   4056   7613     1  0.0000000  0.0000000  3
   4045   4044   4056   4057     1  0.0000000  0.6508444  3
   4045   4044   4056   4058     1  0.0000000  0.6508444  3
   4046   4044   4056   7613     1  0.0000000  1.0460000  1
   4046   4044   4056   7613     1  0.0000000  0.0000000  3
   4046   4044   4056   4057     1  0.0000000  0.6508444  3
   4046   4044   4056   4058     1  0.0000000  0.6508444  3
   4048   4047   4053   7590     1  0.0000000  1.0460000  1
   4048   4047   4053   7590     1  0.0000000  0.0000000  3
   4048   4047   4053   4054     1  0.0000000  0.6508444  3
   4048   4047   4053   4055     1  0.0000000  0.6508444  3
   4049   4047   4053   7590     1  0.0000000  1.0460000  1
   4049   4047   4053   7590     1  0.0000000  0.0000000  3
   4049   4047   4053   4054     1  0.0000000  0.6508444  3
   4049   4047   4053   4055     1  0.0000000  0.6508444  3
   4053   7590   7586   7589     1  0.0000000  1.6038667  3
   4054   4053   7590   7586     1  0.0000000  1.6038667  3
   4055   4053   7590   7586     1  0.0000000  1.6038667  3
   4056   7613   7609   7612     1  0.0000000  1.6038667  3
   4057   4056   7613   7609     1  0.0000000  1.6038667  3
   4058   4056   7613   7609     1  0.0000000  1.6038667  3
   4060   4061   4073   4074     1  0.0000000  0.6508444  3
   4060   4061   4073   4075     1  0.0000000  0.6508444  3
   4060   4064   4076   4077     1  0.0000000  0.6508444  3
   4060   4064   4076   4078     1  0.0000000  0.6508444  3
   4060   4067   4070   4071     1  0.0000000  0.6508444  3
   4060   4067   4070   4072     1  0.0000000  0.6508444  3
   4061   4060   4064   4065     1  0.0000000  1.2552000  3
   4061   4060   4064   4066     1  0.0000000  1.2552000  3
   4061   4060   4067   4068     1  0.0000000  1.2552000  3
   4061   4060   4067   4069     1  0.0000000  1.2552000  3
   4061   4073   4085   4086     1  0.0000000  0.6508444  3
   4061   4073   4085   4087     1  0.0000000  0.6508444  3
   4062   4061   4060   4064     1  0.0000000  1.2552000  3
   4062   4061   4060   4067     1  0.0000000  1.2552000  3
   4062   4061   4073   4085     1  0.0000000  0.6508444  3
   4062   4061   4073   4074     1  0.0000000  0.6508444  3
   4062   4061   4073   4075     1  0.0000000  0.6508444  3
   4063   4061   4060   4064     1  0.0000000  1.2552000  3
   4063   4061   4060   4067     1  0.0000000  1.2552000  3
   4063   4061   4073   4085     1  0.0000000  0.6508444  3
   4063   4061   4073   4074     1  0.0000000  0.6508444  3
   4063   4061   4073   4075     1  0.0000000  0.6508444  3
   4064   4060   4067   4068     1  0.0000000  1.2552000  3
   4064   4060   4067   4069     1  0.0000000  1.2552000  3
   4064   4076   4082   4083     1  0.0000000  0.6508444  3
   4064   4076   4082   4084     1  0.0000000  0.6508444  3
   4065   4064   4060   4067     1  0.0000000  1.2552000  3
   4065   4064   4076   4082     1  0.0000000  0.6508444  3
   4065   4064   4076   4077     1  0.0000000  0.6508444  3
   4065   4064   4076   4078     1  0.0000000  0.6508444  3
   4066   4064   4060   4067     1  0.0000000  1.2552000  3
   4066   4064   4076   4082     1  0.0000000  0.6508444  3
   4066   4064   4076   4077     1  0.0000000  0.6508444  3
   4066   4064   4076   4078     1  0.0000000  0.6508444  3
   4067   4070   4079   4080     1  0.0000000  0.6508444  3
   4067   4070   4079   4081     1  0.0000000  0.6508444  3
   4068   4067   4070   4079     1  0.0000000  0.6508444  3
   4068   4067   4070   4071     1  0.0000000  0.6508444  3
   4068   4067   4070   4072     1  0.0000000  0.6508444  3
   4069   4067   4070   4079     1  0.0000000  0.6508444  3
   4069   4067   4070   4071     1  0.0000000  0.6508444  3
   4069   4067   4070   4072     1  0.0000000  0.6508444  3
   4071   4070   4079   4088     1  0.0000000  1.0460000  1
   4071   4070   4079   4088     1  0.0000000  0.0000000  3
   4071   4070   4079   4080     1  0.0000000  0.6508444  3
   4071   4070   4079   4081     1  0.0000000  0.6508444  3
   4072   4070   4079   4088     1  0.0000000  1.0460000  1
   4072   4070   4079   4088     1  0.0000000  0.0000000  3
   4072   4070   4079   4080     1  0.0000000  0.6508444  3
   4072   4070   4079   4081     1  0.0000000  0.6508444  3
   4074   4073   4085   7659     1  0.0000000  1.0460000  1
   4074   4073   4085   7659     1  0.0000000  0.0000000  3
   4074   4073   4085   4086     1  0.0000000  0.6508444  3
   4074   4073   4085   4087     1  0.0000000  0.6508444  3
   4075   4073   4085   7659     1  0.0000000  1.0460000  1
   4075   4073   4085   7659     1  0.0000000  0.0000000  3
   4075   4073   4085   4086     1  0.0000000  0.6508444  3
   4075   4073   4085   4087     1  0.0000000  0.6508444  3
   4077   4076   4082   7636     1  0.0000000  1.0460000  1
   4077   4076   4082   7636     1  0.0000000  0.0000000  3
   4077   4076   4082   4083     1  0.0000000  0.6508444  3
   4077   4076   4082   4084     1  0.0000000  0.6508444  3
   4078   4076   4082   7636     1  0.0000000  1.0460000  1
   4078   4076   4082   7636     1  0.0000000  0.0000000  3
   4078   4076   4082   4083     1  0.0000000  0.6508444  3
   4078   4076   4082   4084     1  0.0000000  0.6508444  3
   4082   7636   7632   7635     1  0.0000000  1.6038667  3
   4083   4082   7636   7632     1  0.0000000  1.6038667  3
   4084   4082   7636   7632     1  0.0000000  1.6038667  3
   4085   7659   7655   7658     1  0.0000000  1.6038667  3
   4086   4085   7659   7655     1  0.0000000  1.6038667  3
   4087   4085   7659   7655     1  0.0000000  1.6038667  3
   4089   4090   4102   4103     1  0.0000000  0.6508444  3
   4089   4090   4102   4104     1  0.0000000  0.6508444  3
   4089   4093   4105   4106     1  0.0000000  0.6508444  3
   4089   4093   4105   4107     1  0.0000000  0.6508444  3
   4089   4096   4099   4100     1  0.0000000  0.6508444  3
   4089   4096   4099   4101     1  0.0000000  0.6508444  3
   4090   4089   4093   4094     1  0.0000000  1.2552000  3
   4090   4089   4093   4095     1  0.0000000  1.2552000  3
   4090   4089   4096   4097     1  0.0000000  1.2552000  3
   4090   4089   4096   4098     1  0.0000000  1.2552000  3
   4090   4102   4114   4115     1  0.0000000  0.6508444  3
   4090   4102   4114   4116     1  0.0000000  0.6508444  3
   4091   4090   4089   4093     1  0.0000000  1.2552000  3
   4091   4090   4089   4096     1  0.0000000  1.2552000  3
   4091   4090   4102   4114     1  0.0000000  0.6508444  3
   4091   4090   4102   4103     1  0.0000000  0.6508444  3
   4091   4090   4102   4104     1  0.0000000  0.6508444  3
   4092   4090   4089   4093     1  0.0000000  1.2552000  3
   4092   4090   4089   4096     1  0.0000000  1.2552000  3
   4092   4090   4102   4114     1  0.0000000  0.6508444  3
   4092   4090   4102   4103     1  0.0000000  0.6508444  3
   4092   4090   4102   4104     1  0.0000000  0.6508444  3
   4093   4089   4096   4097     1  0.0000000  1.2552000  3
   4093   4089   4096   4098     1  0.0000000  1.2552000  3
   4093   4105   4111   4112     1  0.0000000  0.6508444  3
   4093   4105   4111   4113     1  0.0000000  0.6508444  3
   4094   4093   4089   4096     1  0.0000000  1.2552000  3
   4094   4093   4105   4111     1  0.0000000  0.6508444  3
   4094   4093   4105   4106     1  0.0000000  0.6508444  3
   4094   4093   4105   4107     1  0.0000000  0.6508444  3
   4095   4093   4089   4096     1  0.0000000  1.2552000  3
   4095   4093   4105   4111     1  0.0000000  0.6508444  3
   4095   4093   4105   4106     1  0.0000000  0.6508444  3
   4095   4093   4105   4107     1  0.0000000  0.6508444  3
   4096   4099   4108   4109     1  0.0000000  0.6508444  3
   4096   4099   4108   4110     1  0.0000000  0.6508444  3
   4097   4096   4099   4108     1  0.0000000  0.6508444  3
   4097   4096   4099   4100     1  0.0000000  0.6508444  3
   4097   4096   4099   4101     1  0.0000000  0.6508444  3
   4098   4096   4099   4108     1  0.0000000  0.6508444  3
   4098   4096   4099   4100     1  0.0000000  0.6508444  3
   4098   4096   4099   4101     1  0.0000000  0.6508444  3
   4100   4099   4108   4117     1  0.0000000  1.0460000  1
   4100   4099   4108   4117     1  0.0000000  0.0000000  3
   4100   4099   4108   4109     1  0.0000000  0.6508444  3
   4100   4099   4108   4110     1  0.0000000  0.6508444  3
   4101   4099   4108   4117     1  0.0000000  1.0460000  1
   4101   4099   4108   4117     1  0.0000000  0.0000000  3
   4101   4099   4108   4109     1  0.0000000  0.6508444  3
   4101   4099   4108   4110     1  0.0000000  0.6508444  3
   4103   4102   4114   7705     1  0.0000000  1.0460000  1
   4103   4102   4114   7705     1  0.0000000  0.0000000  3
   4103   4102   4114   4115     1  0.0000000  0.6508444  3
   4103   4102   4114   4116     1  0.0000000  0.6508444  3
   4104   4102   4114   7705     1  0.0000000  1.0460000  1
   4104   4102   4114   7705     1  0.0000000  0.0000000  3
   4104   4102   4114   4115     1  0.0000000  0.6508444  3
   4104   4102   4114   4116     1  0.0000000  0.6508444  3
   4106   4105   4111   7682     1  0.0000000  1.0460000  1
   4106   4105   4111   7682     1  0.0000000  0.0000000  3
   4106   4105   4111   4112     1  0.0000000  0.6508444  3
   4106   4105   4111   4113     1  0.0000000  0.6508444  3
   4107   4105   4111   7682     1  0.0000000  1.0460000  1
   4107   4105   4111   7682     1  0.0000000  0.0000000  3
   4107   4105   4111   4112     1  0.0000000  0.6508444  3
   4107   4105   4111   4113     1  0.0000000  0.6508444  3
   4111   7682   7678   7681     1  0.0000000  1.6038667  3
   4112   4111   7682   7678     1  0.0000000  1.6038667  3
   4113   4111   7682   7678     1  0.0000000  1.6038667  3
   4114   7705   7701   7704     1  0.0000000  1.6038667  3
   4115   4114   7705   7701     1  0.0000000  1.6038667  3
   4116   4114   7705   7701     1  0.0000000  1.6038667  3
   4118   4119   4131   4132     1  0.0000000  0.6508444  3
   4118   4119   4131   4133     1  0.0000000  0.6508444  3
   4118   4122   4134   4135     1  0.0000000  0.6508444  3
   4118   4122   4134   4136     1  0.0000000  0.6508444  3
   4118   4125   4128   4129     1  0.0000000  0.6508444  3
   4118   4125   4128   4130     1  0.0000000  0.6508444  3
   4119   4118   4122   4123     1  0.0000000  1.2552000  3
   4119   4118   4122   4124     1  0.0000000  1.2552000  3
   4119   4118   4125   4126     1  0.0000000  1.2552000  3
   4119   4118   4125   4127     1  0.0000000  1.2552000  3
   4119   4131   4143   4144     1  0.0000000  0.6508444  3
   4119   4131   4143   4145     1  0.0000000  0.6508444  3
   4120   4119   4118   4122     1  0.0000000  1.2552000  3
   4120   4119   4118   4125     1  0.0000000  1.2552000  3
   4120   4119   4131   4143     1  0.0000000  0.6508444  3
   4120   4119   4131   4132     1  0.0000000  0.6508444  3
   4120   4119   4131   4133     1  0.0000000  0.6508444  3
   4121   4119   4118   4122     1  0.0000000  1.2552000  3
   4121   4119   4118   4125     1  0.0000000  1.2552000  3
   4121   4119   4131   4143     1  0.0000000  0.6508444  3
   4121   4119   4131   4132     1  0.0000000  0.6508444  3
   4121   4119   4131   4133     1  0.0000000  0.6508444  3
   4122   4118   4125   4126     1  0.0000000  1.2552000  3
   4122   4118   4125   4127     1  0.0000000  1.2552000  3
   4122   4134   4140   4141     1  0.0000000  0.6508444  3
   4122   4134   4140   4142     1  0.0000000  0.6508444  3
   4123   4122   4118   4125     1  0.0000000  1.2552000  3
   4123   4122   4134   4140     1  0.0000000  0.6508444  3
   4123   4122   4134   4135     1  0.0000000  0.6508444  3
   4123   4122   4134   4136     1  0.0000000  0.6508444  3
   4124   4122   4118   4125     1  0.0000000  1.2552000  3
   4124   4122   4134   4140     1  0.0000000  0.6508444  3
   4124   4122   4134   4135     1  0.0000000  0.6508444  3
   4124   4122   4134   4136     1  0.0000000  0.6508444  3
   4125   4128   4137   4138     1  0.0000000  0.6508444  3
   4125   4128   4137   4139     1  0.0000000  0.6508444  3
   4126   4125   4128   4137     1  0.0000000  0.6508444  3
   4126   4125   4128   4129     1  0.0000000  0.6508444  3
   4126   4125   4128   4130     1  0.0000000  0.6508444  3
   4127   4125   4128   4137     1  0.0000000  0.6508444  3
   4127   4125   4128   4129     1  0.0000000  0.6508444  3
   4127   4125   4128   4130     1  0.0000000  0.6508444  3
   4129   4128   4137   4146     1  0.0000000  1.0460000  1
   4129   4128   4137   4146     1  0.0000000  0.0000000  3
   4129   4128   4137   4138     1  0.0000000  0.6508444  3
   4129   4128   4137   4139     1  0.0000000  0.6508444  3
   4130   4128   4137   4146     1  0.0000000  1.0460000  1
   4130   4128   4137   4146     1  0.0000000  0.0000000  3
   4130   4128   4137   4138     1  0.0000000  0.6508444  3
   4130   4128   4137   4139     1  0.0000000  0.6508444  3
   4132   4131   4143   7751     1  0.0000000  1.0460000  1
   4132   4131   4143   7751     1  0.0000000  0.0000000  3
   4132   4131   4143   4144     1  0.0000000  0.6508444  3
   4132   4131   4143   4145     1  0.0000000  0.6508444  3
   4133   4131   4143   7751     1  0.0000000  1.0460000  1
   4133   4131   4143   7751     1  0.0000000  0.0000000  3
   4133   4131   4143   4144     1  0.0000000  0.6508444  3
   4133   4131   4143   4145     1  0.0000000  0.6508444  3
   4135   4134   4140   7728     1  0.0000000  1.0460000  1
   4135   4134   4140   7728     1  0.0000000  0.0000000  3
   4135   4134   4140   4141     1  0.0000000  0.6508444  3
   4135   4134   4140   4142     1  0.0000000  0.6508444  3
   4136   4134   4140   7728     1  0.0000000  1.0460000  1
   4136   4134   4140   7728     1  0.0000000  0.0000000  3
   4136   4134   4140   4141     1  0.0000000  0.6508444  3
   4136   4134   4140   4142     1  0.0000000  0.6508444  3
   4140   7728   7724   7727     1  0.0000000  1.6038667  3
   4141   4140   7728   7724     1  0.0000000  1.6038667  3
   4142   4140   7728   7724     1  0.0000000  1.6038667  3
   4143   7751   7747   7750     1  0.0000000  1.6038667  3
   4144   4143   7751   7747     1  0.0000000  1.6038667  3
   4145   4143   7751   7747     1  0.0000000  1.6038667  3
   4147   4148   4160   4161     1  0.0000000  0.6508444  3
   4147   4148   4160   4162     1  0.0000000  0.6508444  3
   4147   4151   4163   4164     1  0.0000000  0.6508444  3
   4147   4151   4163   4165     1  0.0000000  0.6508444  3
   4147   4154   4157   4158     1  0.0000000  0.6508444  3
   4147   4154   4157   4159     1  0.0000000  0.6508444  3
   4148   4147   4151   4152     1  0.0000000  1.2552000  3
   4148   4147   4151   4153     1  0.0000000  1.2552000  3
   4148   4147   4154   4155     1  0.0000000  1.2552000  3
   4148   4147   4154   4156     1  0.0000000  1.2552000  3
   4148   4160   4172   4173     1  0.0000000  0.6508444  3
   4148   4160   4172   4174     1  0.0000000  0.6508444  3
   4149   4148   4147   4151     1  0.0000000  1.2552000  3
   4149   4148   4147   4154     1  0.0000000  1.2552000  3
   4149   4148   4160   4172     1  0.0000000  0.6508444  3
   4149   4148   4160   4161     1  0.0000000  0.6508444  3
   4149   4148   4160   4162     1  0.0000000  0.6508444  3
   4150   4148   4147   4151     1  0.0000000  1.2552000  3
   4150   4148   4147   4154     1  0.0000000  1.2552000  3
   4150   4148   4160   4172     1  0.0000000  0.6508444  3
   4150   4148   4160   4161     1  0.0000000  0.6508444  3
   4150   4148   4160   4162     1  0.0000000  0.6508444  3
   4151   4147   4154   4155     1  0.0000000  1.2552000  3
   4151   4147   4154   4156     1  0.0000000  1.2552000  3
   4151   4163   4169   4170     1  0.0000000  0.6508444  3
   4151   4163   4169   4171     1  0.0000000  0.6508444  3
   4152   4151   4147   4154     1  0.0000000  1.2552000  3
   4152   4151   4163   4169     1  0.0000000  0.6508444  3
   4152   4151   4163   4164     1  0.0000000  0.6508444  3
   4152   4151   4163   4165     1  0.0000000  0.6508444  3
   4153   4151   4147   4154     1  0.0000000  1.2552000  3
   4153   4151   4163   4169     1  0.0000000  0.6508444  3
   4153   4151   4163   4164     1  0.0000000  0.6508444  3
   4153   4151   4163   4165     1  0.0000000  0.6508444  3
   4154   4157   4166   4167     1  0.0000000  0.6508444  3
   4154   4157   4166   4168     1  0.0000000  0.6508444  3
   4155   4154   4157   4166     1  0.0000000  0.6508444  3
   4155   4154   4157   4158     1  0.0000000  0.6508444  3
   4155   4154   4157   4159     1  0.0000000  0.6508444  3
   4156   4154   4157   4166     1  0.0000000  0.6508444  3
   4156   4154   4157   4158     1  0.0000000  0.6508444  3
   4156   4154   4157   4159     1  0.0000000  0.6508444  3
   4158   4157   4166   4175     1  0.0000000  1.0460000  1
   4158   4157   4166   4175     1  0.0000000  0.0000000  3
   4158   4157   4166   4167     1  0.0000000  0.6508444  3
   4158   4157   4166   4168     1  0.0000000  0.6508444  3
   4159   4157   4166   4175     1  0.0000000  1.0460000  1
   4159   4157   4166   4175     1  0.0000000  0.0000000  3
   4159   4157   4166   4167     1  0.0000000  0.6508444  3
   4159   4157   4166   4168     1  0.0000000  0.6508444  3
   4161   4160   4172   7797     1  0.0000000  1.0460000  1
   4161   4160   4172   7797     1  0.0000000  0.0000000  3
   4161   4160   4172   4173     1  0.0000000  0.6508444  3
   4161   4160   4172   4174     1  0.0000000  0.6508444  3
   4162   4160   4172   7797     1  0.0000000  1.0460000  1
   4162   4160   4172   7797     1  0.0000000  0.0000000  3
   4162   4160   4172   4173     1  0.0000000  0.6508444  3
   4162   4160   4172   4174     1  0.0000000  0.6508444  3
   4164   4163   4169   7774     1  0.0000000  1.0460000  1
   4164   4163   4169   7774     1  0.0000000  0.0000000  3
   4164   4163   4169   4170     1  0.0000000  0.6508444  3
   4164   4163   4169   4171     1  0.0000000  0.6508444  3
   4165   4163   4169   7774     1  0.0000000  1.0460000  1
   4165   4163   4169   7774     1  0.0000000  0.0000000  3
   4165   4163   4169   4170     1  0.0000000  0.6508444  3
   4165   4163   4169   4171     1  0.0000000  0.6508444  3
   4169   7774   7770   7773     1  0.0000000  1.6038667  3
   4170   4169   7774   7770     1  0.0000000  1.6038667  3
   4171   4169   7774   7770     1  0.0000000  1.6038667  3
   4172   7797   7793   7796     1  0.0000000  1.6038667  3
   4173   4172   7797   7793     1  0.0000000  1.6038667  3
   4174   4172   7797   7793     1  0.0000000  1.6038667  3
   4176   4177   4189   4190     1  0.0000000  0.6508444  3
   4176   4177   4189   4191     1  0.0000000  0.6508444  3
   4176   4180   4192   4193     1  0.0000000  0.6508444  3
   4176   4180   4192   4194     1  0.0000000  0.6508444  3
   4176   4183   4186   4187     1  0.0000000  0.6508444  3
   4176   4183   4186   4188     1  0.0000000  0.6508444  3
   4177   4176   4180   4181     1  0.0000000  1.2552000  3
   4177   4176   4180   4182     1  0.0000000  1.2552000  3
   4177   4176   4183   4184     1  0.0000000  1.2552000  3
   4177   4176   4183   4185     1  0.0000000  1.2552000  3
   4177   4189   4201   4202     1  0.0000000  0.6508444  3
   4177   4189   4201   4203     1  0.0000000  0.6508444  3
   4178   4177   4176   4180     1  0.0000000  1.2552000  3
   4178   4177   4176   4183     1  0.0000000  1.2552000  3
   4178   4177   4189   4201     1  0.0000000  0.6508444  3
   4178   4177   4189   4190     1  0.0000000  0.6508444  3
   4178   4177   4189   4191     1  0.0000000  0.6508444  3
   4179   4177   4176   4180     1  0.0000000  1.2552000  3
   4179   4177   4176   4183     1  0.0000000  1.2552000  3
   4179   4177   4189   4201     1  0.0000000  0.6508444  3
   4179   4177   4189   4190     1  0.0000000  0.6508444  3
   4179   4177   4189   4191     1  0.0000000  0.6508444  3
   4180   4176   4183   4184     1  0.0000000  1.2552000  3
   4180   4176   4183   4185     1  0.0000000  1.2552000  3
   4180   4192   4198   4199     1  0.0000000  0.6508444  3
   4180   4192   4198   4200     1  0.0000000  0.6508444  3
   4181   4180   4176   4183     1  0.0000000  1.2552000  3
   4181   4180   4192   4198     1  0.0000000  0.6508444  3
   4181   4180   4192   4193     1  0.0000000  0.6508444  3
   4181   4180   4192   4194     1  0.0000000  0.6508444  3
   4182   4180   4176   4183     1  0.0000000  1.2552000  3
   4182   4180   4192   4198     1  0.0000000  0.6508444  3
   4182   4180   4192   4193     1  0.0000000  0.6508444  3
   4182   4180   4192   4194     1  0.0000000  0.6508444  3
   4183   4186   4195   4196     1  0.0000000  0.6508444  3
   4183   4186   4195   4197     1  0.0000000  0.6508444  3
   4184   4183   4186   4195     1  0.0000000  0.6508444  3
   4184   4183   4186   4187     1  0.0000000  0.6508444  3
   4184   4183   4186   4188     1  0.0000000  0.6508444  3
   4185   4183   4186   4195     1  0.0000000  0.6508444  3
   4185   4183   4186   4187     1  0.0000000  0.6508444  3
   4185   4183   4186   4188     1  0.0000000  0.6508444  3
   4187   4186   4195   4204     1  0.0000000  1.0460000  1
   4187   4186   4195   4204     1  0.0000000  0.0000000  3
   4187   4186   4195   4196     1  0.0000000  0.6508444  3
   4187   4186   4195   4197     1  0.0000000  0.6508444  3
   4188   4186   4195   4204     1  0.0000000  1.0460000  1
   4188   4186   4195   4204     1  0.0000000  0.0000000  3
   4188   4186   4195   4196     1  0.0000000  0.6508444  3
   4188   4186   4195   4197     1  0.0000000  0.6508444  3
   4190   4189   4201   7843     1  0.0000000  1.0460000  1
   4190   4189   4201   7843     1  0.0000000  0.0000000  3
   4190   4189   4201   4202     1  0.0000000  0.6508444  3
   4190   4189   4201   4203     1  0.0000000  0.6508444  3
   4191   4189   4201   7843     1  0.0000000  1.0460000  1
   4191   4189   4201   7843     1  0.0000000  0.0000000  3
   4191   4189   4201   4202     1  0.0000000  0.6508444  3
   4191   4189   4201   4203     1  0.0000000  0.6508444  3
   4193   4192   4198   7820     1  0.0000000  1.0460000  1
   4193   4192   4198   7820     1  0.0000000  0.0000000  3
   4193   4192   4198   4199     1  0.0000000  0.6508444  3
   4193   4192   4198   4200     1  0.0000000  0.6508444  3
   4194   4192   4198   7820     1  0.0000000  1.0460000  1
   4194   4192   4198   7820     1  0.0000000  0.0000000  3
   4194   4192   4198   4199     1  0.0000000  0.6508444  3
   4194   4192   4198   4200     1  0.0000000  0.6508444  3
   4198   7820   7816   7819     1  0.0000000  1.6038667  3
   4199   4198   7820   7816     1  0.0000000  1.6038667  3
   4200   4198   7820   7816     1  0.0000000  1.6038667  3
   4201   7843   7839   7842     1  0.0000000  1.6038667  3
   4202   4201   7843   7839     1  0.0000000  1.6038667  3
   4203   4201   7843   7839     1  0.0000000  1.6038667  3
   4205   4206   4218   4219     1  0.0000000  0.6508444  3
   4205   4206   4218   4220     1  0.0000000  0.6508444  3
   4205   4209   4221   4222     1  0.0000000  0.6508444  3
   4205   4209   4221   4223     1  0.0000000  0.6508444  3
   4205   4212   4215   4216     1  0.0000000  0.6508444  3
   4205   4212   4215   4217     1  0.0000000  0.6508444  3
   4206   4205   4209   4210     1  0.0000000  1.2552000  3
   4206   4205   4209   4211     1  0.0000000  1.2552000  3
   4206   4205   4212   4213     1  0.0000000  1.2552000  3
   4206   4205   4212   4214     1  0.0000000  1.2552000  3
   4206   4218   4230   4231     1  0.0000000  0.6508444  3
   4206   4218   4230   4232     1  0.0000000  0.6508444  3
   4207   4206   4205   4209     1  0.0000000  1.2552000  3
   4207   4206   4205   4212     1  0.0000000  1.2552000  3
   4207   4206   4218   4230     1  0.0000000  0.6508444  3
   4207   4206   4218   4219     1  0.0000000  0.6508444  3
   4207   4206   4218   4220     1  0.0000000  0.6508444  3
   4208   4206   4205   4209     1  0.0000000  1.2552000  3
   4208   4206   4205   4212     1  0.0000000  1.2552000  3
   4208   4206   4218   4230     1  0.0000000  0.6508444  3
   4208   4206   4218   4219     1  0.0000000  0.6508444  3
   4208   4206   4218   4220     1  0.0000000  0.6508444  3
   4209   4205   4212   4213     1  0.0000000  1.2552000  3
   4209   4205   4212   4214     1  0.0000000  1.2552000  3
   4209   4221   4227   4228     1  0.0000000  0.6508444  3
   4209   4221   4227   4229     1  0.0000000  0.6508444  3
   4210   4209   4205   4212     1  0.0000000  1.2552000  3
   4210   4209   4221   4227     1  0.0000000  0.6508444  3
   4210   4209   4221   4222     1  0.0000000  0.6508444  3
   4210   4209   4221   4223     1  0.0000000  0.6508444  3
   4211   4209   4205   4212     1  0.0000000  1.2552000  3
   4211   4209   4221   4227     1  0.0000000  0.6508444  3
   4211   4209   4221   4222     1  0.0000000  0.6508444  3
   4211   4209   4221   4223     1  0.0000000  0.6508444  3
   4212   4215   4224   4225     1  0.0000000  0.6508444  3
   4212   4215   4224   4226     1  0.0000000  0.6508444  3
   4213   4212   4215   4224     1  0.0000000  0.6508444  3
   4213   4212   4215   4216     1  0.0000000  0.6508444  3
   4213   4212   4215   4217     1  0.0000000  0.6508444  3
   4214   4212   4215   4224     1  0.0000000  0.6508444  3
   4214   4212   4215   4216     1  0.0000000  0.6508444  3
   4214   4212   4215   4217     1  0.0000000  0.6508444  3
   4216   4215   4224   4233     1  0.0000000  1.0460000  1
   4216   4215   4224   4233     1  0.0000000  0.0000000  3
   4216   4215   4224   4225     1  0.0000000  0.6508444  3
   4216   4215   4224   4226     1  0.0000000  0.6508444  3
   4217   4215   4224   4233     1  0.0000000  1.0460000  1
   4217   4215   4224   4233     1  0.0000000  0.0000000  3
   4217   4215   4224   4225     1  0.0000000  0.6508444  3
   4217   4215   4224   4226     1  0.0000000  0.6508444  3
   4219   4218   4230   7889     1  0.0000000  1.0460000  1
   4219   4218   4230   7889     1  0.0000000  0.0000000  3
   4219   4218   4230   4231     1  0.0000000  0.6508444  3
   4219   4218   4230   4232     1  0.0000000  0.6508444  3
   4220   4218   4230   7889     1  0.0000000  1.0460000  1
   4220   4218   4230   7889     1  0.0000000  0.0000000  3
   4220   4218   4230   4231     1  0.0000000  0.6508444  3
   4220   4218   4230   4232     1  0.0000000  0.6508444  3
   4222   4221   4227   7866     1  0.0000000  1.0460000  1
   4222   4221   4227   7866     1  0.0000000  0.0000000  3
   4222   4221   4227   4228     1  0.0000000  0.6508444  3
   4222   4221   4227   4229     1  0.0000000  0.6508444  3
   4223   4221   4227   7866     1  0.0000000  1.0460000  1
   4223   4221   4227   7866     1  0.0000000  0.0000000  3
   4223   4221   4227   4228     1  0.0000000  0.6508444  3
   4223   4221   4227   4229     1  0.0000000  0.6508444  3
   4227   7866   7862   7865     1  0.0000000  1.6038667  3
   4228   4227   7866   7862     1  0.0000000  1.6038667  3
   4229   4227   7866   7862     1  0.0000000  1.6038667  3
   4230   7889   7885   7888     1  0.0000000  1.6038667  3
   4231   4230   7889   7885     1  0.0000000  1.6038667  3
   4232   4230   7889   7885     1  0.0000000  1.6038667  3
   4234   4235   4247   4248     1  0.0000000  0.6508444  3
   4234   4235   4247   4249     1  0.0000000  0.6508444  3
   4234   4238   4250   4251     1  0.0000000  0.6508444  3
   4234   4238   4250   4252     1  0.0000000  0.6508444  3
   4234   4241   4244   4245     1  0.0000000  0.6508444  3
   4234   4241   4244   4246     1  0.0000000  0.6508444  3
   4235   4234   4238   4239     1  0.0000000  1.2552000  3
   4235   4234   4238   4240     1  0.0000000  1.2552000  3
   4235   4234   4241   4242     1  0.0000000  1.2552000  3
   4235   4234   4241   4243     1  0.0000000  1.2552000  3
   4235   4247   4259   4260     1  0.0000000  0.6508444  3
   4235   4247   4259   4261     1  0.0000000  0.6508444  3
   4236   4235   4234   4238     1  0.0000000  1.2552000  3
   4236   4235   4234   4241     1  0.0000000  1.2552000  3
   4236   4235   4247   4259     1  0.0000000  0.6508444  3
   4236   4235   4247   4248     1  0.0000000  0.6508444  3
   4236   4235   4247   4249     1  0.0000000  0.6508444  3
   4237   4235   4234   4238     1  0.0000000  1.2552000  3
   4237   4235   4234   4241     1  0.0000000  1.2552000  3
   4237   4235   4247   4259     1  0.0000000  0.6508444  3
   4237   4235   4247   4248     1  0.0000000  0.6508444  3
   4237   4235   4247   4249     1  0.0000000  0.6508444  3
   4238   4234   4241   4242     1  0.0000000  1.2552000  3
   4238   4234   4241   4243     1  0.0000000  1.2552000  3
   4238   4250   4256   4257     1  0.0000000  0.6508444  3
   4238   4250   4256   4258     1  0.0000000  0.6508444  3
   4239   4238   4234   4241     1  0.0000000  1.2552000  3
   4239   4238   4250   4256     1  0.0000000  0.6508444  3
   4239   4238   4250   4251     1  0.0000000  0.6508444  3
   4239   4238   4250   4252     1  0.0000000  0.6508444  3
   4240   4238   4234   4241     1  0.0000000  1.2552000  3
   4240   4238   4250   4256     1  0.0000000  0.6508444  3
   4240   4238   4250   4251     1  0.0000000  0.6508444  3
   4240   4238   4250   4252     1  0.0000000  0.6508444  3
   4241   4244   4253   4254     1  0.0000000  0.6508444  3
   4241   4244   4253   4255     1  0.0000000  0.6508444  3
   4242   4241   4244   4253     1  0.0000000  0.6508444  3
   4242   4241   4244   4245     1  0.0000000  0.6508444  3
   4242   4241   4244   4246     1  0.0000000  0.6508444  3
   4243   4241   4244   4253     1  0.0000000  0.6508444  3
   4243   4241   4244   4245     1  0.0000000  0.6508444  3
   4243   4241   4244   4246     1  0.0000000  0.6508444  3
   4245   4244   4253   4262     1  0.0000000  1.0460000  1
   4245   4244   4253   4262     1  0.0000000  0.0000000  3
   4245   4244   4253   4254     1  0.0000000  0.6508444  3
   4245   4244   4253   4255     1  0.0000000  0.6508444  3
   4246   4244   4253   4262     1  0.0000000  1.0460000  1
   4246   4244   4253   4262     1  0.0000000  0.0000000  3
   4246   4244   4253   4254     1  0.0000000  0.6508444  3
   4246   4244   4253   4255     1  0.0000000  0.6508444  3
   4248   4247   4259   7935     1  0.0000000  1.0460000  1
   4248   4247   4259   7935     1  0.0000000  0.0000000  3
   4248   4247   4259   4260     1  0.0000000  0.6508444  3
   4248   4247   4259   4261     1  0.0000000  0.6508444  3
   4249   4247   4259   7935     1  0.0000000  1.0460000  1
   4249   4247   4259   7935     1  0.0000000  0.0000000  3
   4249   4247   4259   4260     1  0.0000000  0.6508444  3
   4249   4247   4259   4261     1  0.0000000  0.6508444  3
   4251   4250   4256   7912     1  0.0000000  1.0460000  1
   4251   4250   4256   7912     1  0.0000000  0.0000000  3
   4251   4250   4256   4257     1  0.0000000  0.6508444  3
   4251   4250   4256   4258     1  0.0000000  0.6508444  3
   4252   4250   4256   7912     1  0.0000000  1.0460000  1
   4252   4250   4256   7912     1  0.0000000  0.0000000  3
   4252   4250   4256   4257     1  0.0000000  0.6508444  3
   4252   4250   4256   4258     1  0.0000000  0.6508444  3
   4256   7912   7908   7911     1  0.0000000  1.6038667  3
   4257   4256   7912   7908     1  0.0000000  1.6038667  3
   4258   4256   7912   7908     1  0.0000000  1.6038667  3
   4259   7935   7931   7934     1  0.0000000  1.6038667  3
   4260   4259   7935   7931     1  0.0000000  1.6038667  3
   4261   4259   7935   7931     1  0.0000000  1.6038667  3
   4263   4264   4276   4277     1  0.0000000  0.6508444  3
   4263   4264   4276   4278     1  0.0000000  0.6508444  3
   4263   4267   4279   4280     1  0.0000000  0.6508444  3
   4263   4267   4279   4281     1  0.0000000  0.6508444  3
   4263   4270   4273   4274     1  0.0000000  0.6508444  3
   4263   4270   4273   4275     1  0.0000000  0.6508444  3
   4264   4263   4267   4268     1  0.0000000  1.2552000  3
   4264   4263   4267   4269     1  0.0000000  1.2552000  3
   4264   4263   4270   4271     1  0.0000000  1.2552000  3
   4264   4263   4270   4272     1  0.0000000  1.2552000  3
   4264   4276   4288   4289     1  0.0000000  0.6508444  3
   4264   4276   4288   4290     1  0.0000000  0.6508444  3
   4265   4264   4263   4267     1  0.0000000  1.2552000  3
   4265   4264   4263   4270     1  0.0000000  1.2552000  3
   4265   4264   4276   4288     1  0.0000000  0.6508444  3
   4265   4264   4276   4277     1  0.0000000  0.6508444  3
   4265   4264   4276   4278     1  0.0000000  0.6508444  3
   4266   4264   4263   4267     1  0.0000000  1.2552000  3
   4266   4264   4263   4270     1  0.0000000  1.2552000  3
   4266   4264   4276   4288     1  0.0000000  0.6508444  3
   4266   4264   4276   4277     1  0.0000000  0.6508444  3
   4266   4264   4276   4278     1  0.0000000  0.6508444  3
   4267   4263   4270   4271     1  0.0000000  1.2552000  3
   4267   4263   4270   4272     1  0.0000000  1.2552000  3
   4267   4279   4285   4286     1  0.0000000  0.6508444  3
   4267   4279   4285   4287     1  0.0000000  0.6508444  3
   4268   4267   4263   4270     1  0.0000000  1.2552000  3
   4268   4267   4279   4285     1  0.0000000  0.6508444  3
   4268   4267   4279   4280     1  0.0000000  0.6508444  3
   4268   4267   4279   4281     1  0.0000000  0.6508444  3
   4269   4267   4263   4270     1  0.0000000  1.2552000  3
   4269   4267   4279   4285     1  0.0000000  0.6508444  3
   4269   4267   4279   4280     1  0.0000000  0.6508444  3
   4269   4267   4279   4281     1  0.0000000  0.6508444  3
   4270   4273   4282   4283     1  0.0000000  0.6508444  3
   4270   4273   4282   4284     1  0.0000000  0.6508444  3
   4271   4270   4273   4282     1  0.0000000  0.6508444  3
   4271   4270   4273   4274     1  0.0000000  0.6508444  3
   4271   4270   4273   4275     1  0.0000000  0.6508444  3
   4272   4270   4273   4282     1  0.0000000  0.6508444  3
   4272   4270   4273   4274     1  0.0000000  0.6508444  3
   4272   4270   4273   4275     1  0.0000000  0.6508444  3
   4274   4273   4282   4291     1  0.0000000  1.0460000  1
   4274   4273   4282   4291     1  0.0000000  0.0000000  3
   4274   4273   4282   4283     1  0.0000000  0.6508444  3
   4274   4273   4282   4284     1  0.0000000  0.6508444  3
   4275   4273   4282   4291     1  0.0000000  1.0460000  1
   4275   4273   4282   4291     1  0.0000000  0.0000000  3
   4275   4273   4282   4283     1  0.0000000  0.6508444  3
   4275   4273   4282   4284     1  0.0000000  0.6508444  3
   4277   4276   4288   7981     1  0.0000000  1.0460000  1
   4277   4276   4288   7981     1  0.0000000  0.0000000  3
   4277   4276   4288   4289     1  0.0000000  0.6508444  3
   4277   4276   4288   4290     1  0.0000000  0.6508444  3
   4278   4276   4288   7981     1  0.0000000  1.0460000  1
   4278   4276   4288   7981     1  0.0000000  0.0000000  3
   4278   4276   4288   4289     1  0.0000000  0.6508444  3
   4278   4276   4288   4290     1  0.0000000  0.6508444  3
   4280   4279   4285   7958     1  0.0000000  1.0460000  1
   4280   4279   4285   7958     1  0.0000000  0.0000000  3
   4280   4279   4285   4286     1  0.0000000  0.6508444  3
   4280   4279   4285   4287     1  0.0000000  0.6508444  3
   4281   4279   4285   7958     1  0.0000000  1.0460000  1
   4281   4279   4285   7958     1  0.0000000  0.0000000  3
   4281   4279   4285   4286     1  0.0000000  0.6508444  3
   4281   4279   4285   4287     1  0.0000000  0.6508444  3
   4285   7958   7954   7957     1  0.0000000  1.6038667  3
   4286   4285   7958   7954     1  0.0000000  1.6038667  3
   4287   4285   7958   7954     1  0.0000000  1.6038667  3
   4288   7981   7977   7980     1  0.0000000  1.6038667  3
   4289   4288   7981   7977     1  0.0000000  1.6038667  3
   4290   4288   7981   7977     1  0.0000000  1.6038667  3
   4292   4293   4305   4306     1  0.0000000  0.6508444  3
   4292   4293   4305   4307     1  0.0000000  0.6508444  3
   4292   4296   4308   4309     1  0.0000000  0.6508444  3
   4292   4296   4308   4310     1  0.0000000  0.6508444  3
   4292   4299   4302   4303     1  0.0000000  0.6508444  3
   4292   4299   4302   4304     1  0.0000000  0.6508444  3
   4293   4292   4296   4297     1  0.0000000  1.2552000  3
   4293   4292   4296   4298     1  0.0000000  1.2552000  3
   4293   4292   4299   4300     1  0.0000000  1.2552000  3
   4293   4292   4299   4301     1  0.0000000  1.2552000  3
   4293   4305   4317   4318     1  0.0000000  0.6508444  3
   4293   4305   4317   4319     1  0.0000000  0.6508444  3
   4294   4293   4292   4296     1  0.0000000  1.2552000  3
   4294   4293   4292   4299     1  0.0000000  1.2552000  3
   4294   4293   4305   4317     1  0.0000000  0.6508444  3
   4294   4293   4305   4306     1  0.0000000  0.6508444  3
   4294   4293   4305   4307     1  0.0000000  0.6508444  3
   4295   4293   4292   4296     1  0.0000000  1.2552000  3
   4295   4293   4292   4299     1  0.0000000  1.2552000  3
   4295   4293   4305   4317     1  0.0000000  0.6508444  3
   4295   4293   4305   4306     1  0.0000000  0.6508444  3
   4295   4293   4305   4307     1  0.0000000  0.6508444  3
   4296   4292   4299   4300     1  0.0000000  1.2552000  3
   4296   4292   4299   4301     1  0.0000000  1.2552000  3
   4296   4308   4314   4315     1  0.0000000  0.6508444  3
   4296   4308   4314   4316     1  0.0000000  0.6508444  3
   4297   4296   4292   4299     1  0.0000000  1.2552000  3
   4297   4296   4308   4314     1  0.0000000  0.6508444  3
   4297   4296   4308   4309     1  0.0000000  0.6508444  3
   4297   4296   4308   4310     1  0.0000000  0.6508444  3
   4298   4296   4292   4299     1  0.0000000  1.2552000  3
   4298   4296   4308   4314     1  0.0000000  0.6508444  3
   4298   4296   4308   4309     1  0.0000000  0.6508444  3
   4298   4296   4308   4310     1  0.0000000  0.6508444  3
   4299   4302   4311   4312     1  0.0000000  0.6508444  3
   4299   4302   4311   4313     1  0.0000000  0.6508444  3
   4300   4299   4302   4311     1  0.0000000  0.6508444  3
   4300   4299   4302   4303     1  0.0000000  0.6508444  3
   4300   4299   4302   4304     1  0.0000000  0.6508444  3
   4301   4299   4302   4311     1  0.0000000  0.6508444  3
   4301   4299   4302   4303     1  0.0000000  0.6508444  3
   4301   4299   4302   4304     1  0.0000000  0.6508444  3
   4303   4302   4311   4320     1  0.0000000  1.0460000  1
   4303   4302   4311   4320     1  0.0000000  0.0000000  3
   4303   4302   4311   4312     1  0.0000000  0.6508444  3
   4303   4302   4311   4313     1  0.0000000  0.6508444  3
   4304   4302   4311   4320     1  0.0000000  1.0460000  1
   4304   4302   4311   4320     1  0.0000000  0.0000000  3
   4304   4302   4311   4312     1  0.0000000  0.6508444  3
   4304   4302   4311   4313     1  0.0000000  0.6508444  3
   4306   4305   4317   8027     1  0.0000000  1.0460000  1
   4306   4305   4317   8027     1  0.0000000  0.0000000  3
   4306   4305   4317   4318     1  0.0000000  0.6508444  3
   4306   4305   4317   4319     1  0.0000000  0.6508444  3
   4307   4305   4317   8027     1  0.0000000  1.0460000  1
   4307   4305   4317   8027     1  0.0000000  0.0000000  3
   4307   4305   4317   4318     1  0.0000000  0.6508444  3
   4307   4305   4317   4319     1  0.0000000  0.6508444  3
   4309   4308   4314   8004     1  0.0000000  1.0460000  1
   4309   4308   4314   8004     1  0.0000000  0.0000000  3
   4309   4308   4314   4315     1  0.0000000  0.6508444  3
   4309   4308   4314   4316     1  0.0000000  0.6508444  3
   4310   4308   4314   8004     1  0.0000000  1.0460000  1
   4310   4308   4314   8004     1  0.0000000  0.0000000  3
   4310   4308   4314   4315     1  0.0000000  0.6508444  3
   4310   4308   4314   4316     1  0.0000000  0.6508444  3
   4314   8004   8000   8003     1  0.0000000  1.6038667  3
   4315   4314   8004   8000     1  0.0000000  1.6038667  3
   4316   4314   8004   8000     1  0.0000000  1.6038667  3
   4317   8027   8023   8026     1  0.0000000  1.6038667  3
   4318   4317   8027   8023     1  0.0000000  1.6038667  3
   4319   4317   8027   8023     1  0.0000000  1.6038667  3
   4321   4322   4334   4335     1  0.0000000  0.6508444  3
   4321   4322   4334   4336     1  0.0000000  0.6508444  3
   4321   4325   4337   4338     1  0.0000000  0.6508444  3
   4321   4325   4337   4339     1  0.0000000  0.6508444  3
   4321   4328   4331   4332     1  0.0000000  0.6508444  3
   4321   4328   4331   4333     1  0.0000000  0.6508444  3
   4322   4321   4325   4326     1  0.0000000  1.2552000  3
   4322   4321   4325   4327     1  0.0000000  1.2552000  3
   4322   4321   4328   4329     1  0.0000000  1.2552000  3
   4322   4321   4328   4330     1  0.0000000  1.2552000  3
   4322   4334   4346   4347     1  0.0000000  0.6508444  3
   4322   4334   4346   4348     1  0.0000000  0.6508444  3
   4323   4322   4321   4325     1  0.0000000  1.2552000  3
   4323   4322   4321   4328     1  0.0000000  1.2552000  3
   4323   4322   4334   4346     1  0.0000000  0.6508444  3
   4323   4322   4334   4335     1  0.0000000  0.6508444  3
   4323   4322   4334   4336     1  0.0000000  0.6508444  3
   4324   4322   4321   4325     1  0.0000000  1.2552000  3
   4324   4322   4321   4328     1  0.0000000  1.2552000  3
   4324   4322   4334   4346     1  0.0000000  0.6508444  3
   4324   4322   4334   4335     1  0.0000000  0.6508444  3
   4324   4322   4334   4336     1  0.0000000  0.6508444  3
   4325   4321   4328   4329     1  0.0000000  1.2552000  3
   4325   4321   4328   4330     1  0.0000000  1.2552000  3
   4325   4337   4343   4344     1  0.0000000  0.6508444  3
   4325   4337   4343   4345     1  0.0000000  0.6508444  3
   4326   4325   4321   4328     1  0.0000000  1.2552000  3
   4326   4325   4337   4343     1  0.0000000  0.6508444  3
   4326   4325   4337   4338     1  0.0000000  0.6508444  3
   4326   4325   4337   4339     1  0.0000000  0.6508444  3
   4327   4325   4321   4328     1  0.0000000  1.2552000  3
   4327   4325   4337   4343     1  0.0000000  0.6508444  3
   4327   4325   4337   4338     1  0.0000000  0.6508444  3
   4327   4325   4337   4339     1  0.0000000  0.6508444  3
   4328   4331   4340   4341     1  0.0000000  0.6508444  3
   4328   4331   4340   4342     1  0.0000000  0.6508444  3
   4329   4328   4331   4340     1  0.0000000  0.6508444  3
   4329   4328   4331   4332     1  0.0000000  0.6508444  3
   4329   4328   4331   4333     1  0.0000000  0.6508444  3
   4330   4328   4331   4340     1  0.0000000  0.6508444  3
   4330   4328   4331   4332     1  0.0000000  0.6508444  3
   4330   4328   4331   4333     1  0.0000000  0.6508444  3
   4332   4331   4340   4349     1  0.0000000  1.0460000  1
   4332   4331   4340   4349     1  0.0000000  0.0000000  3
   4332   4331   4340   4341     1  0.0000000  0.6508444  3
   4332   4331   4340   4342     1  0.0000000  0.6508444  3
   4333   4331   4340   4349     1  0.0000000  1.0460000  1
   4333   4331   4340   4349     1  0.0000000  0.0000000  3
   4333   4331   4340   4341     1  0.0000000  0.6508444  3
   4333   4331   4340   4342     1  0.0000000  0.6508444  3
   4335   4334   4346   8073     1  0.0000000  1.0460000  1
   4335   4334   4346   8073     1  0.0000000  0.0000000  3
   4335   4334   4346   4347     1  0.0000000  0.6508444  3
   4335   4334   4346   4348     1  0.0000000  0.6508444  3
   4336   4334   4346   8073     1  0.0000000  1.0460000  1
   4336   4334   4346   8073     1  0.0000000  0.0000000  3
   4336   4334   4346   4347     1  0.0000000  0.6508444  3
   4336   4334   4346   4348     1  0.0000000  0.6508444  3
   4338   4337   4343   8050     1  0.0000000  1.0460000  1
   4338   4337   4343   8050     1  0.0000000  0.0000000  3
   4338   4337   4343   4344     1  0.0000000  0.6508444  3
   4338   4337   4343   4345     1  0.0000000  0.6508444  3
   4339   4337   4343   8050     1  0.0000000  1.0460000  1
   4339   4337   4343   8050     1  0.0000000  0.0000000  3
   4339   4337   4343   4344     1  0.0000000  0.6508444  3
   4339   4337   4343   4345     1  0.0000000  0.6508444  3
   4343   8050   8046   8049     1  0.0000000  1.6038667  3
   4344   4343   8050   8046     1  0.0000000  1.6038667  3
   4345   4343   8050   8046     1  0.0000000  1.6038667  3
   4346   8073   8069   8072     1  0.0000000  1.6038667  3
   4347   4346   8073   8069     1  0.0000000  1.6038667  3
   4348   4346   8073   8069     1  0.0000000  1.6038667  3
   4350   4351   4363   4364     1  0.0000000  0.6508444  3
   4350   4351   4363   4365     1  0.0000000  0.6508444  3
   4350   4354   4366   4367     1  0.0000000  0.6508444  3
   4350   4354   4366   4368     1  0.0000000  0.6508444  3
   4350   4357   4360   4361     1  0.0000000  0.6508444  3
   4350   4357   4360   4362     1  0.0000000  0.6508444  3
   4351   4350   4354   4355     1  0.0000000  1.2552000  3
   4351   4350   4354   4356     1  0.0000000  1.2552000  3
   4351   4350   4357   4358     1  0.0000000  1.2552000  3
   4351   4350   4357   4359     1  0.0000000  1.2552000  3
   4351   4363   4375   4376     1  0.0000000  0.6508444  3
   4351   4363   4375   4377     1  0.0000000  0.6508444  3
   4352   4351   4350   4354     1  0.0000000  1.2552000  3
   4352   4351   4350   4357     1  0.0000000  1.2552000  3
   4352   4351   4363   4375     1  0.0000000  0.6508444  3
   4352   4351   4363   4364     1  0.0000000  0.6508444  3
   4352   4351   4363   4365     1  0.0000000  0.6508444  3
   4353   4351   4350   4354     1  0.0000000  1.2552000  3
   4353   4351   4350   4357     1  0.0000000  1.2552000  3
   4353   4351   4363   4375     1  0.0000000  0.6508444  3
   4353   4351   4363   4364     1  0.0000000  0.6508444  3
   4353   4351   4363   4365     1  0.0000000  0.6508444  3
   4354   4350   4357   4358     1  0.0000000  1.2552000  3
   4354   4350   4357   4359     1  0.0000000  1.2552000  3
   4354   4366   4372   4373     1  0.0000000  0.6508444  3
   4354   4366   4372   4374     1  0.0000000  0.6508444  3
   4355   4354   4350   4357     1  0.0000000  1.2552000  3
   4355   4354   4366   4372     1  0.0000000  0.6508444  3
   4355   4354   4366   4367     1  0.0000000  0.6508444  3
   4355   4354   4366   4368     1  0.0000000  0.6508444  3
   4356   4354   4350   4357     1  0.0000000  1.2552000  3
   4356   4354   4366   4372     1  0.0000000  0.6508444  3
   4356   4354   4366   4367     1  0.0000000  0.6508444  3
   4356   4354   4366   4368     1  0.0000000  0.6508444  3
   4357   4360   4369   4370     1  0.0000000  0.6508444  3
   4357   4360   4369   4371     1  0.0000000  0.6508444  3
   4358   4357   4360   4369     1  0.0000000  0.6508444  3
   4358   4357   4360   4361     1  0.0000000  0.6508444  3
   4358   4357   4360   4362     1  0.0000000  0.6508444  3
   4359   4357   4360   4369     1  0.0000000  0.6508444  3
   4359   4357   4360   4361     1  0.0000000  0.6508444  3
   4359   4357   4360   4362     1  0.0000000  0.6508444  3
   4361   4360   4369   4378     1  0.0000000  1.0460000  1
   4361   4360   4369   4378     1  0.0000000  0.0000000  3
   4361   4360   4369   4370     1  0.0000000  0.6508444  3
   4361   4360   4369   4371     1  0.0000000  0.6508444  3
   4362   4360   4369   4378     1  0.0000000  1.0460000  1
   4362   4360   4369   4378     1  0.0000000  0.0000000  3
   4362   4360   4369   4370     1  0.0000000  0.6508444  3
   4362   4360   4369   4371     1  0.0000000  0.6508444  3
   4364   4363   4375   8119     1  0.0000000  1.0460000  1
   4364   4363   4375   8119     1  0.0000000  0.0000000  3
   4364   4363   4375   4376     1  0.0000000  0.6508444  3
   4364   4363   4375   4377     1  0.0000000  0.6508444  3
   4365   4363   4375   8119     1  0.0000000  1.0460000  1
   4365   4363   4375   8119     1  0.0000000  0.0000000  3
   4365   4363   4375   4376     1  0.0000000  0.6508444  3
   4365   4363   4375   4377     1  0.0000000  0.6508444  3
   4367   4366   4372   8096     1  0.0000000  1.0460000  1
   4367   4366   4372   8096     1  0.0000000  0.0000000  3
   4367   4366   4372   4373     1  0.0000000  0.6508444  3
   4367   4366   4372   4374     1  0.0000000  0.6508444  3
   4368   4366   4372   8096     1  0.0000000  1.0460000  1
   4368   4366   4372   8096     1  0.0000000  0.0000000  3
   4368   4366   4372   4373     1  0.0000000  0.6508444  3
   4368   4366   4372   4374     1  0.0000000  0.6508444  3
   4372   8096   8092   8095     1  0.0000000  1.6038667  3
   4373   4372   8096   8092     1  0.0000000  1.6038667  3
   4374   4372   8096   8092     1  0.0000000  1.6038667  3
   4375   8119   8115   8118     1  0.0000000  1.6038667  3
   4376   4375   8119   8115     1  0.0000000  1.6038667  3
   4377   4375   8119   8115     1  0.0000000  1.6038667  3
   4379   4380   4392   4393     1  0.0000000  0.6508444  3
   4379   4380   4392   4394     1  0.0000000  0.6508444  3
   4379   4383   4395   4396     1  0.0000000  0.6508444  3
   4379   4383   4395   4397     1  0.0000000  0.6508444  3
   4379   4386   4389   4390     1  0.0000000  0.6508444  3
   4379   4386   4389   4391     1  0.0000000  0.6508444  3
   4380   4379   4383   4384     1  0.0000000  1.2552000  3
   4380   4379   4383   4385     1  0.0000000  1.2552000  3
   4380   4379   4386   4387     1  0.0000000  1.2552000  3
   4380   4379   4386   4388     1  0.0000000  1.2552000  3
   4380   4392   4404   4405     1  0.0000000  0.6508444  3
   4380   4392   4404   4406     1  0.0000000  0.6508444  3
   4381   4380   4379   4383     1  0.0000000  1.2552000  3
   4381   4380   4379   4386     1  0.0000000  1.2552000  3
   4381   4380   4392   4404     1  0.0000000  0.6508444  3
   4381   4380   4392   4393     1  0.0000000  0.6508444  3
   4381   4380   4392   4394     1  0.0000000  0.6508444  3
   4382   4380   4379   4383     1  0.0000000  1.2552000  3
   4382   4380   4379   4386     1  0.0000000  1.2552000  3
   4382   4380   4392   4404     1  0.0000000  0.6508444  3
   4382   4380   4392   4393     1  0.0000000  0.6508444  3
   4382   4380   4392   4394     1  0.0000000  0.6508444  3
   4383   4379   4386   4387     1  0.0000000  1.2552000  3
   4383   4379   4386   4388     1  0.0000000  1.2552000  3
   4383   4395   4401   4402     1  0.0000000  0.6508444  3
   4383   4395   4401   4403     1  0.0000000  0.6508444  3
   4384   4383   4379   4386     1  0.0000000  1.2552000  3
   4384   4383   4395   4401     1  0.0000000  0.6508444  3
   4384   4383   4395   4396     1  0.0000000  0.6508444  3
   4384   4383   4395   4397     1  0.0000000  0.6508444  3
   4385   4383   4379   4386     1  0.0000000  1.2552000  3
   4385   4383   4395   4401     1  0.0000000  0.6508444  3
   4385   4383   4395   4396     1  0.0000000  0.6508444  3
   4385   4383   4395   4397     1  0.0000000  0.6508444  3
   4386   4389   4398   4399     1  0.0000000  0.6508444  3
   4386   4389   4398   4400     1  0.0000000  0.6508444  3
   4387   4386   4389   4398     1  0.0000000  0.6508444  3
   4387   4386   4389   4390     1  0.0000000  0.6508444  3
   4387   4386   4389   4391     1  0.0000000  0.6508444  3
   4388   4386   4389   4398     1  0.0000000  0.6508444  3
   4388   4386   4389   4390     1  0.0000000  0.6508444  3
   4388   4386   4389   4391     1  0.0000000  0.6508444  3
   4390   4389   4398   4407     1  0.0000000  1.0460000  1
   4390   4389   4398   4407     1  0.0000000  0.0000000  3
   4390   4389   4398   4399     1  0.0000000  0.6508444  3
   4390   4389   4398   4400     1  0.0000000  0.6508444  3
   4391   4389   4398   4407     1  0.0000000  1.0460000  1
   4391   4389   4398   4407     1  0.0000000  0.0000000  3
   4391   4389   4398   4399     1  0.0000000  0.6508444  3
   4391   4389   4398   4400     1  0.0000000  0.6508444  3
   4393   4392   4404   8165     1  0.0000000  1.0460000  1
   4393   4392   4404   8165     1  0.0000000  0.0000000  3
   4393   4392   4404   4405     1  0.0000000  0.6508444  3
   4393   4392   4404   4406     1  0.0000000  0.6508444  3
   4394   4392   4404   8165     1  0.0000000  1.0460000  1
   4394   4392   4404   8165     1  0.0000000  0.0000000  3
   4394   4392   4404   4405     1  0.0000000  0.6508444  3
   4394   4392   4404   4406     1  0.0000000  0.6508444  3
   4396   4395   4401   8142     1  0.0000000  1.0460000  1
   4396   4395   4401   8142     1  0.0000000  0.0000000  3
   4396   4395   4401   4402     1  0.0000000  0.6508444  3
   4396   4395   4401   4403     1  0.0000000  0.6508444  3
   4397   4395   4401   8142     1  0.0000000  1.0460000  1
   4397   4395   4401   8142     1  0.0000000  0.0000000  3
   4397   4395   4401   4402     1  0.0000000  0.6508444  3
   4397   4395   4401   4403     1  0.0000000  0.6508444  3
   4401   8142   8138   8141     1  0.0000000  1.6038667  3
   4402   4401   8142   8138     1  0.0000000  1.6038667  3
   4403   4401   8142   8138     1  0.0000000  1.6038667  3
   4404   8165   8161   8164     1  0.0000000  1.6038667  3
   4405   4404   8165   8161     1  0.0000000  1.6038667  3
   4406   4404   8165   8161     1  0.0000000  1.6038667  3
   4408   4409   4421   4422     1  0.0000000  0.6508444  3
   4408   4409   4421   4423     1  0.0000000  0.6508444  3
   4408   4412   4424   4425     1  0.0000000  0.6508444  3
   4408   4412   4424   4426     1  0.0000000  0.6508444  3
   4408   4415   4418   4419     1  0.0000000  0.6508444  3
   4408   4415   4418   4420     1  0.0000000  0.6508444  3
   4409   4408   4412   4413     1  0.0000000  1.2552000  3
   4409   4408   4412   4414     1  0.0000000  1.2552000  3
   4409   4408   4415   4416     1  0.0000000  1.2552000  3
   4409   4408   4415   4417     1  0.0000000  1.2552000  3
   4409   4421   4433   4434     1  0.0000000  0.6508444  3
   4409   4421   4433   4435     1  0.0000000  0.6508444  3
   4410   4409   4408   4412     1  0.0000000  1.2552000  3
   4410   4409   4408   4415     1  0.0000000  1.2552000  3
   4410   4409   4421   4433     1  0.0000000  0.6508444  3
   4410   4409   4421   4422     1  0.0000000  0.6508444  3
   4410   4409   4421   4423     1  0.0000000  0.6508444  3
   4411   4409   4408   4412     1  0.0000000  1.2552000  3
   4411   4409   4408   4415     1  0.0000000  1.2552000  3
   4411   4409   4421   4433     1  0.0000000  0.6508444  3
   4411   4409   4421   4422     1  0.0000000  0.6508444  3
   4411   4409   4421   4423     1  0.0000000  0.6508444  3
   4412   4408   4415   4416     1  0.0000000  1.2552000  3
   4412   4408   4415   4417     1  0.0000000  1.2552000  3
   4412   4424   4430   4431     1  0.0000000  0.6508444  3
   4412   4424   4430   4432     1  0.0000000  0.6508444  3
   4413   4412   4408   4415     1  0.0000000  1.2552000  3
   4413   4412   4424   4430     1  0.0000000  0.6508444  3
   4413   4412   4424   4425     1  0.0000000  0.6508444  3
   4413   4412   4424   4426     1  0.0000000  0.6508444  3
   4414   4412   4408   4415     1  0.0000000  1.2552000  3
   4414   4412   4424   4430     1  0.0000000  0.6508444  3
   4414   4412   4424   4425     1  0.0000000  0.6508444  3
   4414   4412   4424   4426     1  0.0000000  0.6508444  3
   4415   4418   4427   4428     1  0.0000000  0.6508444  3
   4415   4418   4427   4429     1  0.0000000  0.6508444  3
   4416   4415   4418   4427     1  0.0000000  0.6508444  3
   4416   4415   4418   4419     1  0.0000000  0.6508444  3
   4416   4415   4418   4420     1  0.0000000  0.6508444  3
   4417   4415   4418   4427     1  0.0000000  0.6508444  3
   4417   4415   4418   4419     1  0.0000000  0.6508444  3
   4417   4415   4418   4420     1  0.0000000  0.6508444  3
   4419   4418   4427   4436     1  0.0000000  1.0460000  1
   4419   4418   4427   4436     1  0.0000000  0.0000000  3
   4419   4418   4427   4428     1  0.0000000  0.6508444  3
   4419   4418   4427   4429     1  0.0000000  0.6508444  3
   4420   4418   4427   4436     1  0.0000000  1.0460000  1
   4420   4418   4427   4436     1  0.0000000  0.0000000  3
   4420   4418   4427   4428     1  0.0000000  0.6508444  3
   4420   4418   4427   4429     1  0.0000000  0.6508444  3
   4422   4421   4433   8211     1  0.0000000  1.0460000  1
   4422   4421   4433   8211     1  0.0000000  0.0000000  3
   4422   4421   4433   4434     1  0.0000000  0.6508444  3
   4422   4421   4433   4435     1  0.0000000  0.6508444  3
   4423   4421   4433   8211     1  0.0000000  1.0460000  1
   4423   4421   4433   8211     1  0.0000000  0.0000000  3
   4423   4421   4433   4434     1  0.0000000  0.6508444  3
   4423   4421   4433   4435     1  0.0000000  0.6508444  3
   4425   4424   4430   8188     1  0.0000000  1.0460000  1
   4425   4424   4430   8188     1  0.0000000  0.0000000  3
   4425   4424   4430   4431     1  0.0000000  0.6508444  3
   4425   4424   4430   4432     1  0.0000000  0.6508444  3
   4426   4424   4430   8188     1  0.0000000  1.0460000  1
   4426   4424   4430   8188     1  0.0000000  0.0000000  3
   4426   4424   4430   4431     1  0.0000000  0.6508444  3
   4426   4424   4430   4432     1  0.0000000  0.6508444  3
   4430   8188   8184   8187     1  0.0000000  1.6038667  3
   4431   4430   8188   8184     1  0.0000000  1.6038667  3
   4432   4430   8188   8184     1  0.0000000  1.6038667  3
   4433   8211   8207   8210     1  0.0000000  1.6038667  3
   4434   4433   8211   8207     1  0.0000000  1.6038667  3
   4435   4433   8211   8207     1  0.0000000  1.6038667  3
   4437   4438   4450   4451     1  0.0000000  0.6508444  3
   4437   4438   4450   4452     1  0.0000000  0.6508444  3
   4437   4441   4453   4454     1  0.0000000  0.6508444  3
   4437   4441   4453   4455     1  0.0000000  0.6508444  3
   4437   4444   4447   4448     1  0.0000000  0.6508444  3
   4437   4444   4447   4449     1  0.0000000  0.6508444  3
   4438   4437   4441   4442     1  0.0000000  1.2552000  3
   4438   4437   4441   4443     1  0.0000000  1.2552000  3
   4438   4437   4444   4445     1  0.0000000  1.2552000  3
   4438   4437   4444   4446     1  0.0000000  1.2552000  3
   4438   4450   4462   4463     1  0.0000000  0.6508444  3
   4438   4450   4462   4464     1  0.0000000  0.6508444  3
   4439   4438   4437   4441     1  0.0000000  1.2552000  3
   4439   4438   4437   4444     1  0.0000000  1.2552000  3
   4439   4438   4450   4462     1  0.0000000  0.6508444  3
   4439   4438   4450   4451     1  0.0000000  0.6508444  3
   4439   4438   4450   4452     1  0.0000000  0.6508444  3
   4440   4438   4437   4441     1  0.0000000  1.2552000  3
   4440   4438   4437   4444     1  0.0000000  1.2552000  3
   4440   4438   4450   4462     1  0.0000000  0.6508444  3
   4440   4438   4450   4451     1  0.0000000  0.6508444  3
   4440   4438   4450   4452     1  0.0000000  0.6508444  3
   4441   4437   4444   4445     1  0.0000000  1.2552000  3
   4441   4437   4444   4446     1  0.0000000  1.2552000  3
   4441   4453   4459   4460     1  0.0000000  0.6508444  3
   4441   4453   4459   4461     1  0.0000000  0.6508444  3
   4442   4441   4437   4444     1  0.0000000  1.2552000  3
   4442   4441   4453   4459     1  0.0000000  0.6508444  3
   4442   4441   4453   4454     1  0.0000000  0.6508444  3
   4442   4441   4453   4455     1  0.0000000  0.6508444  3
   4443   4441   4437   4444     1  0.0000000  1.2552000  3
   4443   4441   4453   4459     1  0.0000000  0.6508444  3
   4443   4441   4453   4454     1  0.0000000  0.6508444  3
   4443   4441   4453   4455     1  0.0000000  0.6508444  3
   4444   4447   4456   4457     1  0.0000000  0.6508444  3
   4444   4447   4456   4458     1  0.0000000  0.6508444  3
   4445   4444   4447   4456     1  0.0000000  0.6508444  3
   4445   4444   4447   4448     1  0.0000000  0.6508444  3
   4445   4444   4447   4449     1  0.0000000  0.6508444  3
   4446   4444   4447   4456     1  0.0000000  0.6508444  3
   4446   4444   4447   4448     1  0.0000000  0.6508444  3
   4446   4444   4447   4449     1  0.0000000  0.6508444  3
   4448   4447   4456   4465     1  0.0000000  1.0460000  1
   4448   4447   4456   4465     1  0.0000000  0.0000000  3
   4448   4447   4456   4457     1  0.0000000  0.6508444  3
   4448   4447   4456   4458     1  0.0000000  0.6508444  3
   4449   4447   4456   4465     1  0.0000000  1.0460000  1
   4449   4447   4456   4465     1  0.0000000  0.0000000  3
   4449   4447   4456   4457     1  0.0000000  0.6508444  3
   4449   4447   4456   4458     1  0.0000000  0.6508444  3
   4451   4450   4462   8257     1  0.0000000  1.0460000  1
   4451   4450   4462   8257     1  0.0000000  0.0000000  3
   4451   4450   4462   4463     1  0.0000000  0.6508444  3
   4451   4450   4462   4464     1  0.0000000  0.6508444  3
   4452   4450   4462   8257     1  0.0000000  1.0460000  1
   4452   4450   4462   8257     1  0.0000000  0.0000000  3
   4452   4450   4462   4463     1  0.0000000  0.6508444  3
   4452   4450   4462   4464     1  0.0000000  0.6508444  3
   4454   4453   4459   8234     1  0.0000000  1.0460000  1
   4454   4453   4459   8234     1  0.0000000  0.0000000  3
   4454   4453   4459   4460     1  0.0000000  0.6508444  3
   4454   4453   4459   4461     1  0.0000000  0.6508444  3
   4455   4453   4459   8234     1  0.0000000  1.0460000  1
   4455   4453   4459   8234     1  0.0000000  0.0000000  3
   4455   4453   4459   4460     1  0.0000000  0.6508444  3
   4455   4453   4459   4461     1  0.0000000  0.6508444  3
   4459   8234   8230   8233     1  0.0000000  1.6038667  3
   4460   4459   8234   8230     1  0.0000000  1.6038667  3
   4461   4459   8234   8230     1  0.0000000  1.6038667  3
   4462   8257   8253   8256     1  0.0000000  1.6038667  3
   4463   4462   8257   8253     1  0.0000000  1.6038667  3
   4464   4462   8257   8253     1  0.0000000  1.6038667  3
   4466   4467   4479   4480     1  0.0000000  0.6508444  3
   4466   4467   4479   4481     1  0.0000000  0.6508444  3
   4466   4470   4482   4483     1  0.0000000  0.6508444  3
   4466   4470   4482   4484     1  0.0000000  0.6508444  3
   4466   4473   4476   4477     1  0.0000000  0.6508444  3
   4466   4473   4476   4478     1  0.0000000  0.6508444  3
   4467   4466   4470   4471     1  0.0000000  1.2552000  3
   4467   4466   4470   4472     1  0.0000000  1.2552000  3
   4467   4466   4473   4474     1  0.0000000  1.2552000  3
   4467   4466   4473   4475     1  0.0000000  1.2552000  3
   4467   4479   4491   4492     1  0.0000000  0.6508444  3
   4467   4479   4491   4493     1  0.0000000  0.6508444  3
   4468   4467   4466   4470     1  0.0000000  1.2552000  3
   4468   4467   4466   4473     1  0.0000000  1.2552000  3
   4468   4467   4479   4491     1  0.0000000  0.6508444  3
   4468   4467   4479   4480     1  0.0000000  0.6508444  3
   4468   4467   4479   4481     1  0.0000000  0.6508444  3
   4469   4467   4466   4470     1  0.0000000  1.2552000  3
   4469   4467   4466   4473     1  0.0000000  1.2552000  3
   4469   4467   4479   4491     1  0.0000000  0.6508444  3
   4469   4467   4479   4480     1  0.0000000  0.6508444  3
   4469   4467   4479   4481     1  0.0000000  0.6508444  3
   4470   4466   4473   4474     1  0.0000000  1.2552000  3
   4470   4466   4473   4475     1  0.0000000  1.2552000  3
   4470   4482   4488   4489     1  0.0000000  0.6508444  3
   4470   4482   4488   4490     1  0.0000000  0.6508444  3
   4471   4470   4466   4473     1  0.0000000  1.2552000  3
   4471   4470   4482   4488     1  0.0000000  0.6508444  3
   4471   4470   4482   4483     1  0.0000000  0.6508444  3
   4471   4470   4482   4484     1  0.0000000  0.6508444  3
   4472   4470   4466   4473     1  0.0000000  1.2552000  3
   4472   4470   4482   4488     1  0.0000000  0.6508444  3
   4472   4470   4482   4483     1  0.0000000  0.6508444  3
   4472   4470   4482   4484     1  0.0000000  0.6508444  3
   4473   4476   4485   4486     1  0.0000000  0.6508444  3
   4473   4476   4485   4487     1  0.0000000  0.6508444  3
   4474   4473   4476   4485     1  0.0000000  0.6508444  3
   4474   4473   4476   4477     1  0.0000000  0.6508444  3
   4474   4473   4476   4478     1  0.0000000  0.6508444  3
   4475   4473   4476   4485     1  0.0000000  0.6508444  3
   4475   4473   4476   4477     1  0.0000000  0.6508444  3
   4475   4473   4476   4478     1  0.0000000  0.6508444  3
   4477   4476   4485   4494     1  0.0000000  1.0460000  1
   4477   4476   4485   4494     1  0.0000000  0.0000000  3
   4477   4476   4485   4486     1  0.0000000  0.6508444  3
   4477   4476   4485   4487     1  0.0000000  0.6508444  3
   4478   4476   4485   4494     1  0.0000000  1.0460000  1
   4478   4476   4485   4494     1  0.0000000  0.0000000  3
   4478   4476   4485   4486     1  0.0000000  0.6508444  3
   4478   4476   4485   4487     1  0.0000000  0.6508444  3
   4480   4479   4491   8303     1  0.0000000  1.0460000  1
   4480   4479   4491   8303     1  0.0000000  0.0000000  3
   4480   4479   4491   4492     1  0.0000000  0.6508444  3
   4480   4479   4491   4493     1  0.0000000  0.6508444  3
   4481   4479   4491   8303     1  0.0000000  1.0460000  1
   4481   4479   4491   8303     1  0.0000000  0.0000000  3
   4481   4479   4491   4492     1  0.0000000  0.6508444  3
   4481   4479   4491   4493     1  0.0000000  0.6508444  3
   4483   4482   4488   8280     1  0.0000000  1.0460000  1
   4483   4482   4488   8280     1  0.0000000  0.0000000  3
   4483   4482   4488   4489     1  0.0000000  0.6508444  3
   4483   4482   4488   4490     1  0.0000000  0.6508444  3
   4484   4482   4488   8280     1  0.0000000  1.0460000  1
   4484   4482   4488   8280     1  0.0000000  0.0000000  3
   4484   4482   4488   4489     1  0.0000000  0.6508444  3
   4484   4482   4488   4490     1  0.0000000  0.6508444  3
   4488   8280   8276   8279     1  0.0000000  1.6038667  3
   4489   4488   8280   8276     1  0.0000000  1.6038667  3
   4490   4488   8280   8276     1  0.0000000  1.6038667  3
   4491   8303   8299   8302     1  0.0000000  1.6038667  3
   4492   4491   8303   8299     1  0.0000000  1.6038667  3
   4493   4491   8303   8299     1  0.0000000  1.6038667  3
   4495   4496   4508   4509     1  0.0000000  0.6508444  3
   4495   4496   4508   4510     1  0.0000000  0.6508444  3
   4495   4499   4511   4512     1  0.0000000  0.6508444  3
   4495   4499   4511   4513     1  0.0000000  0.6508444  3
   4495   4502   4505   4506     1  0.0000000  0.6508444  3
   4495   4502   4505   4507     1  0.0000000  0.6508444  3
   4496   4495   4499   4500     1  0.0000000  1.2552000  3
   4496   4495   4499   4501     1  0.0000000  1.2552000  3
   4496   4495   4502   4503     1  0.0000000  1.2552000  3
   4496   4495   4502   4504     1  0.0000000  1.2552000  3
   4496   4508   4520   4521     1  0.0000000  0.6508444  3
   4496   4508   4520   4522     1  0.0000000  0.6508444  3
   4497   4496   4495   4499     1  0.0000000  1.2552000  3
   4497   4496   4495   4502     1  0.0000000  1.2552000  3
   4497   4496   4508   4520     1  0.0000000  0.6508444  3
   4497   4496   4508   4509     1  0.0000000  0.6508444  3
   4497   4496   4508   4510     1  0.0000000  0.6508444  3
   4498   4496   4495   4499     1  0.0000000  1.2552000  3
   4498   4496   4495   4502     1  0.0000000  1.2552000  3
   4498   4496   4508   4520     1  0.0000000  0.6508444  3
   4498   4496   4508   4509     1  0.0000000  0.6508444  3
   4498   4496   4508   4510     1  0.0000000  0.6508444  3
   4499   4495   4502   4503     1  0.0000000  1.2552000  3
   4499   4495   4502   4504     1  0.0000000  1.2552000  3
   4499   4511   4517   4518     1  0.0000000  0.6508444  3
   4499   4511   4517   4519     1  0.0000000  0.6508444  3
   4500   4499   4495   4502     1  0.0000000  1.2552000  3
   4500   4499   4511   4517     1  0.0000000  0.6508444  3
   4500   4499   4511   4512     1  0.0000000  0.6508444  3
   4500   4499   4511   4513     1  0.0000000  0.6508444  3
   4501   4499   4495   4502     1  0.0000000  1.2552000  3
   4501   4499   4511   4517     1  0.0000000  0.6508444  3
   4501   4499   4511   4512     1  0.0000000  0.6508444  3
   4501   4499   4511   4513     1  0.0000000  0.6508444  3
   4502   4505   4514   4515     1  0.0000000  0.6508444  3
   4502   4505   4514   4516     1  0.0000000  0.6508444  3
   4503   4502   4505   4514     1  0.0000000  0.6508444  3
   4503   4502   4505   4506     1  0.0000000  0.6508444  3
   4503   4502   4505   4507     1  0.0000000  0.6508444  3
   4504   4502   4505   4514     1  0.0000000  0.6508444  3
   4504   4502   4505   4506     1  0.0000000  0.6508444  3
   4504   4502   4505   4507     1  0.0000000  0.6508444  3
   4506   4505   4514   4523     1  0.0000000  1.0460000  1
   4506   4505   4514   4523     1  0.0000000  0.0000000  3
   4506   4505   4514   4515     1  0.0000000  0.6508444  3
   4506   4505   4514   4516     1  0.0000000  0.6508444  3
   4507   4505   4514   4523     1  0.0000000  1.0460000  1
   4507   4505   4514   4523     1  0.0000000  0.0000000  3
   4507   4505   4514   4515     1  0.0000000  0.6508444  3
   4507   4505   4514   4516     1  0.0000000  0.6508444  3
   4509   4508   4520   8349     1  0.0000000  1.0460000  1
   4509   4508   4520   8349     1  0.0000000  0.0000000  3
   4509   4508   4520   4521     1  0.0000000  0.6508444  3
   4509   4508   4520   4522     1  0.0000000  0.6508444  3
   4510   4508   4520   8349     1  0.0000000  1.0460000  1
   4510   4508   4520   8349     1  0.0000000  0.0000000  3
   4510   4508   4520   4521     1  0.0000000  0.6508444  3
   4510   4508   4520   4522     1  0.0000000  0.6508444  3
   4512   4511   4517   8326     1  0.0000000  1.0460000  1
   4512   4511   4517   8326     1  0.0000000  0.0000000  3
   4512   4511   4517   4518     1  0.0000000  0.6508444  3
   4512   4511   4517   4519     1  0.0000000  0.6508444  3
   4513   4511   4517   8326     1  0.0000000  1.0460000  1
   4513   4511   4517   8326     1  0.0000000  0.0000000  3
   4513   4511   4517   4518     1  0.0000000  0.6508444  3
   4513   4511   4517   4519     1  0.0000000  0.6508444  3
   4517   8326   8322   8325     1  0.0000000  1.6038667  3
   4518   4517   8326   8322     1  0.0000000  1.6038667  3
   4519   4517   8326   8322     1  0.0000000  1.6038667  3
   4520   8349   8345   8348     1  0.0000000  1.6038667  3
   4521   4520   8349   8345     1  0.0000000  1.6038667  3
   4522   4520   8349   8345     1  0.0000000  1.6038667  3
   4524   4525   4537   4538     1  0.0000000  0.6508444  3
   4524   4525   4537   4539     1  0.0000000  0.6508444  3
   4524   4528   4540   4541     1  0.0000000  0.6508444  3
   4524   4528   4540   4542     1  0.0000000  0.6508444  3
   4524   4531   4534   4535     1  0.0000000  0.6508444  3
   4524   4531   4534   4536     1  0.0000000  0.6508444  3
   4525   4524   4528   4529     1  0.0000000  1.2552000  3
   4525   4524   4528   4530     1  0.0000000  1.2552000  3
   4525   4524   4531   4532     1  0.0000000  1.2552000  3
   4525   4524   4531   4533     1  0.0000000  1.2552000  3
   4525   4537   4549   4550     1  0.0000000  0.6508444  3
   4525   4537   4549   4551     1  0.0000000  0.6508444  3
   4526   4525   4524   4528     1  0.0000000  1.2552000  3
   4526   4525   4524   4531     1  0.0000000  1.2552000  3
   4526   4525   4537   4549     1  0.0000000  0.6508444  3
   4526   4525   4537   4538     1  0.0000000  0.6508444  3
   4526   4525   4537   4539     1  0.0000000  0.6508444  3
   4527   4525   4524   4528     1  0.0000000  1.2552000  3
   4527   4525   4524   4531     1  0.0000000  1.2552000  3
   4527   4525   4537   4549     1  0.0000000  0.6508444  3
   4527   4525   4537   4538     1  0.0000000  0.6508444  3
   4527   4525   4537   4539     1  0.0000000  0.6508444  3
   4528   4524   4531   4532     1  0.0000000  1.2552000  3
   4528   4524   4531   4533     1  0.0000000  1.2552000  3
   4528   4540   4546   4547     1  0.0000000  0.6508444  3
   4528   4540   4546   4548     1  0.0000000  0.6508444  3
   4529   4528   4524   4531     1  0.0000000  1.2552000  3
   4529   4528   4540   4546     1  0.0000000  0.6508444  3
   4529   4528   4540   4541     1  0.0000000  0.6508444  3
   4529   4528   4540   4542     1  0.0000000  0.6508444  3
   4530   4528   4524   4531     1  0.0000000  1.2552000  3
   4530   4528   4540   4546     1  0.0000000  0.6508444  3
   4530   4528   4540   4541     1  0.0000000  0.6508444  3
   4530   4528   4540   4542     1  0.0000000  0.6508444  3
   4531   4534   4543   4544     1  0.0000000  0.6508444  3
   4531   4534   4543   4545     1  0.0000000  0.6508444  3
   4532   4531   4534   4543     1  0.0000000  0.6508444  3
   4532   4531   4534   4535     1  0.0000000  0.6508444  3
   4532   4531   4534   4536     1  0.0000000  0.6508444  3
   4533   4531   4534   4543     1  0.0000000  0.6508444  3
   4533   4531   4534   4535     1  0.0000000  0.6508444  3
   4533   4531   4534   4536     1  0.0000000  0.6508444  3
   4535   4534   4543   4552     1  0.0000000  1.0460000  1
   4535   4534   4543   4552     1  0.0000000  0.0000000  3
   4535   4534   4543   4544     1  0.0000000  0.6508444  3
   4535   4534   4543   4545     1  0.0000000  0.6508444  3
   4536   4534   4543   4552     1  0.0000000  1.0460000  1
   4536   4534   4543   4552     1  0.0000000  0.0000000  3
   4536   4534   4543   4544     1  0.0000000  0.6508444  3
   4536   4534   4543   4545     1  0.0000000  0.6508444  3
   4538   4537   4549   8395     1  0.0000000  1.0460000  1
   4538   4537   4549   8395     1  0.0000000  0.0000000  3
   4538   4537   4549   4550     1  0.0000000  0.6508444  3
   4538   4537   4549   4551     1  0.0000000  0.6508444  3
   4539   4537   4549   8395     1  0.0000000  1.0460000  1
   4539   4537   4549   8395     1  0.0000000  0.0000000  3
   4539   4537   4549   4550     1  0.0000000  0.6508444  3
   4539   4537   4549   4551     1  0.0000000  0.6508444  3
   4541   4540   4546   8372     1  0.0000000  1.0460000  1
   4541   4540   4546   8372     1  0.0000000  0.0000000  3
   4541   4540   4546   4547     1  0.0000000  0.6508444  3
   4541   4540   4546   4548     1  0.0000000  0.6508444  3
   4542   4540   4546   8372     1  0.0000000  1.0460000  1
   4542   4540   4546   8372     1  0.0000000  0.0000000  3
   4542   4540   4546   4547     1  0.0000000  0.6508444  3
   4542   4540   4546   4548     1  0.0000000  0.6508444  3
   4546   8372   8368   8371     1  0.0000000  1.6038667  3
   4547   4546   8372   8368     1  0.0000000  1.6038667  3
   4548   4546   8372   8368     1  0.0000000  1.6038667  3
   4549   8395   8391   8394     1  0.0000000  1.6038667  3
   4550   4549   8395   8391     1  0.0000000  1.6038667  3
   4551   4549   8395   8391     1  0.0000000  1.6038667  3
   4553   4554   4566   4567     1  0.0000000  0.6508444  3
   4553   4554   4566   4568     1  0.0000000  0.6508444  3
   4553   4557   4569   4570     1  0.0000000  0.6508444  3
   4553   4557   4569   4571     1  0.0000000  0.6508444  3
   4553   4560   4563   4564     1  0.0000000  0.6508444  3
   4553   4560   4563   4565     1  0.0000000  0.6508444  3
   4554   4553   4557   4558     1  0.0000000  1.2552000  3
   4554   4553   4557   4559     1  0.0000000  1.2552000  3
   4554   4553   4560   4561     1  0.0000000  1.2552000  3
   4554   4553   4560   4562     1  0.0000000  1.2552000  3
   4554   4566   4578   4579     1  0.0000000  0.6508444  3
   4554   4566   4578   4580     1  0.0000000  0.6508444  3
   4555   4554   4553   4557     1  0.0000000  1.2552000  3
   4555   4554   4553   4560     1  0.0000000  1.2552000  3
   4555   4554   4566   4578     1  0.0000000  0.6508444  3
   4555   4554   4566   4567     1  0.0000000  0.6508444  3
   4555   4554   4566   4568     1  0.0000000  0.6508444  3
   4556   4554   4553   4557     1  0.0000000  1.2552000  3
   4556   4554   4553   4560     1  0.0000000  1.2552000  3
   4556   4554   4566   4578     1  0.0000000  0.6508444  3
   4556   4554   4566   4567     1  0.0000000  0.6508444  3
   4556   4554   4566   4568     1  0.0000000  0.6508444  3
   4557   4553   4560   4561     1  0.0000000  1.2552000  3
   4557   4553   4560   4562     1  0.0000000  1.2552000  3
   4557   4569   4575   4576     1  0.0000000  0.6508444  3
   4557   4569   4575   4577     1  0.0000000  0.6508444  3
   4558   4557   4553   4560     1  0.0000000  1.2552000  3
   4558   4557   4569   4575     1  0.0000000  0.6508444  3
   4558   4557   4569   4570     1  0.0000000  0.6508444  3
   4558   4557   4569   4571     1  0.0000000  0.6508444  3
   4559   4557   4553   4560     1  0.0000000  1.2552000  3
   4559   4557   4569   4575     1  0.0000000  0.6508444  3
   4559   4557   4569   4570     1  0.0000000  0.6508444  3
   4559   4557   4569   4571     1  0.0000000  0.6508444  3
   4560   4563   4572   4573     1  0.0000000  0.6508444  3
   4560   4563   4572   4574     1  0.0000000  0.6508444  3
   4561   4560   4563   4572     1  0.0000000  0.6508444  3
   4561   4560   4563   4564     1  0.0000000  0.6508444  3
   4561   4560   4563   4565     1  0.0000000  0.6508444  3
   4562   4560   4563   4572     1  0.0000000  0.6508444  3
   4562   4560   4563   4564     1  0.0000000  0.6508444  3
   4562   4560   4563   4565     1  0.0000000  0.6508444  3
   4564   4563   4572   4581     1  0.0000000  1.0460000  1
   4564   4563   4572   4581     1  0.0000000  0.0000000  3
   4564   4563   4572   4573     1  0.0000000  0.6508444  3
   4564   4563   4572   4574     1  0.0000000  0.6508444  3
   4565   4563   4572   4581     1  0.0000000  1.0460000  1
   4565   4563   4572   4581     1  0.0000000  0.0000000  3
   4565   4563   4572   4573     1  0.0000000  0.6508444  3
   4565   4563   4572   4574     1  0.0000000  0.6508444  3
   4567   4566   4578   8441     1  0.0000000  1.0460000  1
   4567   4566   4578   8441     1  0.0000000  0.0000000  3
   4567   4566   4578   4579     1  0.0000000  0.6508444  3
   4567   4566   4578   4580     1  0.0000000  0.6508444  3
   4568   4566   4578   8441     1  0.0000000  1.0460000  1
   4568   4566   4578   8441     1  0.0000000  0.0000000  3
   4568   4566   4578   4579     1  0.0000000  0.6508444  3
   4568   4566   4578   4580     1  0.0000000  0.6508444  3
   4570   4569   4575   8418     1  0.0000000  1.0460000  1
   4570   4569   4575   8418     1  0.0000000  0.0000000  3
   4570   4569   4575   4576     1  0.0000000  0.6508444  3
   4570   4569   4575   4577     1  0.0000000  0.6508444  3
   4571   4569   4575   8418     1  0.0000000  1.0460000  1
   4571   4569   4575   8418     1  0.0000000  0.0000000  3
   4571   4569   4575   4576     1  0.0000000  0.6508444  3
   4571   4569   4575   4577     1  0.0000000  0.6508444  3
   4575   8418   8414   8417     1  0.0000000  1.6038667  3
   4576   4575   8418   8414     1  0.0000000  1.6038667  3
   4577   4575   8418   8414     1  0.0000000  1.6038667  3
   4578   8441   8437   8440     1  0.0000000  1.6038667  3
   4579   4578   8441   8437     1  0.0000000  1.6038667  3
   4580   4578   8441   8437     1  0.0000000  1.6038667  3
   4582   4583   4595   4596     1  0.0000000  0.6508444  3
   4582   4583   4595   4597     1  0.0000000  0.6508444  3
   4582   4586   4598   4599     1  0.0000000  0.6508444  3
   4582   4586   4598   4600     1  0.0000000  0.6508444  3
   4582   4589   4592   4593     1  0.0000000  0.6508444  3
   4582   4589   4592   4594     1  0.0000000  0.6508444  3
   4583   4582   4586   4587     1  0.0000000  1.2552000  3
   4583   4582   4586   4588     1  0.0000000  1.2552000  3
   4583   4582   4589   4590     1  0.0000000  1.2552000  3
   4583   4582   4589   4591     1  0.0000000  1.2552000  3
   4583   4595   4607   4608     1  0.0000000  0.6508444  3
   4583   4595   4607   4609     1  0.0000000  0.6508444  3
   4584   4583   4582   4586     1  0.0000000  1.2552000  3
   4584   4583   4582   4589     1  0.0000000  1.2552000  3
   4584   4583   4595   4607     1  0.0000000  0.6508444  3
   4584   4583   4595   4596     1  0.0000000  0.6508444  3
   4584   4583   4595   4597     1  0.0000000  0.6508444  3
   4585   4583   4582   4586     1  0.0000000  1.2552000  3
   4585   4583   4582   4589     1  0.0000000  1.2552000  3
   4585   4583   4595   4607     1  0.0000000  0.6508444  3
   4585   4583   4595   4596     1  0.0000000  0.6508444  3
   4585   4583   4595   4597     1  0.0000000  0.6508444  3
   4586   4582   4589   4590     1  0.0000000  1.2552000  3
   4586   4582   4589   4591     1  0.0000000  1.2552000  3
   4586   4598   4604   4605     1  0.0000000  0.6508444  3
   4586   4598   4604   4606     1  0.0000000  0.6508444  3
   4587   4586   4582   4589     1  0.0000000  1.2552000  3
   4587   4586   4598   4604     1  0.0000000  0.6508444  3
   4587   4586   4598   4599     1  0.0000000  0.6508444  3
   4587   4586   4598   4600     1  0.0000000  0.6508444  3
   4588   4586   4582   4589     1  0.0000000  1.2552000  3
   4588   4586   4598   4604     1  0.0000000  0.6508444  3
   4588   4586   4598   4599     1  0.0000000  0.6508444  3
   4588   4586   4598   4600     1  0.0000000  0.6508444  3
   4589   4592   4601   4602     1  0.0000000  0.6508444  3
   4589   4592   4601   4603     1  0.0000000  0.6508444  3
   4590   4589   4592   4601     1  0.0000000  0.6508444  3
   4590   4589   4592   4593     1  0.0000000  0.6508444  3
   4590   4589   4592   4594     1  0.0000000  0.6508444  3
   4591   4589   4592   4601     1  0.0000000  0.6508444  3
   4591   4589   4592   4593     1  0.0000000  0.6508444  3
   4591   4589   4592   4594     1  0.0000000  0.6508444  3
   4593   4592   4601   4610     1  0.0000000  1.0460000  1
   4593   4592   4601   4610     1  0.0000000  0.0000000  3
   4593   4592   4601   4602     1  0.0000000  0.6508444  3
   4593   4592   4601   4603     1  0.0000000  0.6508444  3
   4594   4592   4601   4610     1  0.0000000  1.0460000  1
   4594   4592   4601   4610     1  0.0000000  0.0000000  3
   4594   4592   4601   4602     1  0.0000000  0.6508444  3
   4594   4592   4601   4603     1  0.0000000  0.6508444  3
   4596   4595   4607   8487     1  0.0000000  1.0460000  1
   4596   4595   4607   8487     1  0.0000000  0.0000000  3
   4596   4595   4607   4608     1  0.0000000  0.6508444  3
   4596   4595   4607   4609     1  0.0000000  0.6508444  3
   4597   4595   4607   8487     1  0.0000000  1.0460000  1
   4597   4595   4607   8487     1  0.0000000  0.0000000  3
   4597   4595   4607   4608     1  0.0000000  0.6508444  3
   4597   4595   4607   4609     1  0.0000000  0.6508444  3
   4599   4598   4604   8464     1  0.0000000  1.0460000  1
   4599   4598   4604   8464     1  0.0000000  0.0000000  3
   4599   4598   4604   4605     1  0.0000000  0.6508444  3
   4599   4598   4604   4606     1  0.0000000  0.6508444  3
   4600   4598   4604   8464     1  0.0000000  1.0460000  1
   4600   4598   4604   8464     1  0.0000000  0.0000000  3
   4600   4598   4604   4605     1  0.0000000  0.6508444  3
   4600   4598   4604   4606     1  0.0000000  0.6508444  3
   4604   8464   8460   8463     1  0.0000000  1.6038667  3
   4605   4604   8464   8460     1  0.0000000  1.6038667  3
   4606   4604   8464   8460     1  0.0000000  1.6038667  3
   4607   8487   8483   8486     1  0.0000000  1.6038667  3
   4608   4607   8487   8483     1  0.0000000  1.6038667  3
   4609   4607   8487   8483     1  0.0000000  1.6038667  3
   4611   4612   4624   4625     1  0.0000000  0.6508444  3
   4611   4612   4624   4626     1  0.0000000  0.6508444  3
   4611   4615   4627   4628     1  0.0000000  0.6508444  3
   4611   4615   4627   4629     1  0.0000000  0.6508444  3
   4611   4618   4621   4622     1  0.0000000  0.6508444  3
   4611   4618   4621   4623     1  0.0000000  0.6508444  3
   4612   4611   4615   4616     1  0.0000000  1.2552000  3
   4612   4611   4615   4617     1  0.0000000  1.2552000  3
   4612   4611   4618   4619     1  0.0000000  1.2552000  3
   4612   4611   4618   4620     1  0.0000000  1.2552000  3
   4612   4624   4636   4637     1  0.0000000  0.6508444  3
   4612   4624   4636   4638     1  0.0000000  0.6508444  3
   4613   4612   4611   4615     1  0.0000000  1.2552000  3
   4613   4612   4611   4618     1  0.0000000  1.2552000  3
   4613   4612   4624   4636     1  0.0000000  0.6508444  3
   4613   4612   4624   4625     1  0.0000000  0.6508444  3
   4613   4612   4624   4626     1  0.0000000  0.6508444  3
   4614   4612   4611   4615     1  0.0000000  1.2552000  3
   4614   4612   4611   4618     1  0.0000000  1.2552000  3
   4614   4612   4624   4636     1  0.0000000  0.6508444  3
   4614   4612   4624   4625     1  0.0000000  0.6508444  3
   4614   4612   4624   4626     1  0.0000000  0.6508444  3
   4615   4611   4618   4619     1  0.0000000  1.2552000  3
   4615   4611   4618   4620     1  0.0000000  1.2552000  3
   4615   4627   4633   4634     1  0.0000000  0.6508444  3
   4615   4627   4633   4635     1  0.0000000  0.6508444  3
   4616   4615   4611   4618     1  0.0000000  1.2552000  3
   4616   4615   4627   4633     1  0.0000000  0.6508444  3
   4616   4615   4627   4628     1  0.0000000  0.6508444  3
   4616   4615   4627   4629     1  0.0000000  0.6508444  3
   4617   4615   4611   4618     1  0.0000000  1.2552000  3
   4617   4615   4627   4633     1  0.0000000  0.6508444  3
   4617   4615   4627   4628     1  0.0000000  0.6508444  3
   4617   4615   4627   4629     1  0.0000000  0.6508444  3
   4618   4621   4630   4631     1  0.0000000  0.6508444  3
   4618   4621   4630   4632     1  0.0000000  0.6508444  3
   4619   4618   4621   4630     1  0.0000000  0.6508444  3
   4619   4618   4621   4622     1  0.0000000  0.6508444  3
   4619   4618   4621   4623     1  0.0000000  0.6508444  3
   4620   4618   4621   4630     1  0.0000000  0.6508444  3
   4620   4618   4621   4622     1  0.0000000  0.6508444  3
   4620   4618   4621   4623     1  0.0000000  0.6508444  3
   4622   4621   4630   4639     1  0.0000000  1.0460000  1
   4622   4621   4630   4639     1  0.0000000  0.0000000  3
   4622   4621   4630   4631     1  0.0000000  0.6508444  3
   4622   4621   4630   4632     1  0.0000000  0.6508444  3
   4623   4621   4630   4639     1  0.0000000  1.0460000  1
   4623   4621   4630   4639     1  0.0000000  0.0000000  3
   4623   4621   4630   4631     1  0.0000000  0.6508444  3
   4623   4621   4630   4632     1  0.0000000  0.6508444  3
   4625   4624   4636   8533     1  0.0000000  1.0460000  1
   4625   4624   4636   8533     1  0.0000000  0.0000000  3
   4625   4624   4636   4637     1  0.0000000  0.6508444  3
   4625   4624   4636   4638     1  0.0000000  0.6508444  3
   4626   4624   4636   8533     1  0.0000000  1.0460000  1
   4626   4624   4636   8533     1  0.0000000  0.0000000  3
   4626   4624   4636   4637     1  0.0000000  0.6508444  3
   4626   4624   4636   4638     1  0.0000000  0.6508444  3
   4628   4627   4633   8510     1  0.0000000  1.0460000  1
   4628   4627   4633   8510     1  0.0000000  0.0000000  3
   4628   4627   4633   4634     1  0.0000000  0.6508444  3
   4628   4627   4633   4635     1  0.0000000  0.6508444  3
   4629   4627   4633   8510     1  0.0000000  1.0460000  1
   4629   4627   4633   8510     1  0.0000000  0.0000000  3
   4629   4627   4633   4634     1  0.0000000  0.6508444  3
   4629   4627   4633   4635     1  0.0000000  0.6508444  3
   4633   8510   8506   8509     1  0.0000000  1.6038667  3
   4634   4633   8510   8506     1  0.0000000  1.6038667  3
   4635   4633   8510   8506     1  0.0000000  1.6038667  3
   4636   8533   8529   8532     1  0.0000000  1.6038667  3
   4637   4636   8533   8529     1  0.0000000  1.6038667  3
   4638   4636   8533   8529     1  0.0000000  1.6038667  3
   4640   4641   4653   4654     1  0.0000000  0.6508444  3
   4640   4641   4653   4655     1  0.0000000  0.6508444  3
   4640   4644   4656   4657     1  0.0000000  0.6508444  3
   4640   4644   4656   4658     1  0.0000000  0.6508444  3
   4640   4647   4650   4651     1  0.0000000  0.6508444  3
   4640   4647   4650   4652     1  0.0000000  0.6508444  3
   4641   4640   4644   4645     1  0.0000000  1.2552000  3
   4641   4640   4644   4646     1  0.0000000  1.2552000  3
   4641   4640   4647   4648     1  0.0000000  1.2552000  3
   4641   4640   4647   4649     1  0.0000000  1.2552000  3
   4641   4653   4665   4666     1  0.0000000  0.6508444  3
   4641   4653   4665   4667     1  0.0000000  0.6508444  3
   4642   4641   4640   4644     1  0.0000000  1.2552000  3
   4642   4641   4640   4647     1  0.0000000  1.2552000  3
   4642   4641   4653   4665     1  0.0000000  0.6508444  3
   4642   4641   4653   4654     1  0.0000000  0.6508444  3
   4642   4641   4653   4655     1  0.0000000  0.6508444  3
   4643   4641   4640   4644     1  0.0000000  1.2552000  3
   4643   4641   4640   4647     1  0.0000000  1.2552000  3
   4643   4641   4653   4665     1  0.0000000  0.6508444  3
   4643   4641   4653   4654     1  0.0000000  0.6508444  3
   4643   4641   4653   4655     1  0.0000000  0.6508444  3
   4644   4640   4647   4648     1  0.0000000  1.2552000  3
   4644   4640   4647   4649     1  0.0000000  1.2552000  3
   4644   4656   4662   4663     1  0.0000000  0.6508444  3
   4644   4656   4662   4664     1  0.0000000  0.6508444  3
   4645   4644   4640   4647     1  0.0000000  1.2552000  3
   4645   4644   4656   4662     1  0.0000000  0.6508444  3
   4645   4644   4656   4657     1  0.0000000  0.6508444  3
   4645   4644   4656   4658     1  0.0000000  0.6508444  3
   4646   4644   4640   4647     1  0.0000000  1.2552000  3
   4646   4644   4656   4662     1  0.0000000  0.6508444  3
   4646   4644   4656   4657     1  0.0000000  0.6508444  3
   4646   4644   4656   4658     1  0.0000000  0.6508444  3
   4647   4650   4659   4660     1  0.0000000  0.6508444  3
   4647   4650   4659   4661     1  0.0000000  0.6508444  3
   4648   4647   4650   4659     1  0.0000000  0.6508444  3
   4648   4647   4650   4651     1  0.0000000  0.6508444  3
   4648   4647   4650   4652     1  0.0000000  0.6508444  3
   4649   4647   4650   4659     1  0.0000000  0.6508444  3
   4649   4647   4650   4651     1  0.0000000  0.6508444  3
   4649   4647   4650   4652     1  0.0000000  0.6508444  3
   4651   4650   4659   4668     1  0.0000000  1.0460000  1
   4651   4650   4659   4668     1  0.0000000  0.0000000  3
   4651   4650   4659   4660     1  0.0000000  0.6508444  3
   4651   4650   4659   4661     1  0.0000000  0.6508444  3
   4652   4650   4659   4668     1  0.0000000  1.0460000  1
   4652   4650   4659   4668     1  0.0000000  0.0000000  3
   4652   4650   4659   4660     1  0.0000000  0.6508444  3
   4652   4650   4659   4661     1  0.0000000  0.6508444  3
   4654   4653   4665   8579     1  0.0000000  1.0460000  1
   4654   4653   4665   8579     1  0.0000000  0.0000000  3
   4654   4653   4665   4666     1  0.0000000  0.6508444  3
   4654   4653   4665   4667     1  0.0000000  0.6508444  3
   4655   4653   4665   8579     1  0.0000000  1.0460000  1
   4655   4653   4665   8579     1  0.0000000  0.0000000  3
   4655   4653   4665   4666     1  0.0000000  0.6508444  3
   4655   4653   4665   4667     1  0.0000000  0.6508444  3
   4657   4656   4662   8556     1  0.0000000  1.0460000  1
   4657   4656   4662   8556     1  0.0000000  0.0000000  3
   4657   4656   4662   4663     1  0.0000000  0.6508444  3
   4657   4656   4662   4664     1  0.0000000  0.6508444  3
   4658   4656   4662   8556     1  0.0000000  1.0460000  1
   4658   4656   4662   8556     1  0.0000000  0.0000000  3
   4658   4656   4662   4663     1  0.0000000  0.6508444  3
   4658   4656   4662   4664     1  0.0000000  0.6508444  3
   4662   8556   8552   8555     1  0.0000000  1.6038667  3
   4663   4662   8556   8552     1  0.0000000  1.6038667  3
   4664   4662   8556   8552     1  0.0000000  1.6038667  3
   4665   8579   8575   8578     1  0.0000000  1.6038667  3
   4666   4665   8579   8575     1  0.0000000  1.6038667  3
   4667   4665   8579   8575     1  0.0000000  1.6038667  3
   4669   4670   4682   4683     1  0.0000000  0.6508444  3
   4669   4670   4682   4684     1  0.0000000  0.6508444  3
   4669   4673   4685   4686     1  0.0000000  0.6508444  3
   4669   4673   4685   4687     1  0.0000000  0.6508444  3
   4669   4676   4679   4680     1  0.0000000  0.6508444  3
   4669   4676   4679   4681     1  0.0000000  0.6508444  3
   4670   4669   4673   4674     1  0.0000000  1.2552000  3
   4670   4669   4673   4675     1  0.0000000  1.2552000  3
   4670   4669   4676   4677     1  0.0000000  1.2552000  3
   4670   4669   4676   4678     1  0.0000000  1.2552000  3
   4670   4682   4694   4695     1  0.0000000  0.6508444  3
   4670   4682   4694   4696     1  0.0000000  0.6508444  3
   4671   4670   4669   4673     1  0.0000000  1.2552000  3
   4671   4670   4669   4676     1  0.0000000  1.2552000  3
   4671   4670   4682   4694     1  0.0000000  0.6508444  3
   4671   4670   4682   4683     1  0.0000000  0.6508444  3
   4671   4670   4682   4684     1  0.0000000  0.6508444  3
   4672   4670   4669   4673     1  0.0000000  1.2552000  3
   4672   4670   4669   4676     1  0.0000000  1.2552000  3
   4672   4670   4682   4694     1  0.0000000  0.6508444  3
   4672   4670   4682   4683     1  0.0000000  0.6508444  3
   4672   4670   4682   4684     1  0.0000000  0.6508444  3
   4673   4669   4676   4677     1  0.0000000  1.2552000  3
   4673   4669   4676   4678     1  0.0000000  1.2552000  3
   4673   4685   4691   4692     1  0.0000000  0.6508444  3
   4673   4685   4691   4693     1  0.0000000  0.6508444  3
   4674   4673   4669   4676     1  0.0000000  1.2552000  3
   4674   4673   4685   4691     1  0.0000000  0.6508444  3
   4674   4673   4685   4686     1  0.0000000  0.6508444  3
   4674   4673   4685   4687     1  0.0000000  0.6508444  3
   4675   4673   4669   4676     1  0.0000000  1.2552000  3
   4675   4673   4685   4691     1  0.0000000  0.6508444  3
   4675   4673   4685   4686     1  0.0000000  0.6508444  3
   4675   4673   4685   4687     1  0.0000000  0.6508444  3
   4676   4679   4688   4689     1  0.0000000  0.6508444  3
   4676   4679   4688   4690     1  0.0000000  0.6508444  3
   4677   4676   4679   4688     1  0.0000000  0.6508444  3
   4677   4676   4679   4680     1  0.0000000  0.6508444  3
   4677   4676   4679   4681     1  0.0000000  0.6508444  3
   4678   4676   4679   4688     1  0.0000000  0.6508444  3
   4678   4676   4679   4680     1  0.0000000  0.6508444  3
   4678   4676   4679   4681     1  0.0000000  0.6508444  3
   4680   4679   4688   4697     1  0.0000000  1.0460000  1
   4680   4679   4688   4697     1  0.0000000  0.0000000  3
   4680   4679   4688   4689     1  0.0000000  0.6508444  3
   4680   4679   4688   4690     1  0.0000000  0.6508444  3
   4681   4679   4688   4697     1  0.0000000  1.0460000  1
   4681   4679   4688   4697     1  0.0000000  0.0000000  3
   4681   4679   4688   4689     1  0.0000000  0.6508444  3
   4681   4679   4688   4690     1  0.0000000  0.6508444  3
   4683   4682   4694   8625     1  0.0000000  1.0460000  1
   4683   4682   4694   8625     1  0.0000000  0.0000000  3
   4683   4682   4694   4695     1  0.0000000  0.6508444  3
   4683   4682   4694   4696     1  0.0000000  0.6508444  3
   4684   4682   4694   8625     1  0.0000000  1.0460000  1
   4684   4682   4694   8625     1  0.0000000  0.0000000  3
   4684   4682   4694   4695     1  0.0000000  0.6508444  3
   4684   4682   4694   4696     1  0.0000000  0.6508444  3
   4686   4685   4691   8602     1  0.0000000  1.0460000  1
   4686   4685   4691   8602     1  0.0000000  0.0000000  3
   4686   4685   4691   4692     1  0.0000000  0.6508444  3
   4686   4685   4691   4693     1  0.0000000  0.6508444  3
   4687   4685   4691   8602     1  0.0000000  1.0460000  1
   4687   4685   4691   8602     1  0.0000000  0.0000000  3
   4687   4685   4691   4692     1  0.0000000  0.6508444  3
   4687   4685   4691   4693     1  0.0000000  0.6508444  3
   4691   8602   8598   8601     1  0.0000000  1.6038667  3
   4692   4691   8602   8598     1  0.0000000  1.6038667  3
   4693   4691   8602   8598     1  0.0000000  1.6038667  3
   4694   8625   8621   8624     1  0.0000000  1.6038667  3
   4695   4694   8625   8621     1  0.0000000  1.6038667  3
   4696   4694   8625   8621     1  0.0000000  1.6038667  3
   4698   4699   4711   4712     1  0.0000000  0.6508444  3
   4698   4699   4711   4713     1  0.0000000  0.6508444  3
   4698   4702   4714   4715     1  0.0000000  0.6508444  3
   4698   4702   4714   4716     1  0.0000000  0.6508444  3
   4698   4705   4708   4709     1  0.0000000  0.6508444  3
   4698   4705   4708   4710     1  0.0000000  0.6508444  3
   4699   4698   4702   4703     1  0.0000000  1.2552000  3
   4699   4698   4702   4704     1  0.0000000  1.2552000  3
   4699   4698   4705   4706     1  0.0000000  1.2552000  3
   4699   4698   4705   4707     1  0.0000000  1.2552000  3
   4699   4711   4723   4724     1  0.0000000  0.6508444  3
   4699   4711   4723   4725     1  0.0000000  0.6508444  3
   4700   4699   4698   4702     1  0.0000000  1.2552000  3
   4700   4699   4698   4705     1  0.0000000  1.2552000  3
   4700   4699   4711   4723     1  0.0000000  0.6508444  3
   4700   4699   4711   4712     1  0.0000000  0.6508444  3
   4700   4699   4711   4713     1  0.0000000  0.6508444  3
   4701   4699   4698   4702     1  0.0000000  1.2552000  3
   4701   4699   4698   4705     1  0.0000000  1.2552000  3
   4701   4699   4711   4723     1  0.0000000  0.6508444  3
   4701   4699   4711   4712     1  0.0000000  0.6508444  3
   4701   4699   4711   4713     1  0.0000000  0.6508444  3
   4702   4698   4705   4706     1  0.0000000  1.2552000  3
   4702   4698   4705   4707     1  0.0000000  1.2552000  3
   4702   4714   4720   4721     1  0.0000000  0.6508444  3
   4702   4714   4720   4722     1  0.0000000  0.6508444  3
   4703   4702   4698   4705     1  0.0000000  1.2552000  3
   4703   4702   4714   4720     1  0.0000000  0.6508444  3
   4703   4702   4714   4715     1  0.0000000  0.6508444  3
   4703   4702   4714   4716     1  0.0000000  0.6508444  3
   4704   4702   4698   4705     1  0.0000000  1.2552000  3
   4704   4702   4714   4720     1  0.0000000  0.6508444  3
   4704   4702   4714   4715     1  0.0000000  0.6508444  3
   4704   4702   4714   4716     1  0.0000000  0.6508444  3
   4705   4708   4717   4718     1  0.0000000  0.6508444  3
   4705   4708   4717   4719     1  0.0000000  0.6508444  3
   4706   4705   4708   4717     1  0.0000000  0.6508444  3
   4706   4705   4708   4709     1  0.0000000  0.6508444  3
   4706   4705   4708   4710     1  0.0000000  0.6508444  3
   4707   4705   4708   4717     1  0.0000000  0.6508444  3
   4707   4705   4708   4709     1  0.0000000  0.6508444  3
   4707   4705   4708   4710     1  0.0000000  0.6508444  3
   4709   4708   4717   4726     1  0.0000000  1.0460000  1
   4709   4708   4717   4726     1  0.0000000  0.0000000  3
   4709   4708   4717   4718     1  0.0000000  0.6508444  3
   4709   4708   4717   4719     1  0.0000000  0.6508444  3
   4710   4708   4717   4726     1  0.0000000  1.0460000  1
   4710   4708   4717   4726     1  0.0000000  0.0000000  3
   4710   4708   4717   4718     1  0.0000000  0.6508444  3
   4710   4708   4717   4719     1  0.0000000  0.6508444  3
   4712   4711   4723   8671     1  0.0000000  1.0460000  1
   4712   4711   4723   8671     1  0.0000000  0.0000000  3
   4712   4711   4723   4724     1  0.0000000  0.6508444  3
   4712   4711   4723   4725     1  0.0000000  0.6508444  3
   4713   4711   4723   8671     1  0.0000000  1.0460000  1
   4713   4711   4723   8671     1  0.0000000  0.0000000  3
   4713   4711   4723   4724     1  0.0000000  0.6508444  3
   4713   4711   4723   4725     1  0.0000000  0.6508444  3
   4715   4714   4720   8648     1  0.0000000  1.0460000  1
   4715   4714   4720   8648     1  0.0000000  0.0000000  3
   4715   4714   4720   4721     1  0.0000000  0.6508444  3
   4715   4714   4720   4722     1  0.0000000  0.6508444  3
   4716   4714   4720   8648     1  0.0000000  1.0460000  1
   4716   4714   4720   8648     1  0.0000000  0.0000000  3
   4716   4714   4720   4721     1  0.0000000  0.6508444  3
   4716   4714   4720   4722     1  0.0000000  0.6508444  3
   4720   8648   8644   8647     1  0.0000000  1.6038667  3
   4721   4720   8648   8644     1  0.0000000  1.6038667  3
   4722   4720   8648   8644     1  0.0000000  1.6038667  3
   4723   8671   8667   8670     1  0.0000000  1.6038667  3
   4724   4723   8671   8667     1  0.0000000  1.6038667  3
   4725   4723   8671   8667     1  0.0000000  1.6038667  3
   4727   4728   4740   4741     1  0.0000000  0.6508444  3
   4727   4728   4740   4742     1  0.0000000  0.6508444  3
   4727   4731   4743   4744     1  0.0000000  0.6508444  3
   4727   4731   4743   4745     1  0.0000000  0.6508444  3
   4727   4734   4737   4738     1  0.0000000  0.6508444  3
   4727   4734   4737   4739     1  0.0000000  0.6508444  3
   4728   4727   4731   4732     1  0.0000000  1.2552000  3
   4728   4727   4731   4733     1  0.0000000  1.2552000  3
   4728   4727   4734   4735     1  0.0000000  1.2552000  3
   4728   4727   4734   4736     1  0.0000000  1.2552000  3
   4728   4740   4752   4753     1  0.0000000  0.6508444  3
   4728   4740   4752   4754     1  0.0000000  0.6508444  3
   4729   4728   4727   4731     1  0.0000000  1.2552000  3
   4729   4728   4727   4734     1  0.0000000  1.2552000  3
   4729   4728   4740   4752     1  0.0000000  0.6508444  3
   4729   4728   4740   4741     1  0.0000000  0.6508444  3
   4729   4728   4740   4742     1  0.0000000  0.6508444  3
   4730   4728   4727   4731     1  0.0000000  1.2552000  3
   4730   4728   4727   4734     1  0.0000000  1.2552000  3
   4730   4728   4740   4752     1  0.0000000  0.6508444  3
   4730   4728   4740   4741     1  0.0000000  0.6508444  3
   4730   4728   4740   4742     1  0.0000000  0.6508444  3
   4731   4727   4734   4735     1  0.0000000  1.2552000  3
   4731   4727   4734   4736     1  0.0000000  1.2552000  3
   4731   4743   4749   4750     1  0.0000000  0.6508444  3
   4731   4743   4749   4751     1  0.0000000  0.6508444  3
   4732   4731   4727   4734     1  0.0000000  1.2552000  3
   4732   4731   4743   4749     1  0.0000000  0.6508444  3
   4732   4731   4743   4744     1  0.0000000  0.6508444  3
   4732   4731   4743   4745     1  0.0000000  0.6508444  3
   4733   4731   4727   4734     1  0.0000000  1.2552000  3
   4733   4731   4743   4749     1  0.0000000  0.6508444  3
   4733   4731   4743   4744     1  0.0000000  0.6508444  3
   4733   4731   4743   4745     1  0.0000000  0.6508444  3
   4734   4737   4746   4747     1  0.0000000  0.6508444  3
   4734   4737   4746   4748     1  0.0000000  0.6508444  3
   4735   4734   4737   4746     1  0.0000000  0.6508444  3
   4735   4734   4737   4738     1  0.0000000  0.6508444  3
   4735   4734   4737   4739     1  0.0000000  0.6508444  3
   4736   4734   4737   4746     1  0.0000000  0.6508444  3
   4736   4734   4737   4738     1  0.0000000  0.6508444  3
   4736   4734   4737   4739     1  0.0000000  0.6508444  3
   4738   4737   4746   4755     1  0.0000000  1.0460000  1
   4738   4737   4746   4755     1  0.0000000  0.0000000  3
   4738   4737   4746   4747     1  0.0000000  0.6508444  3
   4738   4737   4746   4748     1  0.0000000  0.6508444  3
   4739   4737   4746   4755     1  0.0000000  1.0460000  1
   4739   4737   4746   4755     1  0.0000000  0.0000000  3
   4739   4737   4746   4747     1  0.0000000  0.6508444  3
   4739   4737   4746   4748     1  0.0000000  0.6508444  3
   4741   4740   4752   8717     1  0.0000000  1.0460000  1
   4741   4740   4752   8717     1  0.0000000  0.0000000  3
   4741   4740   4752   4753     1  0.0000000  0.6508444  3
   4741   4740   4752   4754     1  0.0000000  0.6508444  3
   4742   4740   4752   8717     1  0.0000000  1.0460000  1
   4742   4740   4752   8717     1  0.0000000  0.0000000  3
   4742   4740   4752   4753     1  0.0000000  0.6508444  3
   4742   4740   4752   4754     1  0.0000000  0.6508444  3
   4744   4743   4749   8694     1  0.0000000  1.0460000  1
   4744   4743   4749   8694     1  0.0000000  0.0000000  3
   4744   4743   4749   4750     1  0.0000000  0.6508444  3
   4744   4743   4749   4751     1  0.0000000  0.6508444  3
   4745   4743   4749   8694     1  0.0000000  1.0460000  1
   4745   4743   4749   8694     1  0.0000000  0.0000000  3
   4745   4743   4749   4750     1  0.0000000  0.6508444  3
   4745   4743   4749   4751     1  0.0000000  0.6508444  3
   4749   8694   8690   8693     1  0.0000000  1.6038667  3
   4750   4749   8694   8690     1  0.0000000  1.6038667  3
   4751   4749   8694   8690     1  0.0000000  1.6038667  3
   4752   8717   8713   8716     1  0.0000000  1.6038667  3
   4753   4752   8717   8713     1  0.0000000  1.6038667  3
   4754   4752   8717   8713     1  0.0000000  1.6038667  3
   4756   4757   4769   4770     1  0.0000000  0.6508444  3
   4756   4757   4769   4771     1  0.0000000  0.6508444  3
   4756   4760   4772   4773     1  0.0000000  0.6508444  3
   4756   4760   4772   4774     1  0.0000000  0.6508444  3
   4756   4763   4766   4767     1  0.0000000  0.6508444  3
   4756   4763   4766   4768     1  0.0000000  0.6508444  3
   4757   4756   4760   4761     1  0.0000000  1.2552000  3
   4757   4756   4760   4762     1  0.0000000  1.2552000  3
   4757   4756   4763   4764     1  0.0000000  1.2552000  3
   4757   4756   4763   4765     1  0.0000000  1.2552000  3
   4757   4769   4781   4782     1  0.0000000  0.6508444  3
   4757   4769   4781   4783     1  0.0000000  0.6508444  3
   4758   4757   4756   4760     1  0.0000000  1.2552000  3
   4758   4757   4756   4763     1  0.0000000  1.2552000  3
   4758   4757   4769   4781     1  0.0000000  0.6508444  3
   4758   4757   4769   4770     1  0.0000000  0.6508444  3
   4758   4757   4769   4771     1  0.0000000  0.6508444  3
   4759   4757   4756   4760     1  0.0000000  1.2552000  3
   4759   4757   4756   4763     1  0.0000000  1.2552000  3
   4759   4757   4769   4781     1  0.0000000  0.6508444  3
   4759   4757   4769   4770     1  0.0000000  0.6508444  3
   4759   4757   4769   4771     1  0.0000000  0.6508444  3
   4760   4756   4763   4764     1  0.0000000  1.2552000  3
   4760   4756   4763   4765     1  0.0000000  1.2552000  3
   4760   4772   4778   4779     1  0.0000000  0.6508444  3
   4760   4772   4778   4780     1  0.0000000  0.6508444  3
   4761   4760   4756   4763     1  0.0000000  1.2552000  3
   4761   4760   4772   4778     1  0.0000000  0.6508444  3
   4761   4760   4772   4773     1  0.0000000  0.6508444  3
   4761   4760   4772   4774     1  0.0000000  0.6508444  3
   4762   4760   4756   4763     1  0.0000000  1.2552000  3
   4762   4760   4772   4778     1  0.0000000  0.6508444  3
   4762   4760   4772   4773     1  0.0000000  0.6508444  3
   4762   4760   4772   4774     1  0.0000000  0.6508444  3
   4763   4766   4775   4776     1  0.0000000  0.6508444  3
   4763   4766   4775   4777     1  0.0000000  0.6508444  3
   4764   4763   4766   4775     1  0.0000000  0.6508444  3
   4764   4763   4766   4767     1  0.0000000  0.6508444  3
   4764   4763   4766   4768     1  0.0000000  0.6508444  3
   4765   4763   4766   4775     1  0.0000000  0.6508444  3
   4765   4763   4766   4767     1  0.0000000  0.6508444  3
   4765   4763   4766   4768     1  0.0000000  0.6508444  3
   4767   4766   4775   4784     1  0.0000000  1.0460000  1
   4767   4766   4775   4784     1  0.0000000  0.0000000  3
   4767   4766   4775   4776     1  0.0000000  0.6508444  3
   4767   4766   4775   4777     1  0.0000000  0.6508444  3
   4768   4766   4775   4784     1  0.0000000  1.0460000  1
   4768   4766   4775   4784     1  0.0000000  0.0000000  3
   4768   4766   4775   4776     1  0.0000000  0.6508444  3
   4768   4766   4775   4777     1  0.0000000  0.6508444  3
   4770   4769   4781   8763     1  0.0000000  1.0460000  1
   4770   4769   4781   8763     1  0.0000000  0.0000000  3
   4770   4769   4781   4782     1  0.0000000  0.6508444  3
   4770   4769   4781   4783     1  0.0000000  0.6508444  3
   4771   4769   4781   8763     1  0.0000000  1.0460000  1
   4771   4769   4781   8763     1  0.0000000  0.0000000  3
   4771   4769   4781   4782     1  0.0000000  0.6508444  3
   4771   4769   4781   4783     1  0.0000000  0.6508444  3
   4773   4772   4778   8740     1  0.0000000  1.0460000  1
   4773   4772   4778   8740     1  0.0000000  0.0000000  3
   4773   4772   4778   4779     1  0.0000000  0.6508444  3
   4773   4772   4778   4780     1  0.0000000  0.6508444  3
   4774   4772   4778   8740     1  0.0000000  1.0460000  1
   4774   4772   4778   8740     1  0.0000000  0.0000000  3
   4774   4772   4778   4779     1  0.0000000  0.6508444  3
   4774   4772   4778   4780     1  0.0000000  0.6508444  3
   4778   8740   8736   8739     1  0.0000000  1.6038667  3
   4779   4778   8740   8736     1  0.0000000  1.6038667  3
   4780   4778   8740   8736     1  0.0000000  1.6038667  3
   4781   8763   8759   8762     1  0.0000000  1.6038667  3
   4782   4781   8763   8759     1  0.0000000  1.6038667  3
   4783   4781   8763   8759     1  0.0000000  1.6038667  3
   4785   4786   4798   4799     1  0.0000000  0.6508444  3
   4785   4786   4798   4800     1  0.0000000  0.6508444  3
   4785   4789   4801   4802     1  0.0000000  0.6508444  3
   4785   4789   4801   4803     1  0.0000000  0.6508444  3
   4785   4792   4795   4796     1  0.0000000  0.6508444  3
   4785   4792   4795   4797     1  0.0000000  0.6508444  3
   4786   4785   4789   4790     1  0.0000000  1.2552000  3
   4786   4785   4789   4791     1  0.0000000  1.2552000  3
   4786   4785   4792   4793     1  0.0000000  1.2552000  3
   4786   4785   4792   4794     1  0.0000000  1.2552000  3
   4786   4798   4810   4811     1  0.0000000  0.6508444  3
   4786   4798   4810   4812     1  0.0000000  0.6508444  3
   4787   4786   4785   4789     1  0.0000000  1.2552000  3
   4787   4786   4785   4792     1  0.0000000  1.2552000  3
   4787   4786   4798   4810     1  0.0000000  0.6508444  3
   4787   4786   4798   4799     1  0.0000000  0.6508444  3
   4787   4786   4798   4800     1  0.0000000  0.6508444  3
   4788   4786   4785   4789     1  0.0000000  1.2552000  3
   4788   4786   4785   4792     1  0.0000000  1.2552000  3
   4788   4786   4798   4810     1  0.0000000  0.6508444  3
   4788   4786   4798   4799     1  0.0000000  0.6508444  3
   4788   4786   4798   4800     1  0.0000000  0.6508444  3
   4789   4785   4792   4793     1  0.0000000  1.2552000  3
   4789   4785   4792   4794     1  0.0000000  1.2552000  3
   4789   4801   4807   4808     1  0.0000000  0.6508444  3
   4789   4801   4807   4809     1  0.0000000  0.6508444  3
   4790   4789   4785   4792     1  0.0000000  1.2552000  3
   4790   4789   4801   4807     1  0.0000000  0.6508444  3
   4790   4789   4801   4802     1  0.0000000  0.6508444  3
   4790   4789   4801   4803     1  0.0000000  0.6508444  3
   4791   4789   4785   4792     1  0.0000000  1.2552000  3
   4791   4789   4801   4807     1  0.0000000  0.6508444  3
   4791   4789   4801   4802     1  0.0000000  0.6508444  3
   4791   4789   4801   4803     1  0.0000000  0.6508444  3
   4792   4795   4804   4805     1  0.0000000  0.6508444  3
   4792   4795   4804   4806     1  0.0000000  0.6508444  3
   4793   4792   4795   4804     1  0.0000000  0.6508444  3
   4793   4792   4795   4796     1  0.0000000  0.6508444  3
   4793   4792   4795   4797     1  0.0000000  0.6508444  3
   4794   4792   4795   4804     1  0.0000000  0.6508444  3
   4794   4792   4795   4796     1  0.0000000  0.6508444  3
   4794   4792   4795   4797     1  0.0000000  0.6508444  3
   4796   4795   4804   4813     1  0.0000000  1.0460000  1
   4796   4795   4804   4813     1  0.0000000  0.0000000  3
   4796   4795   4804   4805     1  0.0000000  0.6508444  3
   4796   4795   4804   4806     1  0.0000000  0.6508444  3
   4797   4795   4804   4813     1  0.0000000  1.0460000  1
   4797   4795   4804   4813     1  0.0000000  0.0000000  3
   4797   4795   4804   4805     1  0.0000000  0.6508444  3
   4797   4795   4804   4806     1  0.0000000  0.6508444  3
   4799   4798   4810   8809     1  0.0000000  1.0460000  1
   4799   4798   4810   8809     1  0.0000000  0.0000000  3
   4799   4798   4810   4811     1  0.0000000  0.6508444  3
   4799   4798   4810   4812     1  0.0000000  0.6508444  3
   4800   4798   4810   8809     1  0.0000000  1.0460000  1
   4800   4798   4810   8809     1  0.0000000  0.0000000  3
   4800   4798   4810   4811     1  0.0000000  0.6508444  3
   4800   4798   4810   4812     1  0.0000000  0.6508444  3
   4802   4801   4807   8786     1  0.0000000  1.0460000  1
   4802   4801   4807   8786     1  0.0000000  0.0000000  3
   4802   4801   4807   4808     1  0.0000000  0.6508444  3
   4802   4801   4807   4809     1  0.0000000  0.6508444  3
   4803   4801   4807   8786     1  0.0000000  1.0460000  1
   4803   4801   4807   8786     1  0.0000000  0.0000000  3
   4803   4801   4807   4808     1  0.0000000  0.6508444  3
   4803   4801   4807   4809     1  0.0000000  0.6508444  3
   4807   8786   8782   8785     1  0.0000000  1.6038667  3
   4808   4807   8786   8782     1  0.0000000  1.6038667  3
   4809   4807   8786   8782     1  0.0000000  1.6038667  3
   4810   8809   8805   8808     1  0.0000000  1.6038667  3
   4811   4810   8809   8805     1  0.0000000  1.6038667  3
   4812   4810   8809   8805     1  0.0000000  1.6038667  3
   4814   4815   4827   4828     1  0.0000000  0.6508444  3
   4814   4815   4827   4829     1  0.0000000  0.6508444  3
   4814   4818   4830   4831     1  0.0000000  0.6508444  3
   4814   4818   4830   4832     1  0.0000000  0.6508444  3
   4814   4821   4824   4825     1  0.0000000  0.6508444  3
   4814   4821   4824   4826     1  0.0000000  0.6508444  3
   4815   4814   4818   4819     1  0.0000000  1.2552000  3
   4815   4814   4818   4820     1  0.0000000  1.2552000  3
   4815   4814   4821   4822     1  0.0000000  1.2552000  3
   4815   4814   4821   4823     1  0.0000000  1.2552000  3
   4815   4827   4839   4840     1  0.0000000  0.6508444  3
   4815   4827   4839   4841     1  0.0000000  0.6508444  3
   4816   4815   4814   4818     1  0.0000000  1.2552000  3
   4816   4815   4814   4821     1  0.0000000  1.2552000  3
   4816   4815   4827   4839     1  0.0000000  0.6508444  3
   4816   4815   4827   4828     1  0.0000000  0.6508444  3
   4816   4815   4827   4829     1  0.0000000  0.6508444  3
   4817   4815   4814   4818     1  0.0000000  1.2552000  3
   4817   4815   4814   4821     1  0.0000000  1.2552000  3
   4817   4815   4827   4839     1  0.0000000  0.6508444  3
   4817   4815   4827   4828     1  0.0000000  0.6508444  3
   4817   4815   4827   4829     1  0.0000000  0.6508444  3
   4818   4814   4821   4822     1  0.0000000  1.2552000  3
   4818   4814   4821   4823     1  0.0000000  1.2552000  3
   4818   4830   4836   4837     1  0.0000000  0.6508444  3
   4818   4830   4836   4838     1  0.0000000  0.6508444  3
   4819   4818   4814   4821     1  0.0000000  1.2552000  3
   4819   4818   4830   4836     1  0.0000000  0.6508444  3
   4819   4818   4830   4831     1  0.0000000  0.6508444  3
   4819   4818   4830   4832     1  0.0000000  0.6508444  3
   4820   4818   4814   4821     1  0.0000000  1.2552000  3
   4820   4818   4830   4836     1  0.0000000  0.6508444  3
   4820   4818   4830   4831     1  0.0000000  0.6508444  3
   4820   4818   4830   4832     1  0.0000000  0.6508444  3
   4821   4824   4833   4834     1  0.0000000  0.6508444  3
   4821   4824   4833   4835     1  0.0000000  0.6508444  3
   4822   4821   4824   4833     1  0.0000000  0.6508444  3
   4822   4821   4824   4825     1  0.0000000  0.6508444  3
   4822   4821   4824   4826     1  0.0000000  0.6508444  3
   4823   4821   4824   4833     1  0.0000000  0.6508444  3
   4823   4821   4824   4825     1  0.0000000  0.6508444  3
   4823   4821   4824   4826     1  0.0000000  0.6508444  3
   4825   4824   4833   4842     1  0.0000000  1.0460000  1
   4825   4824   4833   4842     1  0.0000000  0.0000000  3
   4825   4824   4833   4834     1  0.0000000  0.6508444  3
   4825   4824   4833   4835     1  0.0000000  0.6508444  3
   4826   4824   4833   4842     1  0.0000000  1.0460000  1
   4826   4824   4833   4842     1  0.0000000  0.0000000  3
   4826   4824   4833   4834     1  0.0000000  0.6508444  3
   4826   4824   4833   4835     1  0.0000000  0.6508444  3
   4828   4827   4839   8855     1  0.0000000  1.0460000  1
   4828   4827   4839   8855     1  0.0000000  0.0000000  3
   4828   4827   4839   4840     1  0.0000000  0.6508444  3
   4828   4827   4839   4841     1  0.0000000  0.6508444  3
   4829   4827   4839   8855     1  0.0000000  1.0460000  1
   4829   4827   4839   8855     1  0.0000000  0.0000000  3
   4829   4827   4839   4840     1  0.0000000  0.6508444  3
   4829   4827   4839   4841     1  0.0000000  0.6508444  3
   4831   4830   4836   8832     1  0.0000000  1.0460000  1
   4831   4830   4836   8832     1  0.0000000  0.0000000  3
   4831   4830   4836   4837     1  0.0000000  0.6508444  3
   4831   4830   4836   4838     1  0.0000000  0.6508444  3
   4832   4830   4836   8832     1  0.0000000  1.0460000  1
   4832   4830   4836   8832     1  0.0000000  0.0000000  3
   4832   4830   4836   4837     1  0.0000000  0.6508444  3
   4832   4830   4836   4838     1  0.0000000  0.6508444  3
   4836   8832   8828   8831     1  0.0000000  1.6038667  3
   4837   4836   8832   8828     1  0.0000000  1.6038667  3
   4838   4836   8832   8828     1  0.0000000  1.6038667  3
   4839   8855   8851   8854     1  0.0000000  1.6038667  3
   4840   4839   8855   8851     1  0.0000000  1.6038667  3
   4841   4839   8855   8851     1  0.0000000  1.6038667  3
   4843   4844   4856   4857     1  0.0000000  0.6508444  3
   4843   4844   4856   4858     1  0.0000000  0.6508444  3
   4843   4847   4859   4860     1  0.0000000  0.6508444  3
   4843   4847   4859   4861     1  0.0000000  0.6508444  3
   4843   4850   4853   4854     1  0.0000000  0.6508444  3
   4843   4850   4853   4855     1  0.0000000  0.6508444  3
   4844   4843   4847   4848     1  0.0000000  1.2552000  3
   4844   4843   4847   4849     1  0.0000000  1.2552000  3
   4844   4843   4850   4851     1  0.0000000  1.2552000  3
   4844   4843   4850   4852     1  0.0000000  1.2552000  3
   4844   4856   4868   4869     1  0.0000000  0.6508444  3
   4844   4856   4868   4870     1  0.0000000  0.6508444  3
   4845   4844   4843   4847     1  0.0000000  1.2552000  3
   4845   4844   4843   4850     1  0.0000000  1.2552000  3
   4845   4844   4856   4868     1  0.0000000  0.6508444  3
   4845   4844   4856   4857     1  0.0000000  0.6508444  3
   4845   4844   4856   4858     1  0.0000000  0.6508444  3
   4846   4844   4843   4847     1  0.0000000  1.2552000  3
   4846   4844   4843   4850     1  0.0000000  1.2552000  3
   4846   4844   4856   4868     1  0.0000000  0.6508444  3
   4846   4844   4856   4857     1  0.0000000  0.6508444  3
   4846   4844   4856   4858     1  0.0000000  0.6508444  3
   4847   4843   4850   4851     1  0.0000000  1.2552000  3
   4847   4843   4850   4852     1  0.0000000  1.2552000  3
   4847   4859   4865   4866     1  0.0000000  0.6508444  3
   4847   4859   4865   4867     1  0.0000000  0.6508444  3
   4848   4847   4843   4850     1  0.0000000  1.2552000  3
   4848   4847   4859   4865     1  0.0000000  0.6508444  3
   4848   4847   4859   4860     1  0.0000000  0.6508444  3
   4848   4847   4859   4861     1  0.0000000  0.6508444  3
   4849   4847   4843   4850     1  0.0000000  1.2552000  3
   4849   4847   4859   4865     1  0.0000000  0.6508444  3
   4849   4847   4859   4860     1  0.0000000  0.6508444  3
   4849   4847   4859   4861     1  0.0000000  0.6508444  3
   4850   4853   4862   4863     1  0.0000000  0.6508444  3
   4850   4853   4862   4864     1  0.0000000  0.6508444  3
   4851   4850   4853   4862     1  0.0000000  0.6508444  3
   4851   4850   4853   4854     1  0.0000000  0.6508444  3
   4851   4850   4853   4855     1  0.0000000  0.6508444  3
   4852   4850   4853   4862     1  0.0000000  0.6508444  3
   4852   4850   4853   4854     1  0.0000000  0.6508444  3
   4852   4850   4853   4855     1  0.0000000  0.6508444  3
   4854   4853   4862   4871     1  0.0000000  1.0460000  1
   4854   4853   4862   4871     1  0.0000000  0.0000000  3
   4854   4853   4862   4863     1  0.0000000  0.6508444  3
   4854   4853   4862   4864     1  0.0000000  0.6508444  3
   4855   4853   4862   4871     1  0.0000000  1.0460000  1
   4855   4853   4862   4871     1  0.0000000  0.0000000  3
   4855   4853   4862   4863     1  0.0000000  0.6508444  3
   4855   4853   4862   4864     1  0.0000000  0.6508444  3
   4857   4856   4868   8901     1  0.0000000  1.0460000  1
   4857   4856   4868   8901     1  0.0000000  0.0000000  3
   4857   4856   4868   4869     1  0.0000000  0.6508444  3
   4857   4856   4868   4870     1  0.0000000  0.6508444  3
   4858   4856   4868   8901     1  0.0000000  1.0460000  1
   4858   4856   4868   8901     1  0.0000000  0.0000000  3
   4858   4856   4868   4869     1  0.0000000  0.6508444  3
   4858   4856   4868   4870     1  0.0000000  0.6508444  3
   4860   4859   4865   8878     1  0.0000000  1.0460000  1
   4860   4859   4865   8878     1  0.0000000  0.0000000  3
   4860   4859   4865   4866     1  0.0000000  0.6508444  3
   4860   4859   4865   4867     1  0.0000000  0.6508444  3
   4861   4859   4865   8878     1  0.0000000  1.0460000  1
   4861   4859   4865   8878     1  0.0000000  0.0000000  3
   4861   4859   4865   4866     1  0.0000000  0.6508444  3
   4861   4859   4865   4867     1  0.0000000  0.6508444  3
   4865   8878   8874   8877     1  0.0000000  1.6038667  3
   4866   4865   8878   8874     1  0.0000000  1.6038667  3
   4867   4865   8878   8874     1  0.0000000  1.6038667  3
   4868   8901   8897   8900     1  0.0000000  1.6038667  3
   4869   4868   8901   8897     1  0.0000000  1.6038667  3
   4870   4868   8901   8897     1  0.0000000  1.6038667  3
   4872   4873   4885   4886     1  0.0000000  0.6508444  3
   4872   4873   4885   4887     1  0.0000000  0.6508444  3
   4872   4876   4888   4889     1  0.0000000  0.6508444  3
   4872   4876   4888   4890     1  0.0000000  0.6508444  3
   4872   4879   4882   4883     1  0.0000000  0.6508444  3
   4872   4879   4882   4884     1  0.0000000  0.6508444  3
   4873   4872   4876   4877     1  0.0000000  1.2552000  3
   4873   4872   4876   4878     1  0.0000000  1.2552000  3
   4873   4872   4879   4880     1  0.0000000  1.2552000  3
   4873   4872   4879   4881     1  0.0000000  1.2552000  3
   4873   4885   4897   4898     1  0.0000000  0.6508444  3
   4873   4885   4897   4899     1  0.0000000  0.6508444  3
   4874   4873   4872   4876     1  0.0000000  1.2552000  3
   4874   4873   4872   4879     1  0.0000000  1.2552000  3
   4874   4873   4885   4897     1  0.0000000  0.6508444  3
   4874   4873   4885   4886     1  0.0000000  0.6508444  3
   4874   4873   4885   4887     1  0.0000000  0.6508444  3
   4875   4873   4872   4876     1  0.0000000  1.2552000  3
   4875   4873   4872   4879     1  0.0000000  1.2552000  3
   4875   4873   4885   4897     1  0.0000000  0.6508444  3
   4875   4873   4885   4886     1  0.0000000  0.6508444  3
   4875   4873   4885   4887     1  0.0000000  0.6508444  3
   4876   4872   4879   4880     1  0.0000000  1.2552000  3
   4876   4872   4879   4881     1  0.0000000  1.2552000  3
   4876   4888   4894   4895     1  0.0000000  0.6508444  3
   4876   4888   4894   4896     1  0.0000000  0.6508444  3
   4877   4876   4872   4879     1  0.0000000  1.2552000  3
   4877   4876   4888   4894     1  0.0000000  0.6508444  3
   4877   4876   4888   4889     1  0.0000000  0.6508444  3
   4877   4876   4888   4890     1  0.0000000  0.6508444  3
   4878   4876   4872   4879     1  0.0000000  1.2552000  3
   4878   4876   4888   4894     1  0.0000000  0.6508444  3
   4878   4876   4888   4889     1  0.0000000  0.6508444  3
   4878   4876   4888   4890     1  0.0000000  0.6508444  3
   4879   4882   4891   4892     1  0.0000000  0.6508444  3
   4879   4882   4891   4893     1  0.0000000  0.6508444  3
   4880   4879   4882   4891     1  0.0000000  0.6508444  3
   4880   4879   4882   4883     1  0.0000000  0.6508444  3
   4880   4879   4882   4884     1  0.0000000  0.6508444  3
   4881   4879   4882   4891     1  0.0000000  0.6508444  3
   4881   4879   4882   4883     1  0.0000000  0.6508444  3
   4881   4879   4882   4884     1  0.0000000  0.6508444  3
   4883   4882   4891   4900     1  0.0000000  1.0460000  1
   4883   4882   4891   4900     1  0.0000000  0.0000000  3
   4883   4882   4891   4892     1  0.0000000  0.6508444  3
   4883   4882   4891   4893     1  0.0000000  0.6508444  3
   4884   4882   4891   4900     1  0.0000000  1.0460000  1
   4884   4882   4891   4900     1  0.0000000  0.0000000  3
   4884   4882   4891   4892     1  0.0000000  0.6508444  3
   4884   4882   4891   4893     1  0.0000000  0.6508444  3
   4886   4885   4897   8947     1  0.0000000  1.0460000  1
   4886   4885   4897   8947     1  0.0000000  0.0000000  3
   4886   4885   4897   4898     1  0.0000000  0.6508444  3
   4886   4885   4897   4899     1  0.0000000  0.6508444  3
   4887   4885   4897   8947     1  0.0000000  1.0460000  1
   4887   4885   4897   8947     1  0.0000000  0.0000000  3
   4887   4885   4897   4898     1  0.0000000  0.6508444  3
   4887   4885   4897   4899     1  0.0000000  0.6508444  3
   4889   4888   4894   8924     1  0.0000000  1.0460000  1
   4889   4888   4894   8924     1  0.0000000  0.0000000  3
   4889   4888   4894   4895     1  0.0000000  0.6508444  3
   4889   4888   4894   4896     1  0.0000000  0.6508444  3
   4890   4888   4894   8924     1  0.0000000  1.0460000  1
   4890   4888   4894   8924     1  0.0000000  0.0000000  3
   4890   4888   4894   4895     1  0.0000000  0.6508444  3
   4890   4888   4894   4896     1  0.0000000  0.6508444  3
   4894   8924   8920   8923     1  0.0000000  1.6038667  3
   4895   4894   8924   8920     1  0.0000000  1.6038667  3
   4896   4894   8924   8920     1  0.0000000  1.6038667  3
   4897   8947   8943   8946     1  0.0000000  1.6038667  3
   4898   4897   8947   8943     1  0.0000000  1.6038667  3
   4899   4897   8947   8943     1  0.0000000  1.6038667  3
   4901   4902   4914   4915     1  0.0000000  0.6508444  3
   4901   4902   4914   4916     1  0.0000000  0.6508444  3
   4901   4905   4917   4918     1  0.0000000  0.6508444  3
   4901   4905   4917   4919     1  0.0000000  0.6508444  3
   4901   4908   4911   4912     1  0.0000000  0.6508444  3
   4901   4908   4911   4913     1  0.0000000  0.6508444  3
   4902   4901   4905   4906     1  0.0000000  1.2552000  3
   4902   4901   4905   4907     1  0.0000000  1.2552000  3
   4902   4901   4908   4909     1  0.0000000  1.2552000  3
   4902   4901   4908   4910     1  0.0000000  1.2552000  3
   4902   4914   4926   4927     1  0.0000000  0.6508444  3
   4902   4914   4926   4928     1  0.0000000  0.6508444  3
   4903   4902   4901   4905     1  0.0000000  1.2552000  3
   4903   4902   4901   4908     1  0.0000000  1.2552000  3
   4903   4902   4914   4926     1  0.0000000  0.6508444  3
   4903   4902   4914   4915     1  0.0000000  0.6508444  3
   4903   4902   4914   4916     1  0.0000000  0.6508444  3
   4904   4902   4901   4905     1  0.0000000  1.2552000  3
   4904   4902   4901   4908     1  0.0000000  1.2552000  3
   4904   4902   4914   4926     1  0.0000000  0.6508444  3
   4904   4902   4914   4915     1  0.0000000  0.6508444  3
   4904   4902   4914   4916     1  0.0000000  0.6508444  3
   4905   4901   4908   4909     1  0.0000000  1.2552000  3
   4905   4901   4908   4910     1  0.0000000  1.2552000  3
   4905   4917   4923   4924     1  0.0000000  0.6508444  3
   4905   4917   4923   4925     1  0.0000000  0.6508444  3
   4906   4905   4901   4908     1  0.0000000  1.2552000  3
   4906   4905   4917   4923     1  0.0000000  0.6508444  3
   4906   4905   4917   4918     1  0.0000000  0.6508444  3
   4906   4905   4917   4919     1  0.0000000  0.6508444  3
   4907   4905   4901   4908     1  0.0000000  1.2552000  3
   4907   4905   4917   4923     1  0.0000000  0.6508444  3
   4907   4905   4917   4918     1  0.0000000  0.6508444  3
   4907   4905   4917   4919     1  0.0000000  0.6508444  3
   4908   4911   4920   4921     1  0.0000000  0.6508444  3
   4908   4911   4920   4922     1  0.0000000  0.6508444  3
   4909   4908   4911   4920     1  0.0000000  0.6508444  3
   4909   4908   4911   4912     1  0.0000000  0.6508444  3
   4909   4908   4911   4913     1  0.0000000  0.6508444  3
   4910   4908   4911   4920     1  0.0000000  0.6508444  3
   4910   4908   4911   4912     1  0.0000000  0.6508444  3
   4910   4908   4911   4913     1  0.0000000  0.6508444  3
   4912   4911   4920   4929     1  0.0000000  1.0460000  1
   4912   4911   4920   4929     1  0.0000000  0.0000000  3
   4912   4911   4920   4921     1  0.0000000  0.6508444  3
   4912   4911   4920   4922     1  0.0000000  0.6508444  3
   4913   4911   4920   4929     1  0.0000000  1.0460000  1
   4913   4911   4920   4929     1  0.0000000  0.0000000  3
   4913   4911   4920   4921     1  0.0000000  0.6508444  3
   4913   4911   4920   4922     1  0.0000000  0.6508444  3
   4915   4914   4926   8993     1  0.0000000  1.0460000  1
   4915   4914   4926   8993     1  0.0000000  0.0000000  3
   4915   4914   4926   4927     1  0.0000000  0.6508444  3
   4915   4914   4926   4928     1  0.0000000  0.6508444  3
   4916   4914   4926   8993     1  0.0000000  1.0460000  1
   4916   4914   4926   8993     1  0.0000000  0.0000000  3
   4916   4914   4926   4927     1  0.0000000  0.6508444  3
   4916   4914   4926   4928     1  0.0000000  0.6508444  3
   4918   4917   4923   8970     1  0.0000000  1.0460000  1
   4918   4917   4923   8970     1  0.0000000  0.0000000  3
   4918   4917   4923   4924     1  0.0000000  0.6508444  3
   4918   4917   4923   4925     1  0.0000000  0.6508444  3
   4919   4917   4923   8970     1  0.0000000  1.0460000  1
   4919   4917   4923   8970     1  0.0000000  0.0000000  3
   4919   4917   4923   4924     1  0.0000000  0.6508444  3
   4919   4917   4923   4925     1  0.0000000  0.6508444  3
   4923   8970   8966   8969     1  0.0000000  1.6038667  3
   4924   4923   8970   8966     1  0.0000000  1.6038667  3
   4925   4923   8970   8966     1  0.0000000  1.6038667  3
   4926   8993   8989   8992     1  0.0000000  1.6038667  3
   4927   4926   8993   8989     1  0.0000000  1.6038667  3
   4928   4926   8993   8989     1  0.0000000  1.6038667  3
   4930   4931   4943   4944     1  0.0000000  0.6508444  3
   4930   4931   4943   4945     1  0.0000000  0.6508444  3
   4930   4934   4946   4947     1  0.0000000  0.6508444  3
   4930   4934   4946   4948     1  0.0000000  0.6508444  3
   4930   4937   4940   4941     1  0.0000000  0.6508444  3
   4930   4937   4940   4942     1  0.0000000  0.6508444  3
   4931   4930   4934   4935     1  0.0000000  1.2552000  3
   4931   4930   4934   4936     1  0.0000000  1.2552000  3
   4931   4930   4937   4938     1  0.0000000  1.2552000  3
   4931   4930   4937   4939     1  0.0000000  1.2552000  3
   4931   4943   4955   4956     1  0.0000000  0.6508444  3
   4931   4943   4955   4957     1  0.0000000  0.6508444  3
   4932   4931   4930   4934     1  0.0000000  1.2552000  3
   4932   4931   4930   4937     1  0.0000000  1.2552000  3
   4932   4931   4943   4955     1  0.0000000  0.6508444  3
   4932   4931   4943   4944     1  0.0000000  0.6508444  3
   4932   4931   4943   4945     1  0.0000000  0.6508444  3
   4933   4931   4930   4934     1  0.0000000  1.2552000  3
   4933   4931   4930   4937     1  0.0000000  1.2552000  3
   4933   4931   4943   4955     1  0.0000000  0.6508444  3
   4933   4931   4943   4944     1  0.0000000  0.6508444  3
   4933   4931   4943   4945     1  0.0000000  0.6508444  3
   4934   4930   4937   4938     1  0.0000000  1.2552000  3
   4934   4930   4937   4939     1  0.0000000  1.2552000  3
   4934   4946   4952   4953     1  0.0000000  0.6508444  3
   4934   4946   4952   4954     1  0.0000000  0.6508444  3
   4935   4934   4930   4937     1  0.0000000  1.2552000  3
   4935   4934   4946   4952     1  0.0000000  0.6508444  3
   4935   4934   4946   4947     1  0.0000000  0.6508444  3
   4935   4934   4946   4948     1  0.0000000  0.6508444  3
   4936   4934   4930   4937     1  0.0000000  1.2552000  3
   4936   4934   4946   4952     1  0.0000000  0.6508444  3
   4936   4934   4946   4947     1  0.0000000  0.6508444  3
   4936   4934   4946   4948     1  0.0000000  0.6508444  3
   4937   4940   4949   4950     1  0.0000000  0.6508444  3
   4937   4940   4949   4951     1  0.0000000  0.6508444  3
   4938   4937   4940   4949     1  0.0000000  0.6508444  3
   4938   4937   4940   4941     1  0.0000000  0.6508444  3
   4938   4937   4940   4942     1  0.0000000  0.6508444  3
   4939   4937   4940   4949     1  0.0000000  0.6508444  3
   4939   4937   4940   4941     1  0.0000000  0.6508444  3
   4939   4937   4940   4942     1  0.0000000  0.6508444  3
   4941   4940   4949   4958     1  0.0000000  1.0460000  1
   4941   4940   4949   4958     1  0.0000000  0.0000000  3
   4941   4940   4949   4950     1  0.0000000  0.6508444  3
   4941   4940   4949   4951     1  0.0000000  0.6508444  3
   4942   4940   4949   4958     1  0.0000000  1.0460000  1
   4942   4940   4949   4958     1  0.0000000  0.0000000  3
   4942   4940   4949   4950     1  0.0000000  0.6508444  3
   4942   4940   4949   4951     1  0.0000000  0.6508444  3
   4944   4943   4955   9039     1  0.0000000  1.0460000  1
   4944   4943   4955   9039     1  0.0000000  0.0000000  3
   4944   4943   4955   4956     1  0.0000000  0.6508444  3
   4944   4943   4955   4957     1  0.0000000  0.6508444  3
   4945   4943   4955   9039     1  0.0000000  1.0460000  1
   4945   4943   4955   9039     1  0.0000000  0.0000000  3
   4945   4943   4955   4956     1  0.0000000  0.6508444  3
   4945   4943   4955   4957     1  0.0000000  0.6508444  3
   4947   4946   4952   9016     1  0.0000000  1.0460000  1
   4947   4946   4952   9016     1  0.0000000  0.0000000  3
   4947   4946   4952   4953     1  0.0000000  0.6508444  3
   4947   4946   4952   4954     1  0.0000000  0.6508444  3
   4948   4946   4952   9016     1  0.0000000  1.0460000  1
   4948   4946   4952   9016     1  0.0000000  0.0000000  3
   4948   4946   4952   4953     1  0.0000000  0.6508444  3
   4948   4946   4952   4954     1  0.0000000  0.6508444  3
   4952   9016   9012   9015     1  0.0000000  1.6038667  3
   4953   4952   9016   9012     1  0.0000000  1.6038667  3
   4954   4952   9016   9012     1  0.0000000  1.6038667  3
   4955   9039   9035   9038     1  0.0000000  1.6038667  3
   4956   4955   9039   9035     1  0.0000000  1.6038667  3
   4957   4955   9039   9035     1  0.0000000  1.6038667  3
   4959   4960   4972   4973     1  0.0000000  0.6508444  3
   4959   4960   4972   4974     1  0.0000000  0.6508444  3
   4959   4963   4975   4976     1  0.0000000  0.6508444  3
   4959   4963   4975   4977     1  0.0000000  0.6508444  3
   4959   4966   4969   4970     1  0.0000000  0.6508444  3
   4959   4966   4969   4971     1  0.0000000  0.6508444  3
   4960   4959   4963   4964     1  0.0000000  1.2552000  3
   4960   4959   4963   4965     1  0.0000000  1.2552000  3
   4960   4959   4966   4967     1  0.0000000  1.2552000  3
   4960   4959   4966   4968     1  0.0000000  1.2552000  3
   4960   4972   4984   4985     1  0.0000000  0.6508444  3
   4960   4972   4984   4986     1  0.0000000  0.6508444  3
   4961   4960   4959   4963     1  0.0000000  1.2552000  3
   4961   4960   4959   4966     1  0.0000000  1.2552000  3
   4961   4960   4972   4984     1  0.0000000  0.6508444  3
   4961   4960   4972   4973     1  0.0000000  0.6508444  3
   4961   4960   4972   4974     1  0.0000000  0.6508444  3
   4962   4960   4959   4963     1  0.0000000  1.2552000  3
   4962   4960   4959   4966     1  0.0000000  1.2552000  3
   4962   4960   4972   4984     1  0.0000000  0.6508444  3
   4962   4960   4972   4973     1  0.0000000  0.6508444  3
   4962   4960   4972   4974     1  0.0000000  0.6508444  3
   4963   4959   4966   4967     1  0.0000000  1.2552000  3
   4963   4959   4966   4968     1  0.0000000  1.2552000  3
   4963   4975   4981   4982     1  0.0000000  0.6508444  3
   4963   4975   4981   4983     1  0.0000000  0.6508444  3
   4964   4963   4959   4966     1  0.0000000  1.2552000  3
   4964   4963   4975   4981     1  0.0000000  0.6508444  3
   4964   4963   4975   4976     1  0.0000000  0.6508444  3
   4964   4963   4975   4977     1  0.0000000  0.6508444  3
   4965   4963   4959   4966     1  0.0000000  1.2552000  3
   4965   4963   4975   4981     1  0.0000000  0.6508444  3
   4965   4963   4975   4976     1  0.0000000  0.6508444  3
   4965   4963   4975   4977     1  0.0000000  0.6508444  3
   4966   4969   4978   4979     1  0.0000000  0.6508444  3
   4966   4969   4978   4980     1  0.0000000  0.6508444  3
   4967   4966   4969   4978     1  0.0000000  0.6508444  3
   4967   4966   4969   4970     1  0.0000000  0.6508444  3
   4967   4966   4969   4971     1  0.0000000  0.6508444  3
   4968   4966   4969   4978     1  0.0000000  0.6508444  3
   4968   4966   4969   4970     1  0.0000000  0.6508444  3
   4968   4966   4969   4971     1  0.0000000  0.6508444  3
   4970   4969   4978   4987     1  0.0000000  1.0460000  1
   4970   4969   4978   4987     1  0.0000000  0.0000000  3
   4970   4969   4978   4979     1  0.0000000  0.6508444  3
   4970   4969   4978   4980     1  0.0000000  0.6508444  3
   4971   4969   4978   4987     1  0.0000000  1.0460000  1
   4971   4969   4978   4987     1  0.0000000  0.0000000  3
   4971   4969   4978   4979     1  0.0000000  0.6508444  3
   4971   4969   4978   4980     1  0.0000000  0.6508444  3
   4973   4972   4984   9085     1  0.0000000  1.0460000  1
   4973   4972   4984   9085     1  0.0000000  0.0000000  3
   4973   4972   4984   4985     1  0.0000000  0.6508444  3
   4973   4972   4984   4986     1  0.0000000  0.6508444  3
   4974   4972   4984   9085     1  0.0000000  1.0460000  1
   4974   4972   4984   9085     1  0.0000000  0.0000000  3
   4974   4972   4984   4985     1  0.0000000  0.6508444  3
   4974   4972   4984   4986     1  0.0000000  0.6508444  3
   4976   4975   4981   9062     1  0.0000000  1.0460000  1
   4976   4975   4981   9062     1  0.0000000  0.0000000  3
   4976   4975   4981   4982     1  0.0000000  0.6508444  3
   4976   4975   4981   4983     1  0.0000000  0.6508444  3
   4977   4975   4981   9062     1  0.0000000  1.0460000  1
   4977   4975   4981   9062     1  0.0000000  0.0000000  3
   4977   4975   4981   4982     1  0.0000000  0.6508444  3
   4977   4975   4981   4983     1  0.0000000  0.6508444  3
   4981   9062   9058   9061     1  0.0000000  1.6038667  3
   4982   4981   9062   9058     1  0.0000000  1.6038667  3
   4983   4981   9062   9058     1  0.0000000  1.6038667  3
   4984   9085   9081   9084     1  0.0000000  1.6038667  3
   4985   4984   9085   9081     1  0.0000000  1.6038667  3
   4986   4984   9085   9081     1  0.0000000  1.6038667  3
   4988   4989   5001   5002     1  0.0000000  0.6508444  3
   4988   4989   5001   5003     1  0.0000000  0.6508444  3
   4988   4992   5004   5005     1  0.0000000  0.6508444  3
   4988   4992   5004   5006     1  0.0000000  0.6508444  3
   4988   4995   4998   4999     1  0.0000000  0.6508444  3
   4988   4995   4998   5000     1  0.0000000  0.6508444  3
   4989   4988   4992   4993     1  0.0000000  1.2552000  3
   4989   4988   4992   4994     1  0.0000000  1.2552000  3
   4989   4988   4995   4996     1  0.0000000  1.2552000  3
   4989   4988   4995   4997     1  0.0000000  1.2552000  3
   4989   5001   5013   5014     1  0.0000000  0.6508444  3
   4989   5001   5013   5015     1  0.0000000  0.6508444  3
   4990   4989   4988   4992     1  0.0000000  1.2552000  3
   4990   4989   4988   4995     1  0.0000000  1.2552000  3
   4990   4989   5001   5013     1  0.0000000  0.6508444  3
   4990   4989   5001   5002     1  0.0000000  0.6508444  3
   4990   4989   5001   5003     1  0.0000000  0.6508444  3
   4991   4989   4988   4992     1  0.0000000  1.2552000  3
   4991   4989   4988   4995     1  0.0000000  1.2552000  3
   4991   4989   5001   5013     1  0.0000000  0.6508444  3
   4991   4989   5001   5002     1  0.0000000  0.6508444  3
   4991   4989   5001   5003     1  0.0000000  0.6508444  3
   4992   4988   4995   4996     1  0.0000000  1.2552000  3
   4992   4988   4995   4997     1  0.0000000  1.2552000  3
   4992   5004   5010   5011     1  0.0000000  0.6508444  3
   4992   5004   5010   5012     1  0.0000000  0.6508444  3
   4993   4992   4988   4995     1  0.0000000  1.2552000  3
   4993   4992   5004   5010     1  0.0000000  0.6508444  3
   4993   4992   5004   5005     1  0.0000000  0.6508444  3
   4993   4992   5004   5006     1  0.0000000  0.6508444  3
   4994   4992   4988   4995     1  0.0000000  1.2552000  3
   4994   4992   5004   5010     1  0.0000000  0.6508444  3
   4994   4992   5004   5005     1  0.0000000  0.6508444  3
   4994   4992   5004   5006     1  0.0000000  0.6508444  3
   4995   4998   5007   5008     1  0.0000000  0.6508444  3
   4995   4998   5007   5009     1  0.0000000  0.6508444  3
   4996   4995   4998   5007     1  0.0000000  0.6508444  3
   4996   4995   4998   4999     1  0.0000000  0.6508444  3
   4996   4995   4998   5000     1  0.0000000  0.6508444  3
   4997   4995   4998   5007     1  0.0000000  0.6508444  3
   4997   4995   4998   4999     1  0.0000000  0.6508444  3
   4997   4995   4998   5000     1  0.0000000  0.6508444  3
   4999   4998   5007   5016     1  0.0000000  1.0460000  1
   4999   4998   5007   5016     1  0.0000000  0.0000000  3
   4999   4998   5007   5008     1  0.0000000  0.6508444  3
   4999   4998   5007   5009     1  0.0000000  0.6508444  3
   5000   4998   5007   5016     1  0.0000000  1.0460000  1
   5000   4998   5007   5016     1  0.0000000  0.0000000  3
   5000   4998   5007   5008     1  0.0000000  0.6508444  3
   5000   4998   5007   5009     1  0.0000000  0.6508444  3
   5002   5001   5013   9131     1  0.0000000  1.0460000  1
   5002   5001   5013   9131     1  0.0000000  0.0000000  3
   5002   5001   5013   5014     1  0.0000000  0.6508444  3
   5002   5001   5013   5015     1  0.0000000  0.6508444  3
   5003   5001   5013   9131     1  0.0000000  1.0460000  1
   5003   5001   5013   9131     1  0.0000000  0.0000000  3
   5003   5001   5013   5014     1  0.0000000  0.6508444  3
   5003   5001   5013   5015     1  0.0000000  0.6508444  3
   5005   5004   5010   9108     1  0.0000000  1.0460000  1
   5005   5004   5010   9108     1  0.0000000  0.0000000  3
   5005   5004   5010   5011     1  0.0000000  0.6508444  3
   5005   5004   5010   5012     1  0.0000000  0.6508444  3
   5006   5004   5010   9108     1  0.0000000  1.0460000  1
   5006   5004   5010   9108     1  0.0000000  0.0000000  3
   5006   5004   5010   5011     1  0.0000000  0.6508444  3
   5006   5004   5010   5012     1  0.0000000  0.6508444  3
   5010   9108   9104   9107     1  0.0000000  1.6038667  3
   5011   5010   9108   9104     1  0.0000000  1.6038667  3
   5012   5010   9108   9104     1  0.0000000  1.6038667  3
   5013   9131   9127   9130     1  0.0000000  1.6038667  3
   5014   5013   9131   9127     1  0.0000000  1.6038667  3
   5015   5013   9131   9127     1  0.0000000  1.6038667  3
   5017   5018   5030   5031     1  0.0000000  0.6508444  3
   5017   5018   5030   5032     1  0.0000000  0.6508444  3
   5017   5021   5033   5034     1  0.0000000  0.6508444  3
   5017   5021   5033   5035     1  0.0000000  0.6508444  3
   5017   5024   5027   5028     1  0.0000000  0.6508444  3
   5017   5024   5027   5029     1  0.0000000  0.6508444  3
   5018   5017   5021   5022     1  0.0000000  1.2552000  3
   5018   5017   5021   5023     1  0.0000000  1.2552000  3
   5018   5017   5024   5025     1  0.0000000  1.2552000  3
   5018   5017   5024   5026     1  0.0000000  1.2552000  3
   5018   5030   5042   5043     1  0.0000000  0.6508444  3
   5018   5030   5042   5044     1  0.0000000  0.6508444  3
   5019   5018   5017   5021     1  0.0000000  1.2552000  3
   5019   5018   5017   5024     1  0.0000000  1.2552000  3
   5019   5018   5030   5042     1  0.0000000  0.6508444  3
   5019   5018   5030   5031     1  0.0000000  0.6508444  3
   5019   5018   5030   5032     1  0.0000000  0.6508444  3
   5020   5018   5017   5021     1  0.0000000  1.2552000  3
   5020   5018   5017   5024     1  0.0000000  1.2552000  3
   5020   5018   5030   5042     1  0.0000000  0.6508444  3
   5020   5018   5030   5031     1  0.0000000  0.6508444  3
   5020   5018   5030   5032     1  0.0000000  0.6508444  3
   5021   5017   5024   5025     1  0.0000000  1.2552000  3
   5021   5017   5024   5026     1  0.0000000  1.2552000  3
   5021   5033   5039   5040     1  0.0000000  0.6508444  3
   5021   5033   5039   5041     1  0.0000000  0.6508444  3
   5022   5021   5017   5024     1  0.0000000  1.2552000  3
   5022   5021   5033   5039     1  0.0000000  0.6508444  3
   5022   5021   5033   5034     1  0.0000000  0.6508444  3
   5022   5021   5033   5035     1  0.0000000  0.6508444  3
   5023   5021   5017   5024     1  0.0000000  1.2552000  3
   5023   5021   5033   5039     1  0.0000000  0.6508444  3
   5023   5021   5033   5034     1  0.0000000  0.6508444  3
   5023   5021   5033   5035     1  0.0000000  0.6508444  3
   5024   5027   5036   5037     1  0.0000000  0.6508444  3
   5024   5027   5036   5038     1  0.0000000  0.6508444  3
   5025   5024   5027   5036     1  0.0000000  0.6508444  3
   5025   5024   5027   5028     1  0.0000000  0.6508444  3
   5025   5024   5027   5029     1  0.0000000  0.6508444  3
   5026   5024   5027   5036     1  0.0000000  0.6508444  3
   5026   5024   5027   5028     1  0.0000000  0.6508444  3
   5026   5024   5027   5029     1  0.0000000  0.6508444  3
   5028   5027   5036   5045     1  0.0000000  1.0460000  1
   5028   5027   5036   5045     1  0.0000000  0.0000000  3
   5028   5027   5036   5037     1  0.0000000  0.6508444  3
   5028   5027   5036   5038     1  0.0000000  0.6508444  3
   5029   5027   5036   5045     1  0.0000000  1.0460000  1
   5029   5027   5036   5045     1  0.0000000  0.0000000  3
   5029   5027   5036   5037     1  0.0000000  0.6508444  3
   5029   5027   5036   5038     1  0.0000000  0.6508444  3
   5031   5030   5042   9177     1  0.0000000  1.0460000  1
   5031   5030   5042   9177     1  0.0000000  0.0000000  3
   5031   5030   5042   5043     1  0.0000000  0.6508444  3
   5031   5030   5042   5044     1  0.0000000  0.6508444  3
   5032   5030   5042   9177     1  0.0000000  1.0460000  1
   5032   5030   5042   9177     1  0.0000000  0.0000000  3
   5032   5030   5042   5043     1  0.0000000  0.6508444  3
   5032   5030   5042   5044     1  0.0000000  0.6508444  3
   5034   5033   5039   9154     1  0.0000000  1.0460000  1
   5034   5033   5039   9154     1  0.0000000  0.0000000  3
   5034   5033   5039   5040     1  0.0000000  0.6508444  3
   5034   5033   5039   5041     1  0.0000000  0.6508444  3
   5035   5033   5039   9154     1  0.0000000  1.0460000  1
   5035   5033   5039   9154     1  0.0000000  0.0000000  3
   5035   5033   5039   5040     1  0.0000000  0.6508444  3
   5035   5033   5039   5041     1  0.0000000  0.6508444  3
   5039   9154   9150   9153     1  0.0000000  1.6038667  3
   5040   5039   9154   9150     1  0.0000000  1.6038667  3
   5041   5039   9154   9150     1  0.0000000  1.6038667  3
   5042   9177   9173   9176     1  0.0000000  1.6038667  3
   5043   5042   9177   9173     1  0.0000000  1.6038667  3
   5044   5042   9177   9173     1  0.0000000  1.6038667  3
   5046   5047   5059   5060     1  0.0000000  0.6508444  3
   5046   5047   5059   5061     1  0.0000000  0.6508444  3
   5046   5050   5062   5063     1  0.0000000  0.6508444  3
   5046   5050   5062   5064     1  0.0000000  0.6508444  3
   5046   5053   5056   5057     1  0.0000000  0.6508444  3
   5046   5053   5056   5058     1  0.0000000  0.6508444  3
   5047   5046   5050   5051     1  0.0000000  1.2552000  3
   5047   5046   5050   5052     1  0.0000000  1.2552000  3
   5047   5046   5053   5054     1  0.0000000  1.2552000  3
   5047   5046   5053   5055     1  0.0000000  1.2552000  3
   5047   5059   5071   5072     1  0.0000000  0.6508444  3
   5047   5059   5071   5073     1  0.0000000  0.6508444  3
   5048   5047   5046   5050     1  0.0000000  1.2552000  3
   5048   5047   5046   5053     1  0.0000000  1.2552000  3
   5048   5047   5059   5071     1  0.0000000  0.6508444  3
   5048   5047   5059   5060     1  0.0000000  0.6508444  3
   5048   5047   5059   5061     1  0.0000000  0.6508444  3
   5049   5047   5046   5050     1  0.0000000  1.2552000  3
   5049   5047   5046   5053     1  0.0000000  1.2552000  3
   5049   5047   5059   5071     1  0.0000000  0.6508444  3
   5049   5047   5059   5060     1  0.0000000  0.6508444  3
   5049   5047   5059   5061     1  0.0000000  0.6508444  3
   5050   5046   5053   5054     1  0.0000000  1.2552000  3
   5050   5046   5053   5055     1  0.0000000  1.2552000  3
   5050   5062   5068   5069     1  0.0000000  0.6508444  3
   5050   5062   5068   5070     1  0.0000000  0.6508444  3
   5051   5050   5046   5053     1  0.0000000  1.2552000  3
   5051   5050   5062   5068     1  0.0000000  0.6508444  3
   5051   5050   5062   5063     1  0.0000000  0.6508444  3
   5051   5050   5062   5064     1  0.0000000  0.6508444  3
   5052   5050   5046   5053     1  0.0000000  1.2552000  3
   5052   5050   5062   5068     1  0.0000000  0.6508444  3
   5052   5050   5062   5063     1  0.0000000  0.6508444  3
   5052   5050   5062   5064     1  0.0000000  0.6508444  3
   5053   5056   5065   5066     1  0.0000000  0.6508444  3
   5053   5056   5065   5067     1  0.0000000  0.6508444  3
   5054   5053   5056   5065     1  0.0000000  0.6508444  3
   5054   5053   5056   5057     1  0.0000000  0.6508444  3
   5054   5053   5056   5058     1  0.0000000  0.6508444  3
   5055   5053   5056   5065     1  0.0000000  0.6508444  3
   5055   5053   5056   5057     1  0.0000000  0.6508444  3
   5055   5053   5056   5058     1  0.0000000  0.6508444  3
   5057   5056   5065   5074     1  0.0000000  1.0460000  1
   5057   5056   5065   5074     1  0.0000000  0.0000000  3
   5057   5056   5065   5066     1  0.0000000  0.6508444  3
   5057   5056   5065   5067     1  0.0000000  0.6508444  3
   5058   5056   5065   5074     1  0.0000000  1.0460000  1
   5058   5056   5065   5074     1  0.0000000  0.0000000  3
   5058   5056   5065   5066     1  0.0000000  0.6508444  3
   5058   5056   5065   5067     1  0.0000000  0.6508444  3
   5060   5059   5071   9223     1  0.0000000  1.0460000  1
   5060   5059   5071   9223     1  0.0000000  0.0000000  3
   5060   5059   5071   5072     1  0.0000000  0.6508444  3
   5060   5059   5071   5073     1  0.0000000  0.6508444  3
   5061   5059   5071   9223     1  0.0000000  1.0460000  1
   5061   5059   5071   9223     1  0.0000000  0.0000000  3
   5061   5059   5071   5072     1  0.0000000  0.6508444  3
   5061   5059   5071   5073     1  0.0000000  0.6508444  3
   5063   5062   5068   9200     1  0.0000000  1.0460000  1
   5063   5062   5068   9200     1  0.0000000  0.0000000  3
   5063   5062   5068   5069     1  0.0000000  0.6508444  3
   5063   5062   5068   5070     1  0.0000000  0.6508444  3
   5064   5062   5068   9200     1  0.0000000  1.0460000  1
   5064   5062   5068   9200     1  0.0000000  0.0000000  3
   5064   5062   5068   5069     1  0.0000000  0.6508444  3
   5064   5062   5068   5070     1  0.0000000  0.6508444  3
   5068   9200   9196   9199     1  0.0000000  1.6038667  3
   5069   5068   9200   9196     1  0.0000000  1.6038667  3
   5070   5068   9200   9196     1  0.0000000  1.6038667  3
   5071   9223   9219   9222     1  0.0000000  1.6038667  3
   5072   5071   9223   9219     1  0.0000000  1.6038667  3
   5073   5071   9223   9219     1  0.0000000  1.6038667  3
   5075   5076   5088   5089     1  0.0000000  0.6508444  3
   5075   5076   5088   5090     1  0.0000000  0.6508444  3
   5075   5079   5091   5092     1  0.0000000  0.6508444  3
   5075   5079   5091   5093     1  0.0000000  0.6508444  3
   5075   5082   5085   5086     1  0.0000000  0.6508444  3
   5075   5082   5085   5087     1  0.0000000  0.6508444  3
   5076   5075   5079   5080     1  0.0000000  1.2552000  3
   5076   5075   5079   5081     1  0.0000000  1.2552000  3
   5076   5075   5082   5083     1  0.0000000  1.2552000  3
   5076   5075   5082   5084     1  0.0000000  1.2552000  3
   5076   5088   5100   5101     1  0.0000000  0.6508444  3
   5076   5088   5100   5102     1  0.0000000  0.6508444  3
   5077   5076   5075   5079     1  0.0000000  1.2552000  3
   5077   5076   5075   5082     1  0.0000000  1.2552000  3
   5077   5076   5088   5100     1  0.0000000  0.6508444  3
   5077   5076   5088   5089     1  0.0000000  0.6508444  3
   5077   5076   5088   5090     1  0.0000000  0.6508444  3
   5078   5076   5075   5079     1  0.0000000  1.2552000  3
   5078   5076   5075   5082     1  0.0000000  1.2552000  3
   5078   5076   5088   5100     1  0.0000000  0.6508444  3
   5078   5076   5088   5089     1  0.0000000  0.6508444  3
   5078   5076   5088   5090     1  0.0000000  0.6508444  3
   5079   5075   5082   5083     1  0.0000000  1.2552000  3
   5079   5075   5082   5084     1  0.0000000  1.2552000  3
   5079   5091   5097   5098     1  0.0000000  0.6508444  3
   5079   5091   5097   5099     1  0.0000000  0.6508444  3
   5080   5079   5075   5082     1  0.0000000  1.2552000  3
   5080   5079   5091   5097     1  0.0000000  0.6508444  3
   5080   5079   5091   5092     1  0.0000000  0.6508444  3
   5080   5079   5091   5093     1  0.0000000  0.6508444  3
   5081   5079   5075   5082     1  0.0000000  1.2552000  3
   5081   5079   5091   5097     1  0.0000000  0.6508444  3
   5081   5079   5091   5092     1  0.0000000  0.6508444  3
   5081   5079   5091   5093     1  0.0000000  0.6508444  3
   5082   5085   5094   5095     1  0.0000000  0.6508444  3
   5082   5085   5094   5096     1  0.0000000  0.6508444  3
   5083   5082   5085   5094     1  0.0000000  0.6508444  3
   5083   5082   5085   5086     1  0.0000000  0.6508444  3
   5083   5082   5085   5087     1  0.0000000  0.6508444  3
   5084   5082   5085   5094     1  0.0000000  0.6508444  3
   5084   5082   5085   5086     1  0.0000000  0.6508444  3
   5084   5082   5085   5087     1  0.0000000  0.6508444  3
   5086   5085   5094   5103     1  0.0000000  1.0460000  1
   5086   5085   5094   5103     1  0.0000000  0.0000000  3
   5086   5085   5094   5095     1  0.0000000  0.6508444  3
   5086   5085   5094   5096     1  0.0000000  0.6508444  3
   5087   5085   5094   5103     1  0.0000000  1.0460000  1
   5087   5085   5094   5103     1  0.0000000  0.0000000  3
   5087   5085   5094   5095     1  0.0000000  0.6508444  3
   5087   5085   5094   5096     1  0.0000000  0.6508444  3
   5089   5088   5100   9269     1  0.0000000  1.0460000  1
   5089   5088   5100   9269     1  0.0000000  0.0000000  3
   5089   5088   5100   5101     1  0.0000000  0.6508444  3
   5089   5088   5100   5102     1  0.0000000  0.6508444  3
   5090   5088   5100   9269     1  0.0000000  1.0460000  1
   5090   5088   5100   9269     1  0.0000000  0.0000000  3
   5090   5088   5100   5101     1  0.0000000  0.6508444  3
   5090   5088   5100   5102     1  0.0000000  0.6508444  3
   5092   5091   5097   9246     1  0.0000000  1.0460000  1
   5092   5091   5097   9246     1  0.0000000  0.0000000  3
   5092   5091   5097   5098     1  0.0000000  0.6508444  3
   5092   5091   5097   5099     1  0.0000000  0.6508444  3
   5093   5091   5097   9246     1  0.0000000  1.0460000  1
   5093   5091   5097   9246     1  0.0000000  0.0000000  3
   5093   5091   5097   5098     1  0.0000000  0.6508444  3
   5093   5091   5097   5099     1  0.0000000  0.6508444  3
   5097   9246   9242   9245     1  0.0000000  1.6038667  3
   5098   5097   9246   9242     1  0.0000000  1.6038667  3
   5099   5097   9246   9242     1  0.0000000  1.6038667  3
   5100   9269   9265   9268     1  0.0000000  1.6038667  3
   5101   5100   9269   9265     1  0.0000000  1.6038667  3
   5102   5100   9269   9265     1  0.0000000  1.6038667  3
   5104   5105   5117   5118     1  0.0000000  0.6508444  3
   5104   5105   5117   5119     1  0.0000000  0.6508444  3
   5104   5108   5120   5121     1  0.0000000  0.6508444  3
   5104   5108   5120   5122     1  0.0000000  0.6508444  3
   5104   5111   5114   5115     1  0.0000000  0.6508444  3
   5104   5111   5114   5116     1  0.0000000  0.6508444  3
   5105   5104   5108   5109     1  0.0000000  1.2552000  3
   5105   5104   5108   5110     1  0.0000000  1.2552000  3
   5105   5104   5111   5112     1  0.0000000  1.2552000  3
   5105   5104   5111   5113     1  0.0000000  1.2552000  3
   5105   5117   5129   5130     1  0.0000000  0.6508444  3
   5105   5117   5129   5131     1  0.0000000  0.6508444  3
   5106   5105   5104   5108     1  0.0000000  1.2552000  3
   5106   5105   5104   5111     1  0.0000000  1.2552000  3
   5106   5105   5117   5129     1  0.0000000  0.6508444  3
   5106   5105   5117   5118     1  0.0000000  0.6508444  3
   5106   5105   5117   5119     1  0.0000000  0.6508444  3
   5107   5105   5104   5108     1  0.0000000  1.2552000  3
   5107   5105   5104   5111     1  0.0000000  1.2552000  3
   5107   5105   5117   5129     1  0.0000000  0.6508444  3
   5107   5105   5117   5118     1  0.0000000  0.6508444  3
   5107   5105   5117   5119     1  0.0000000  0.6508444  3
   5108   5104   5111   5112     1  0.0000000  1.2552000  3
   5108   5104   5111   5113     1  0.0000000  1.2552000  3
   5108   5120   5126   5127     1  0.0000000  0.6508444  3
   5108   5120   5126   5128     1  0.0000000  0.6508444  3
   5109   5108   5104   5111     1  0.0000000  1.2552000  3
   5109   5108   5120   5126     1  0.0000000  0.6508444  3
   5109   5108   5120   5121     1  0.0000000  0.6508444  3
   5109   5108   5120   5122     1  0.0000000  0.6508444  3
   5110   5108   5104   5111     1  0.0000000  1.2552000  3
   5110   5108   5120   5126     1  0.0000000  0.6508444  3
   5110   5108   5120   5121     1  0.0000000  0.6508444  3
   5110   5108   5120   5122     1  0.0000000  0.6508444  3
   5111   5114   5123   5124     1  0.0000000  0.6508444  3
   5111   5114   5123   5125     1  0.0000000  0.6508444  3
   5112   5111   5114   5123     1  0.0000000  0.6508444  3
   5112   5111   5114   5115     1  0.0000000  0.6508444  3
   5112   5111   5114   5116     1  0.0000000  0.6508444  3
   5113   5111   5114   5123     1  0.0000000  0.6508444  3
   5113   5111   5114   5115     1  0.0000000  0.6508444  3
   5113   5111   5114   5116     1  0.0000000  0.6508444  3
   5115   5114   5123   5132     1  0.0000000  1.0460000  1
   5115   5114   5123   5132     1  0.0000000  0.0000000  3
   5115   5114   5123   5124     1  0.0000000  0.6508444  3
   5115   5114   5123   5125     1  0.0000000  0.6508444  3
   5116   5114   5123   5132     1  0.0000000  1.0460000  1
   5116   5114   5123   5132     1  0.0000000  0.0000000  3
   5116   5114   5123   5124     1  0.0000000  0.6508444  3
   5116   5114   5123   5125     1  0.0000000  0.6508444  3
   5118   5117   5129   9315     1  0.0000000  1.0460000  1
   5118   5117   5129   9315     1  0.0000000  0.0000000  3
   5118   5117   5129   5130     1  0.0000000  0.6508444  3
   5118   5117   5129   5131     1  0.0000000  0.6508444  3
   5119   5117   5129   9315     1  0.0000000  1.0460000  1
   5119   5117   5129   9315     1  0.0000000  0.0000000  3
   5119   5117   5129   5130     1  0.0000000  0.6508444  3
   5119   5117   5129   5131     1  0.0000000  0.6508444  3
   5121   5120   5126   9292     1  0.0000000  1.0460000  1
   5121   5120   5126   9292     1  0.0000000  0.0000000  3
   5121   5120   5126   5127     1  0.0000000  0.6508444  3
   5121   5120   5126   5128     1  0.0000000  0.6508444  3
   5122   5120   5126   9292     1  0.0000000  1.0460000  1
   5122   5120   5126   9292     1  0.0000000  0.0000000  3
   5122   5120   5126   5127     1  0.0000000  0.6508444  3
   5122   5120   5126   5128     1  0.0000000  0.6508444  3
   5126   9292   9288   9291     1  0.0000000  1.6038667  3
   5127   5126   9292   9288     1  0.0000000  1.6038667  3
   5128   5126   9292   9288     1  0.0000000  1.6038667  3
   5129   9315   9311   9314     1  0.0000000  1.6038667  3
   5130   5129   9315   9311     1  0.0000000  1.6038667  3
   5131   5129   9315   9311     1  0.0000000  1.6038667  3
   5133   5134   5146   5147     1  0.0000000  0.6508444  3
   5133   5134   5146   5148     1  0.0000000  0.6508444  3
   5133   5137   5149   5150     1  0.0000000  0.6508444  3
   5133   5137   5149   5151     1  0.0000000  0.6508444  3
   5133   5140   5143   5144     1  0.0000000  0.6508444  3
   5133   5140   5143   5145     1  0.0000000  0.6508444  3
   5134   5133   5137   5138     1  0.0000000  1.2552000  3
   5134   5133   5137   5139     1  0.0000000  1.2552000  3
   5134   5133   5140   5141     1  0.0000000  1.2552000  3
   5134   5133   5140   5142     1  0.0000000  1.2552000  3
   5134   5146   5158   5159     1  0.0000000  0.6508444  3
   5134   5146   5158   5160     1  0.0000000  0.6508444  3
   5135   5134   5133   5137     1  0.0000000  1.2552000  3
   5135   5134   5133   5140     1  0.0000000  1.2552000  3
   5135   5134   5146   5158     1  0.0000000  0.6508444  3
   5135   5134   5146   5147     1  0.0000000  0.6508444  3
   5135   5134   5146   5148     1  0.0000000  0.6508444  3
   5136   5134   5133   5137     1  0.0000000  1.2552000  3
   5136   5134   5133   5140     1  0.0000000  1.2552000  3
   5136   5134   5146   5158     1  0.0000000  0.6508444  3
   5136   5134   5146   5147     1  0.0000000  0.6508444  3
   5136   5134   5146   5148     1  0.0000000  0.6508444  3
   5137   5133   5140   5141     1  0.0000000  1.2552000  3
   5137   5133   5140   5142     1  0.0000000  1.2552000  3
   5137   5149   5155   5156     1  0.0000000  0.6508444  3
   5137   5149   5155   5157     1  0.0000000  0.6508444  3
   5138   5137   5133   5140     1  0.0000000  1.2552000  3
   5138   5137   5149   5155     1  0.0000000  0.6508444  3
   5138   5137   5149   5150     1  0.0000000  0.6508444  3
   5138   5137   5149   5151     1  0.0000000  0.6508444  3
   5139   5137   5133   5140     1  0.0000000  1.2552000  3
   5139   5137   5149   5155     1  0.0000000  0.6508444  3
   5139   5137   5149   5150     1  0.0000000  0.6508444  3
   5139   5137   5149   5151     1  0.0000000  0.6508444  3
   5140   5143   5152   5153     1  0.0000000  0.6508444  3
   5140   5143   5152   5154     1  0.0000000  0.6508444  3
   5141   5140   5143   5152     1  0.0000000  0.6508444  3
   5141   5140   5143   5144     1  0.0000000  0.6508444  3
   5141   5140   5143   5145     1  0.0000000  0.6508444  3
   5142   5140   5143   5152     1  0.0000000  0.6508444  3
   5142   5140   5143   5144     1  0.0000000  0.6508444  3
   5142   5140   5143   5145     1  0.0000000  0.6508444  3
   5144   5143   5152   5161     1  0.0000000  1.0460000  1
   5144   5143   5152   5161     1  0.0000000  0.0000000  3
   5144   5143   5152   5153     1  0.0000000  0.6508444  3
   5144   5143   5152   5154     1  0.0000000  0.6508444  3
   5145   5143   5152   5161     1  0.0000000  1.0460000  1
   5145   5143   5152   5161     1  0.0000000  0.0000000  3
   5145   5143   5152   5153     1  0.0000000  0.6508444  3
   5145   5143   5152   5154     1  0.0000000  0.6508444  3
   5147   5146   5158   9361     1  0.0000000  1.0460000  1
   5147   5146   5158   9361     1  0.0000000  0.0000000  3
   5147   5146   5158   5159     1  0.0000000  0.6508444  3
   5147   5146   5158   5160     1  0.0000000  0.6508444  3
   5148   5146   5158   9361     1  0.0000000  1.0460000  1
   5148   5146   5158   9361     1  0.0000000  0.0000000  3
   5148   5146   5158   5159     1  0.0000000  0.6508444  3
   5148   5146   5158   5160     1  0.0000000  0.6508444  3
   5150   5149   5155   9338     1  0.0000000  1.0460000  1
   5150   5149   5155   9338     1  0.0000000  0.0000000  3
   5150   5149   5155   5156     1  0.0000000  0.6508444  3
   5150   5149   5155   5157     1  0.0000000  0.6508444  3
   5151   5149   5155   9338     1  0.0000000  1.0460000  1
   5151   5149   5155   9338     1  0.0000000  0.0000000  3
   5151   5149   5155   5156     1  0.0000000  0.6508444  3
   5151   5149   5155   5157     1  0.0000000  0.6508444  3
   5155   9338   9334   9337     1  0.0000000  1.6038667  3
   5156   5155   9338   9334     1  0.0000000  1.6038667  3
   5157   5155   9338   9334     1  0.0000000  1.6038667  3
   5158   9361   9357   9360     1  0.0000000  1.6038667  3
   5159   5158   9361   9357     1  0.0000000  1.6038667  3
   5160   5158   9361   9357     1  0.0000000  1.6038667  3
   5162   5163   5175   5176     1  0.0000000  0.6508444  3
   5162   5163   5175   5177     1  0.0000000  0.6508444  3
   5162   5166   5178   5179     1  0.0000000  0.6508444  3
   5162   5166   5178   5180     1  0.0000000  0.6508444  3
   5162   5169   5172   5173     1  0.0000000  0.6508444  3
   5162   5169   5172   5174     1  0.0000000  0.6508444  3
   5163   5162   5166   5167     1  0.0000000  1.2552000  3
   5163   5162   5166   5168     1  0.0000000  1.2552000  3
   5163   5162   5169   5170     1  0.0000000  1.2552000  3
   5163   5162   5169   5171     1  0.0000000  1.2552000  3
   5163   5175   5187   5188     1  0.0000000  0.6508444  3
   5163   5175   5187   5189     1  0.0000000  0.6508444  3
   5164   5163   5162   5166     1  0.0000000  1.2552000  3
   5164   5163   5162   5169     1  0.0000000  1.2552000  3
   5164   5163   5175   5187     1  0.0000000  0.6508444  3
   5164   5163   5175   5176     1  0.0000000  0.6508444  3
   5164   5163   5175   5177     1  0.0000000  0.6508444  3
   5165   5163   5162   5166     1  0.0000000  1.2552000  3
   5165   5163   5162   5169     1  0.0000000  1.2552000  3
   5165   5163   5175   5187     1  0.0000000  0.6508444  3
   5165   5163   5175   5176     1  0.0000000  0.6508444  3
   5165   5163   5175   5177     1  0.0000000  0.6508444  3
   5166   5162   5169   5170     1  0.0000000  1.2552000  3
   5166   5162   5169   5171     1  0.0000000  1.2552000  3
   5166   5178   5184   5185     1  0.0000000  0.6508444  3
   5166   5178   5184   5186     1  0.0000000  0.6508444  3
   5167   5166   5162   5169     1  0.0000000  1.2552000  3
   5167   5166   5178   5184     1  0.0000000  0.6508444  3
   5167   5166   5178   5179     1  0.0000000  0.6508444  3
   5167   5166   5178   5180     1  0.0000000  0.6508444  3
   5168   5166   5162   5169     1  0.0000000  1.2552000  3
   5168   5166   5178   5184     1  0.0000000  0.6508444  3
   5168   5166   5178   5179     1  0.0000000  0.6508444  3
   5168   5166   5178   5180     1  0.0000000  0.6508444  3
   5169   5172   5181   5182     1  0.0000000  0.6508444  3
   5169   5172   5181   5183     1  0.0000000  0.6508444  3
   5170   5169   5172   5181     1  0.0000000  0.6508444  3
   5170   5169   5172   5173     1  0.0000000  0.6508444  3
   5170   5169   5172   5174     1  0.0000000  0.6508444  3
   5171   5169   5172   5181     1  0.0000000  0.6508444  3
   5171   5169   5172   5173     1  0.0000000  0.6508444  3
   5171   5169   5172   5174     1  0.0000000  0.6508444  3
   5173   5172   5181   5190     1  0.0000000  1.0460000  1
   5173   5172   5181   5190     1  0.0000000  0.0000000  3
   5173   5172   5181   5182     1  0.0000000  0.6508444  3
   5173   5172   5181   5183     1  0.0000000  0.6508444  3
   5174   5172   5181   5190     1  0.0000000  1.0460000  1
   5174   5172   5181   5190     1  0.0000000  0.0000000  3
   5174   5172   5181   5182     1  0.0000000  0.6508444  3
   5174   5172   5181   5183     1  0.0000000  0.6508444  3
   5176   5175   5187   9407     1  0.0000000  1.0460000  1
   5176   5175   5187   9407     1  0.0000000  0.0000000  3
   5176   5175   5187   5188     1  0.0000000  0.6508444  3
   5176   5175   5187   5189     1  0.0000000  0.6508444  3
   5177   5175   5187   9407     1  0.0000000  1.0460000  1
   5177   5175   5187   9407     1  0.0000000  0.0000000  3
   5177   5175   5187   5188     1  0.0000000  0.6508444  3
   5177   5175   5187   5189     1  0.0000000  0.6508444  3
   5179   5178   5184   9384     1  0.0000000  1.0460000  1
   5179   5178   5184   9384     1  0.0000000  0.0000000  3
   5179   5178   5184   5185     1  0.0000000  0.6508444  3
   5179   5178   5184   5186     1  0.0000000  0.6508444  3
   5180   5178   5184   9384     1  0.0000000  1.0460000  1
   5180   5178   5184   9384     1  0.0000000  0.0000000  3
   5180   5178   5184   5185     1  0.0000000  0.6508444  3
   5180   5178   5184   5186     1  0.0000000  0.6508444  3
   5184   9384   9380   9383     1  0.0000000  1.6038667  3
   5185   5184   9384   9380     1  0.0000000  1.6038667  3
   5186   5184   9384   9380     1  0.0000000  1.6038667  3
   5187   9407   9403   9406     1  0.0000000  1.6038667  3
   5188   5187   9407   9403     1  0.0000000  1.6038667  3
   5189   5187   9407   9403     1  0.0000000  1.6038667  3
   5191   5192   5204   5205     1  0.0000000  0.6508444  3
   5191   5192   5204   5206     1  0.0000000  0.6508444  3
   5191   5195   5207   5208     1  0.0000000  0.6508444  3
   5191   5195   5207   5209     1  0.0000000  0.6508444  3
   5191   5198   5201   5202     1  0.0000000  0.6508444  3
   5191   5198   5201   5203     1  0.0000000  0.6508444  3
   5192   5191   5195   5196     1  0.0000000  1.2552000  3
   5192   5191   5195   5197     1  0.0000000  1.2552000  3
   5192   5191   5198   5199     1  0.0000000  1.2552000  3
   5192   5191   5198   5200     1  0.0000000  1.2552000  3
   5192   5204   5216   5217     1  0.0000000  0.6508444  3
   5192   5204   5216   5218     1  0.0000000  0.6508444  3
   5193   5192   5191   5195     1  0.0000000  1.2552000  3
   5193   5192   5191   5198     1  0.0000000  1.2552000  3
   5193   5192   5204   5216     1  0.0000000  0.6508444  3
   5193   5192   5204   5205     1  0.0000000  0.6508444  3
   5193   5192   5204   5206     1  0.0000000  0.6508444  3
   5194   5192   5191   5195     1  0.0000000  1.2552000  3
   5194   5192   5191   5198     1  0.0000000  1.2552000  3
   5194   5192   5204   5216     1  0.0000000  0.6508444  3
   5194   5192   5204   5205     1  0.0000000  0.6508444  3
   5194   5192   5204   5206     1  0.0000000  0.6508444  3
   5195   5191   5198   5199     1  0.0000000  1.2552000  3
   5195   5191   5198   5200     1  0.0000000  1.2552000  3
   5195   5207   5213   5214     1  0.0000000  0.6508444  3
   5195   5207   5213   5215     1  0.0000000  0.6508444  3
   5196   5195   5191   5198     1  0.0000000  1.2552000  3
   5196   5195   5207   5213     1  0.0000000  0.6508444  3
   5196   5195   5207   5208     1  0.0000000  0.6508444  3
   5196   5195   5207   5209     1  0.0000000  0.6508444  3
   5197   5195   5191   5198     1  0.0000000  1.2552000  3
   5197   5195   5207   5213     1  0.0000000  0.6508444  3
   5197   5195   5207   5208     1  0.0000000  0.6508444  3
   5197   5195   5207   5209     1  0.0000000  0.6508444  3
   5198   5201   5210   5211     1  0.0000000  0.6508444  3
   5198   5201   5210   5212     1  0.0000000  0.6508444  3
   5199   5198   5201   5210     1  0.0000000  0.6508444  3
   5199   5198   5201   5202     1  0.0000000  0.6508444  3
   5199   5198   5201   5203     1  0.0000000  0.6508444  3
   5200   5198   5201   5210     1  0.0000000  0.6508444  3
   5200   5198   5201   5202     1  0.0000000  0.6508444  3
   5200   5198   5201   5203     1  0.0000000  0.6508444  3
   5202   5201   5210   5219     1  0.0000000  1.0460000  1
   5202   5201   5210   5219     1  0.0000000  0.0000000  3
   5202   5201   5210   5211     1  0.0000000  0.6508444  3
   5202   5201   5210   5212     1  0.0000000  0.6508444  3
   5203   5201   5210   5219     1  0.0000000  1.0460000  1
   5203   5201   5210   5219     1  0.0000000  0.0000000  3
   5203   5201   5210   5211     1  0.0000000  0.6508444  3
   5203   5201   5210   5212     1  0.0000000  0.6508444  3
   5205   5204   5216   9453     1  0.0000000  1.0460000  1
   5205   5204   5216   9453     1  0.0000000  0.0000000  3
   5205   5204   5216   5217     1  0.0000000  0.6508444  3
   5205   5204   5216   5218     1  0.0000000  0.6508444  3
   5206   5204   5216   9453     1  0.0000000  1.0460000  1
   5206   5204   5216   9453     1  0.0000000  0.0000000  3
   5206   5204   5216   5217     1  0.0000000  0.6508444  3
   5206   5204   5216   5218     1  0.0000000  0.6508444  3
   5208   5207   5213   9430     1  0.0000000  1.0460000  1
   5208   5207   5213   9430     1  0.0000000  0.0000000  3
   5208   5207   5213   5214     1  0.0000000  0.6508444  3
   5208   5207   5213   5215     1  0.0000000  0.6508444  3
   5209   5207   5213   9430     1  0.0000000  1.0460000  1
   5209   5207   5213   9430     1  0.0000000  0.0000000  3
   5209   5207   5213   5214     1  0.0000000  0.6508444  3
   5209   5207   5213   5215     1  0.0000000  0.6508444  3
   5213   9430   9426   9429     1  0.0000000  1.6038667  3
   5214   5213   9430   9426     1  0.0000000  1.6038667  3
   5215   5213   9430   9426     1  0.0000000  1.6038667  3
   5216   9453   9449   9452     1  0.0000000  1.6038667  3
   5217   5216   9453   9449     1  0.0000000  1.6038667  3
   5218   5216   9453   9449     1  0.0000000  1.6038667  3
   5220   5221   5233   5234     1  0.0000000  0.6508444  3
   5220   5221   5233   5235     1  0.0000000  0.6508444  3
   5220   5224   5236   5237     1  0.0000000  0.6508444  3
   5220   5224   5236   5238     1  0.0000000  0.6508444  3
   5220   5227   5230   5231     1  0.0000000  0.6508444  3
   5220   5227   5230   5232     1  0.0000000  0.6508444  3
   5221   5220   5224   5225     1  0.0000000  1.2552000  3
   5221   5220   5224   5226     1  0.0000000  1.2552000  3
   5221   5220   5227   5228     1  0.0000000  1.2552000  3
   5221   5220   5227   5229     1  0.0000000  1.2552000  3
   5221   5233   5245   5246     1  0.0000000  0.6508444  3
   5221   5233   5245   5247     1  0.0000000  0.6508444  3
   5222   5221   5220   5224     1  0.0000000  1.2552000  3
   5222   5221   5220   5227     1  0.0000000  1.2552000  3
   5222   5221   5233   5245     1  0.0000000  0.6508444  3
   5222   5221   5233   5234     1  0.0000000  0.6508444  3
   5222   5221   5233   5235     1  0.0000000  0.6508444  3
   5223   5221   5220   5224     1  0.0000000  1.2552000  3
   5223   5221   5220   5227     1  0.0000000  1.2552000  3
   5223   5221   5233   5245     1  0.0000000  0.6508444  3
   5223   5221   5233   5234     1  0.0000000  0.6508444  3
   5223   5221   5233   5235     1  0.0000000  0.6508444  3
   5224   5220   5227   5228     1  0.0000000  1.2552000  3
   5224   5220   5227   5229     1  0.0000000  1.2552000  3
   5224   5236   5242   5243     1  0.0000000  0.6508444  3
   5224   5236   5242   5244     1  0.0000000  0.6508444  3
   5225   5224   5220   5227     1  0.0000000  1.2552000  3
   5225   5224   5236   5242     1  0.0000000  0.6508444  3
   5225   5224   5236   5237     1  0.0000000  0.6508444  3
   5225   5224   5236   5238     1  0.0000000  0.6508444  3
   5226   5224   5220   5227     1  0.0000000  1.2552000  3
   5226   5224   5236   5242     1  0.0000000  0.6508444  3
   5226   5224   5236   5237     1  0.0000000  0.6508444  3
   5226   5224   5236   5238     1  0.0000000  0.6508444  3
   5227   5230   5239   5240     1  0.0000000  0.6508444  3
   5227   5230   5239   5241     1  0.0000000  0.6508444  3
   5228   5227   5230   5239     1  0.0000000  0.6508444  3
   5228   5227   5230   5231     1  0.0000000  0.6508444  3
   5228   5227   5230   5232     1  0.0000000  0.6508444  3
   5229   5227   5230   5239     1  0.0000000  0.6508444  3
   5229   5227   5230   5231     1  0.0000000  0.6508444  3
   5229   5227   5230   5232     1  0.0000000  0.6508444  3
   5231   5230   5239   5248     1  0.0000000  1.0460000  1
   5231   5230   5239   5248     1  0.0000000  0.0000000  3
   5231   5230   5239   5240     1  0.0000000  0.6508444  3
   5231   5230   5239   5241     1  0.0000000  0.6508444  3
   5232   5230   5239   5248     1  0.0000000  1.0460000  1
   5232   5230   5239   5248     1  0.0000000  0.0000000  3
   5232   5230   5239   5240     1  0.0000000  0.6508444  3
   5232   5230   5239   5241     1  0.0000000  0.6508444  3
   5234   5233   5245   9499     1  0.0000000  1.0460000  1
   5234   5233   5245   9499     1  0.0000000  0.0000000  3
   5234   5233   5245   5246     1  0.0000000  0.6508444  3
   5234   5233   5245   5247     1  0.0000000  0.6508444  3
   5235   5233   5245   9499     1  0.0000000  1.0460000  1
   5235   5233   5245   9499     1  0.0000000  0.0000000  3
   5235   5233   5245   5246     1  0.0000000  0.6508444  3
   5235   5233   5245   5247     1  0.0000000  0.6508444  3
   5237   5236   5242   9476     1  0.0000000  1.0460000  1
   5237   5236   5242   9476     1  0.0000000  0.0000000  3
   5237   5236   5242   5243     1  0.0000000  0.6508444  3
   5237   5236   5242   5244     1  0.0000000  0.6508444  3
   5238   5236   5242   9476     1  0.0000000  1.0460000  1
   5238   5236   5242   9476     1  0.0000000  0.0000000  3
   5238   5236   5242   5243     1  0.0000000  0.6508444  3
   5238   5236   5242   5244     1  0.0000000  0.6508444  3
   5242   9476   9472   9475     1  0.0000000  1.6038667  3
   5243   5242   9476   9472     1  0.0000000  1.6038667  3
   5244   5242   9476   9472     1  0.0000000  1.6038667  3
   5245   9499   9495   9498     1  0.0000000  1.6038667  3
   5246   5245   9499   9495     1  0.0000000  1.6038667  3
   5247   5245   9499   9495     1  0.0000000  1.6038667  3
   5249   5250   5262   5263     1  0.0000000  0.6508444  3
   5249   5250   5262   5264     1  0.0000000  0.6508444  3
   5249   5253   5265   5266     1  0.0000000  0.6508444  3
   5249   5253   5265   5267     1  0.0000000  0.6508444  3
   5249   5256   5259   5260     1  0.0000000  0.6508444  3
   5249   5256   5259   5261     1  0.0000000  0.6508444  3
   5250   5249   5253   5254     1  0.0000000  1.2552000  3
   5250   5249   5253   5255     1  0.0000000  1.2552000  3
   5250   5249   5256   5257     1  0.0000000  1.2552000  3
   5250   5249   5256   5258     1  0.0000000  1.2552000  3
   5250   5262   5274   5275     1  0.0000000  0.6508444  3
   5250   5262   5274   5276     1  0.0000000  0.6508444  3
   5251   5250   5249   5253     1  0.0000000  1.2552000  3
   5251   5250   5249   5256     1  0.0000000  1.2552000  3
   5251   5250   5262   5274     1  0.0000000  0.6508444  3
   5251   5250   5262   5263     1  0.0000000  0.6508444  3
   5251   5250   5262   5264     1  0.0000000  0.6508444  3
   5252   5250   5249   5253     1  0.0000000  1.2552000  3
   5252   5250   5249   5256     1  0.0000000  1.2552000  3
   5252   5250   5262   5274     1  0.0000000  0.6508444  3
   5252   5250   5262   5263     1  0.0000000  0.6508444  3
   5252   5250   5262   5264     1  0.0000000  0.6508444  3
   5253   5249   5256   5257     1  0.0000000  1.2552000  3
   5253   5249   5256   5258     1  0.0000000  1.2552000  3
   5253   5265   5271   5272     1  0.0000000  0.6508444  3
   5253   5265   5271   5273     1  0.0000000  0.6508444  3
   5254   5253   5249   5256     1  0.0000000  1.2552000  3
   5254   5253   5265   5271     1  0.0000000  0.6508444  3
   5254   5253   5265   5266     1  0.0000000  0.6508444  3
   5254   5253   5265   5267     1  0.0000000  0.6508444  3
   5255   5253   5249   5256     1  0.0000000  1.2552000  3
   5255   5253   5265   5271     1  0.0000000  0.6508444  3
   5255   5253   5265   5266     1  0.0000000  0.6508444  3
   5255   5253   5265   5267     1  0.0000000  0.6508444  3
   5256   5259   5268   5269     1  0.0000000  0.6508444  3
   5256   5259   5268   5270     1  0.0000000  0.6508444  3
   5257   5256   5259   5268     1  0.0000000  0.6508444  3
   5257   5256   5259   5260     1  0.0000000  0.6508444  3
   5257   5256   5259   5261     1  0.0000000  0.6508444  3
   5258   5256   5259   5268     1  0.0000000  0.6508444  3
   5258   5256   5259   5260     1  0.0000000  0.6508444  3
   5258   5256   5259   5261     1  0.0000000  0.6508444  3
   5260   5259   5268   5277     1  0.0000000  1.0460000  1
   5260   5259   5268   5277     1  0.0000000  0.0000000  3
   5260   5259   5268   5269     1  0.0000000  0.6508444  3
   5260   5259   5268   5270     1  0.0000000  0.6508444  3
   5261   5259   5268   5277     1  0.0000000  1.0460000  1
   5261   5259   5268   5277     1  0.0000000  0.0000000  3
   5261   5259   5268   5269     1  0.0000000  0.6508444  3
   5261   5259   5268   5270     1  0.0000000  0.6508444  3
   5263   5262   5274   9545     1  0.0000000  1.0460000  1
   5263   5262   5274   9545     1  0.0000000  0.0000000  3
   5263   5262   5274   5275     1  0.0000000  0.6508444  3
   5263   5262   5274   5276     1  0.0000000  0.6508444  3
   5264   5262   5274   9545     1  0.0000000  1.0460000  1
   5264   5262   5274   9545     1  0.0000000  0.0000000  3
   5264   5262   5274   5275     1  0.0000000  0.6508444  3
   5264   5262   5274   5276     1  0.0000000  0.6508444  3
   5266   5265   5271   9522     1  0.0000000  1.0460000  1
   5266   5265   5271   9522     1  0.0000000  0.0000000  3
   5266   5265   5271   5272     1  0.0000000  0.6508444  3
   5266   5265   5271   5273     1  0.0000000  0.6508444  3
   5267   5265   5271   9522     1  0.0000000  1.0460000  1
   5267   5265   5271   9522     1  0.0000000  0.0000000  3
   5267   5265   5271   5272     1  0.0000000  0.6508444  3
   5267   5265   5271   5273     1  0.0000000  0.6508444  3
   5271   9522   9518   9521     1  0.0000000  1.6038667  3
   5272   5271   9522   9518     1  0.0000000  1.6038667  3
   5273   5271   9522   9518     1  0.0000000  1.6038667  3
   5274   9545   9541   9544     1  0.0000000  1.6038667  3
   5275   5274   9545   9541     1  0.0000000  1.6038667  3
   5276   5274   9545   9541     1  0.0000000  1.6038667  3
   5278   5279   5291   5292     1  0.0000000  0.6508444  3
   5278   5279   5291   5293     1  0.0000000  0.6508444  3
   5278   5282   5294   5295     1  0.0000000  0.6508444  3
   5278   5282   5294   5296     1  0.0000000  0.6508444  3
   5278   5285   5288   5289     1  0.0000000  0.6508444  3
   5278   5285   5288   5290     1  0.0000000  0.6508444  3
   5279   5278   5282   5283     1  0.0000000  1.2552000  3
   5279   5278   5282   5284     1  0.0000000  1.2552000  3
   5279   5278   5285   5286     1  0.0000000  1.2552000  3
   5279   5278   5285   5287     1  0.0000000  1.2552000  3
   5279   5291   5303   5304     1  0.0000000  0.6508444  3
   5279   5291   5303   5305     1  0.0000000  0.6508444  3
   5280   5279   5278   5282     1  0.0000000  1.2552000  3
   5280   5279   5278   5285     1  0.0000000  1.2552000  3
   5280   5279   5291   5303     1  0.0000000  0.6508444  3
   5280   5279   5291   5292     1  0.0000000  0.6508444  3
   5280   5279   5291   5293     1  0.0000000  0.6508444  3
   5281   5279   5278   5282     1  0.0000000  1.2552000  3
   5281   5279   5278   5285     1  0.0000000  1.2552000  3
   5281   5279   5291   5303     1  0.0000000  0.6508444  3
   5281   5279   5291   5292     1  0.0000000  0.6508444  3
   5281   5279   5291   5293     1  0.0000000  0.6508444  3
   5282   5278   5285   5286     1  0.0000000  1.2552000  3
   5282   5278   5285   5287     1  0.0000000  1.2552000  3
   5282   5294   5300   5301     1  0.0000000  0.6508444  3
   5282   5294   5300   5302     1  0.0000000  0.6508444  3
   5283   5282   5278   5285     1  0.0000000  1.2552000  3
   5283   5282   5294   5300     1  0.0000000  0.6508444  3
   5283   5282   5294   5295     1  0.0000000  0.6508444  3
   5283   5282   5294   5296     1  0.0000000  0.6508444  3
   5284   5282   5278   5285     1  0.0000000  1.2552000  3
   5284   5282   5294   5300     1  0.0000000  0.6508444  3
   5284   5282   5294   5295     1  0.0000000  0.6508444  3
   5284   5282   5294   5296     1  0.0000000  0.6508444  3
   5285   5288   5297   5298     1  0.0000000  0.6508444  3
   5285   5288   5297   5299     1  0.0000000  0.6508444  3
   5286   5285   5288   5297     1  0.0000000  0.6508444  3
   5286   5285   5288   5289     1  0.0000000  0.6508444  3
   5286   5285   5288   5290     1  0.0000000  0.6508444  3
   5287   5285   5288   5297     1  0.0000000  0.6508444  3
   5287   5285   5288   5289     1  0.0000000  0.6508444  3
   5287   5285   5288   5290     1  0.0000000  0.6508444  3
   5289   5288   5297   5306     1  0.0000000  1.0460000  1
   5289   5288   5297   5306     1  0.0000000  0.0000000  3
   5289   5288   5297   5298     1  0.0000000  0.6508444  3
   5289   5288   5297   5299     1  0.0000000  0.6508444  3
   5290   5288   5297   5306     1  0.0000000  1.0460000  1
   5290   5288   5297   5306     1  0.0000000  0.0000000  3
   5290   5288   5297   5298     1  0.0000000  0.6508444  3
   5290   5288   5297   5299     1  0.0000000  0.6508444  3
   5292   5291   5303   9591     1  0.0000000  1.0460000  1
   5292   5291   5303   9591     1  0.0000000  0.0000000  3
   5292   5291   5303   5304     1  0.0000000  0.6508444  3
   5292   5291   5303   5305     1  0.0000000  0.6508444  3
   5293   5291   5303   9591     1  0.0000000  1.0460000  1
   5293   5291   5303   9591     1  0.0000000  0.0000000  3
   5293   5291   5303   5304     1  0.0000000  0.6508444  3
   5293   5291   5303   5305     1  0.0000000  0.6508444  3
   5295   5294   5300   9568     1  0.0000000  1.0460000  1
   5295   5294   5300   9568     1  0.0000000  0.0000000  3
   5295   5294   5300   5301     1  0.0000000  0.6508444  3
   5295   5294   5300   5302     1  0.0000000  0.6508444  3
   5296   5294   5300   9568     1  0.0000000  1.0460000  1
   5296   5294   5300   9568     1  0.0000000  0.0000000  3
   5296   5294   5300   5301     1  0.0000000  0.6508444  3
   5296   5294   5300   5302     1  0.0000000  0.6508444  3
   5300   9568   9564   9567     1  0.0000000  1.6038667  3
   5301   5300   9568   9564     1  0.0000000  1.6038667  3
   5302   5300   9568   9564     1  0.0000000  1.6038667  3
   5303   9591   9587   9590     1  0.0000000  1.6038667  3
   5304   5303   9591   9587     1  0.0000000  1.6038667  3
   5305   5303   9591   9587     1  0.0000000  1.6038667  3
   5307   5308   5320   5321     1  0.0000000  0.6508444  3
   5307   5308   5320   5322     1  0.0000000  0.6508444  3
   5307   5311   5323   5324     1  0.0000000  0.6508444  3
   5307   5311   5323   5325     1  0.0000000  0.6508444  3
   5307   5314   5317   5318     1  0.0000000  0.6508444  3
   5307   5314   5317   5319     1  0.0000000  0.6508444  3
   5308   5307   5311   5312     1  0.0000000  1.2552000  3
   5308   5307   5311   5313     1  0.0000000  1.2552000  3
   5308   5307   5314   5315     1  0.0000000  1.2552000  3
   5308   5307   5314   5316     1  0.0000000  1.2552000  3
   5308   5320   5332   5333     1  0.0000000  0.6508444  3
   5308   5320   5332   5334     1  0.0000000  0.6508444  3
   5309   5308   5307   5311     1  0.0000000  1.2552000  3
   5309   5308   5307   5314     1  0.0000000  1.2552000  3
   5309   5308   5320   5332     1  0.0000000  0.6508444  3
   5309   5308   5320   5321     1  0.0000000  0.6508444  3
   5309   5308   5320   5322     1  0.0000000  0.6508444  3
   5310   5308   5307   5311     1  0.0000000  1.2552000  3
   5310   5308   5307   5314     1  0.0000000  1.2552000  3
   5310   5308   5320   5332     1  0.0000000  0.6508444  3
   5310   5308   5320   5321     1  0.0000000  0.6508444  3
   5310   5308   5320   5322     1  0.0000000  0.6508444  3
   5311   5307   5314   5315     1  0.0000000  1.2552000  3
   5311   5307   5314   5316     1  0.0000000  1.2552000  3
   5311   5323   5329   5330     1  0.0000000  0.6508444  3
   5311   5323   5329   5331     1  0.0000000  0.6508444  3
   5312   5311   5307   5314     1  0.0000000  1.2552000  3
   5312   5311   5323   5329     1  0.0000000  0.6508444  3
   5312   5311   5323   5324     1  0.0000000  0.6508444  3
   5312   5311   5323   5325     1  0.0000000  0.6508444  3
   5313   5311   5307   5314     1  0.0000000  1.2552000  3
   5313   5311   5323   5329     1  0.0000000  0.6508444  3
   5313   5311   5323   5324     1  0.0000000  0.6508444  3
   5313   5311   5323   5325     1  0.0000000  0.6508444  3
   5314   5317   5326   5327     1  0.0000000  0.6508444  3
   5314   5317   5326   5328     1  0.0000000  0.6508444  3
   5315   5314   5317   5326     1  0.0000000  0.6508444  3
   5315   5314   5317   5318     1  0.0000000  0.6508444  3
   5315   5314   5317   5319     1  0.0000000  0.6508444  3
   5316   5314   5317   5326     1  0.0000000  0.6508444  3
   5316   5314   5317   5318     1  0.0000000  0.6508444  3
   5316   5314   5317   5319     1  0.0000000  0.6508444  3
   5318   5317   5326   5335     1  0.0000000  1.0460000  1
   5318   5317   5326   5335     1  0.0000000  0.0000000  3
   5318   5317   5326   5327     1  0.0000000  0.6508444  3
   5318   5317   5326   5328     1  0.0000000  0.6508444  3
   5319   5317   5326   5335     1  0.0000000  1.0460000  1
   5319   5317   5326   5335     1  0.0000000  0.0000000  3
   5319   5317   5326   5327     1  0.0000000  0.6508444  3
   5319   5317   5326   5328     1  0.0000000  0.6508444  3
   5321   5320   5332   9637     1  0.0000000  1.0460000  1
   5321   5320   5332   9637     1  0.0000000  0.0000000  3
   5321   5320   5332   5333     1  0.0000000  0.6508444  3
   5321   5320   5332   5334     1  0.0000000  0.6508444  3
   5322   5320   5332   9637     1  0.0000000  1.0460000  1
   5322   5320   5332   9637     1  0.0000000  0.0000000  3
   5322   5320   5332   5333     1  0.0000000  0.6508444  3
   5322   5320   5332   5334     1  0.0000000  0.6508444  3
   5324   5323   5329   9614     1  0.0000000  1.0460000  1
   5324   5323   5329   9614     1  0.0000000  0.0000000  3
   5324   5323   5329   5330     1  0.0000000  0.6508444  3
   5324   5323   5329   5331     1  0.0000000  0.6508444  3
   5325   5323   5329   9614     1  0.0000000  1.0460000  1
   5325   5323   5329   9614     1  0.0000000  0.0000000  3
   5325   5323   5329   5330     1  0.0000000  0.6508444  3
   5325   5323   5329   5331     1  0.0000000  0.6508444  3
   5329   9614   9610   9613     1  0.0000000  1.6038667  3
   5330   5329   9614   9610     1  0.0000000  1.6038667  3
   5331   5329   9614   9610     1  0.0000000  1.6038667  3
   5332   9637   9633   9636     1  0.0000000  1.6038667  3
   5333   5332   9637   9633     1  0.0000000  1.6038667  3
   5334   5332   9637   9633     1  0.0000000  1.6038667  3
   5336   5337   5349   5350     1  0.0000000  0.6508444  3
   5336   5337   5349   5351     1  0.0000000  0.6508444  3
   5336   5340   5352   5353     1  0.0000000  0.6508444  3
   5336   5340   5352   5354     1  0.0000000  0.6508444  3
   5336   5343   5346   5347     1  0.0000000  0.6508444  3
   5336   5343   5346   5348     1  0.0000000  0.6508444  3
   5337   5336   5340   5341     1  0.0000000  1.2552000  3
   5337   5336   5340   5342     1  0.0000000  1.2552000  3
   5337   5336   5343   5344     1  0.0000000  1.2552000  3
   5337   5336   5343   5345     1  0.0000000  1.2552000  3
   5337   5349   5361   5362     1  0.0000000  0.6508444  3
   5337   5349   5361   5363     1  0.0000000  0.6508444  3
   5338   5337   5336   5340     1  0.0000000  1.2552000  3
   5338   5337   5336   5343     1  0.0000000  1.2552000  3
   5338   5337   5349   5361     1  0.0000000  0.6508444  3
   5338   5337   5349   5350     1  0.0000000  0.6508444  3
   5338   5337   5349   5351     1  0.0000000  0.6508444  3
   5339   5337   5336   5340     1  0.0000000  1.2552000  3
   5339   5337   5336   5343     1  0.0000000  1.2552000  3
   5339   5337   5349   5361     1  0.0000000  0.6508444  3
   5339   5337   5349   5350     1  0.0000000  0.6508444  3
   5339   5337   5349   5351     1  0.0000000  0.6508444  3
   5340   5336   5343   5344     1  0.0000000  1.2552000  3
   5340   5336   5343   5345     1  0.0000000  1.2552000  3
   5340   5352   5358   5359     1  0.0000000  0.6508444  3
   5340   5352   5358   5360     1  0.0000000  0.6508444  3
   5341   5340   5336   5343     1  0.0000000  1.2552000  3
   5341   5340   5352   5358     1  0.0000000  0.6508444  3
   5341   5340   5352   5353     1  0.0000000  0.6508444  3
   5341   5340   5352   5354     1  0.0000000  0.6508444  3
   5342   5340   5336   5343     1  0.0000000  1.2552000  3
   5342   5340   5352   5358     1  0.0000000  0.6508444  3
   5342   5340   5352   5353     1  0.0000000  0.6508444  3
   5342   5340   5352   5354     1  0.0000000  0.6508444  3
   5343   5346   5355   5356     1  0.0000000  0.6508444  3
   5343   5346   5355   5357     1  0.0000000  0.6508444  3
   5344   5343   5346   5355     1  0.0000000  0.6508444  3
   5344   5343   5346   5347     1  0.0000000  0.6508444  3
   5344   5343   5346   5348     1  0.0000000  0.6508444  3
   5345   5343   5346   5355     1  0.0000000  0.6508444  3
   5345   5343   5346   5347     1  0.0000000  0.6508444  3
   5345   5343   5346   5348     1  0.0000000  0.6508444  3
   5347   5346   5355   5364     1  0.0000000  1.0460000  1
   5347   5346   5355   5364     1  0.0000000  0.0000000  3
   5347   5346   5355   5356     1  0.0000000  0.6508444  3
   5347   5346   5355   5357     1  0.0000000  0.6508444  3
   5348   5346   5355   5364     1  0.0000000  1.0460000  1
   5348   5346   5355   5364     1  0.0000000  0.0000000  3
   5348   5346   5355   5356     1  0.0000000  0.6508444  3
   5348   5346   5355   5357     1  0.0000000  0.6508444  3
   5350   5349   5361   9683     1  0.0000000  1.0460000  1
   5350   5349   5361   9683     1  0.0000000  0.0000000  3
   5350   5349   5361   5362     1  0.0000000  0.6508444  3
   5350   5349   5361   5363     1  0.0000000  0.6508444  3
   5351   5349   5361   9683     1  0.0000000  1.0460000  1
   5351   5349   5361   9683     1  0.0000000  0.0000000  3
   5351   5349   5361   5362     1  0.0000000  0.6508444  3
   5351   5349   5361   5363     1  0.0000000  0.6508444  3
   5353   5352   5358   9660     1  0.0000000  1.0460000  1
   5353   5352   5358   9660     1  0.0000000  0.0000000  3
   5353   5352   5358   5359     1  0.0000000  0.6508444  3
   5353   5352   5358   5360     1  0.0000000  0.6508444  3
   5354   5352   5358   9660     1  0.0000000  1.0460000  1
   5354   5352   5358   9660     1  0.0000000  0.0000000  3
   5354   5352   5358   5359     1  0.0000000  0.6508444  3
   5354   5352   5358   5360     1  0.0000000  0.6508444  3
   5358   9660   9656   9659     1  0.0000000  1.6038667  3
   5359   5358   9660   9656     1  0.0000000  1.6038667  3
   5360   5358   9660   9656     1  0.0000000  1.6038667  3
   5361   9683   9679   9682     1  0.0000000  1.6038667  3
   5362   5361   9683   9679     1  0.0000000  1.6038667  3
   5363   5361   9683   9679     1  0.0000000  1.6038667  3
   5365   5366   5378   5379     1  0.0000000  0.6508444  3
   5365   5366   5378   5380     1  0.0000000  0.6508444  3
   5365   5369   5381   5382     1  0.0000000  0.6508444  3
   5365   5369   5381   5383     1  0.0000000  0.6508444  3
   5365   5372   5375   5376     1  0.0000000  0.6508444  3
   5365   5372   5375   5377     1  0.0000000  0.6508444  3
   5366   5365   5369   5370     1  0.0000000  1.2552000  3
   5366   5365   5369   5371     1  0.0000000  1.2552000  3
   5366   5365   5372   5373     1  0.0000000  1.2552000  3
   5366   5365   5372   5374     1  0.0000000  1.2552000  3
   5366   5378   5390   5391     1  0.0000000  0.6508444  3
   5366   5378   5390   5392     1  0.0000000  0.6508444  3
   5367   5366   5365   5369     1  0.0000000  1.2552000  3
   5367   5366   5365   5372     1  0.0000000  1.2552000  3
   5367   5366   5378   5390     1  0.0000000  0.6508444  3
   5367   5366   5378   5379     1  0.0000000  0.6508444  3
   5367   5366   5378   5380     1  0.0000000  0.6508444  3
   5368   5366   5365   5369     1  0.0000000  1.2552000  3
   5368   5366   5365   5372     1  0.0000000  1.2552000  3
   5368   5366   5378   5390     1  0.0000000  0.6508444  3
   5368   5366   5378   5379     1  0.0000000  0.6508444  3
   5368   5366   5378   5380     1  0.0000000  0.6508444  3
   5369   5365   5372   5373     1  0.0000000  1.2552000  3
   5369   5365   5372   5374     1  0.0000000  1.2552000  3
   5369   5381   5387   5388     1  0.0000000  0.6508444  3
   5369   5381   5387   5389     1  0.0000000  0.6508444  3
   5370   5369   5365   5372     1  0.0000000  1.2552000  3
   5370   5369   5381   5387     1  0.0000000  0.6508444  3
   5370   5369   5381   5382     1  0.0000000  0.6508444  3
   5370   5369   5381   5383     1  0.0000000  0.6508444  3
   5371   5369   5365   5372     1  0.0000000  1.2552000  3
   5371   5369   5381   5387     1  0.0000000  0.6508444  3
   5371   5369   5381   5382     1  0.0000000  0.6508444  3
   5371   5369   5381   5383     1  0.0000000  0.6508444  3
   5372   5375   5384   5385     1  0.0000000  0.6508444  3
   5372   5375   5384   5386     1  0.0000000  0.6508444  3
   5373   5372   5375   5384     1  0.0000000  0.6508444  3
   5373   5372   5375   5376     1  0.0000000  0.6508444  3
   5373   5372   5375   5377     1  0.0000000  0.6508444  3
   5374   5372   5375   5384     1  0.0000000  0.6508444  3
   5374   5372   5375   5376     1  0.0000000  0.6508444  3
   5374   5372   5375   5377     1  0.0000000  0.6508444  3
   5376   5375   5384   5393     1  0.0000000  1.0460000  1
   5376   5375   5384   5393     1  0.0000000  0.0000000  3
   5376   5375   5384   5385     1  0.0000000  0.6508444  3
   5376   5375   5384   5386     1  0.0000000  0.6508444  3
   5377   5375   5384   5393     1  0.0000000  1.0460000  1
   5377   5375   5384   5393     1  0.0000000  0.0000000  3
   5377   5375   5384   5385     1  0.0000000  0.6508444  3
   5377   5375   5384   5386     1  0.0000000  0.6508444  3
   5379   5378   5390   9729     1  0.0000000  1.0460000  1
   5379   5378   5390   9729     1  0.0000000  0.0000000  3
   5379   5378   5390   5391     1  0.0000000  0.6508444  3
   5379   5378   5390   5392     1  0.0000000  0.6508444  3
   5380   5378   5390   9729     1  0.0000000  1.0460000  1
   5380   5378   5390   9729     1  0.0000000  0.0000000  3
   5380   5378   5390   5391     1  0.0000000  0.6508444  3
   5380   5378   5390   5392     1  0.0000000  0.6508444  3
   5382   5381   5387   9706     1  0.0000000  1.0460000  1
   5382   5381   5387   9706     1  0.0000000  0.0000000  3
   5382   5381   5387   5388     1  0.0000000  0.6508444  3
   5382   5381   5387   5389     1  0.0000000  0.6508444  3
   5383   5381   5387   9706     1  0.0000000  1.0460000  1
   5383   5381   5387   9706     1  0.0000000  0.0000000  3
   5383   5381   5387   5388     1  0.0000000  0.6508444  3
   5383   5381   5387   5389     1  0.0000000  0.6508444  3
   5387   9706   9702   9705     1  0.0000000  1.6038667  3
   5388   5387   9706   9702     1  0.0000000  1.6038667  3
   5389   5387   9706   9702     1  0.0000000  1.6038667  3
   5390   9729   9725   9728     1  0.0000000  1.6038667  3
   5391   5390   9729   9725     1  0.0000000  1.6038667  3
   5392   5390   9729   9725     1  0.0000000  1.6038667  3
   5394   5395   5407   5408     1  0.0000000  0.6508444  3
   5394   5395   5407   5409     1  0.0000000  0.6508444  3
   5394   5398   5410   5411     1  0.0000000  0.6508444  3
   5394   5398   5410   5412     1  0.0000000  0.6508444  3
   5394   5401   5404   5405     1  0.0000000  0.6508444  3
   5394   5401   5404   5406     1  0.0000000  0.6508444  3
   5395   5394   5398   5399     1  0.0000000  1.2552000  3
   5395   5394   5398   5400     1  0.0000000  1.2552000  3
   5395   5394   5401   5402     1  0.0000000  1.2552000  3
   5395   5394   5401   5403     1  0.0000000  1.2552000  3
   5395   5407   5419   5420     1  0.0000000  0.6508444  3
   5395   5407   5419   5421     1  0.0000000  0.6508444  3
   5396   5395   5394   5398     1  0.0000000  1.2552000  3
   5396   5395   5394   5401     1  0.0000000  1.2552000  3
   5396   5395   5407   5419     1  0.0000000  0.6508444  3
   5396   5395   5407   5408     1  0.0000000  0.6508444  3
   5396   5395   5407   5409     1  0.0000000  0.6508444  3
   5397   5395   5394   5398     1  0.0000000  1.2552000  3
   5397   5395   5394   5401     1  0.0000000  1.2552000  3
   5397   5395   5407   5419     1  0.0000000  0.6508444  3
   5397   5395   5407   5408     1  0.0000000  0.6508444  3
   5397   5395   5407   5409     1  0.0000000  0.6508444  3
   5398   5394   5401   5402     1  0.0000000  1.2552000  3
   5398   5394   5401   5403     1  0.0000000  1.2552000  3
   5398   5410   5416   5417     1  0.0000000  0.6508444  3
   5398   5410   5416   5418     1  0.0000000  0.6508444  3
   5399   5398   5394   5401     1  0.0000000  1.2552000  3
   5399   5398   5410   5416     1  0.0000000  0.6508444  3
   5399   5398   5410   5411     1  0.0000000  0.6508444  3
   5399   5398   5410   5412     1  0.0000000  0.6508444  3
   5400   5398   5394   5401     1  0.0000000  1.2552000  3
   5400   5398   5410   5416     1  0.0000000  0.6508444  3
   5400   5398   5410   5411     1  0.0000000  0.6508444  3
   5400   5398   5410   5412     1  0.0000000  0.6508444  3
   5401   5404   5413   5414     1  0.0000000  0.6508444  3
   5401   5404   5413   5415     1  0.0000000  0.6508444  3
   5402   5401   5404   5413     1  0.0000000  0.6508444  3
   5402   5401   5404   5405     1  0.0000000  0.6508444  3
   5402   5401   5404   5406     1  0.0000000  0.6508444  3
   5403   5401   5404   5413     1  0.0000000  0.6508444  3
   5403   5401   5404   5405     1  0.0000000  0.6508444  3
   5403   5401   5404   5406     1  0.0000000  0.6508444  3
   5405   5404   5413   5422     1  0.0000000  1.0460000  1
   5405   5404   5413   5422     1  0.0000000  0.0000000  3
   5405   5404   5413   5414     1  0.0000000  0.6508444  3
   5405   5404   5413   5415     1  0.0000000  0.6508444  3
   5406   5404   5413   5422     1  0.0000000  1.0460000  1
   5406   5404   5413   5422     1  0.0000000  0.0000000  3
   5406   5404   5413   5414     1  0.0000000  0.6508444  3
   5406   5404   5413   5415     1  0.0000000  0.6508444  3
   5408   5407   5419   9775     1  0.0000000  1.0460000  1
   5408   5407   5419   9775     1  0.0000000  0.0000000  3
   5408   5407   5419   5420     1  0.0000000  0.6508444  3
   5408   5407   5419   5421     1  0.0000000  0.6508444  3
   5409   5407   5419   9775     1  0.0000000  1.0460000  1
   5409   5407   5419   9775     1  0.0000000  0.0000000  3
   5409   5407   5419   5420     1  0.0000000  0.6508444  3
   5409   5407   5419   5421     1  0.0000000  0.6508444  3
   5411   5410   5416   9752     1  0.0000000  1.0460000  1
   5411   5410   5416   9752     1  0.0000000  0.0000000  3
   5411   5410   5416   5417     1  0.0000000  0.6508444  3
   5411   5410   5416   5418     1  0.0000000  0.6508444  3
   5412   5410   5416   9752     1  0.0000000  1.0460000  1
   5412   5410   5416   9752     1  0.0000000  0.0000000  3
   5412   5410   5416   5417     1  0.0000000  0.6508444  3
   5412   5410   5416   5418     1  0.0000000  0.6508444  3
   5416   9752   9748   9751     1  0.0000000  1.6038667  3
   5417   5416   9752   9748     1  0.0000000  1.6038667  3
   5418   5416   9752   9748     1  0.0000000  1.6038667  3
   5419   9775   9771   9774     1  0.0000000  1.6038667  3
   5420   5419   9775   9771     1  0.0000000  1.6038667  3
   5421   5419   9775   9771     1  0.0000000  1.6038667  3
   5423   5424   5436   5437     1  0.0000000  0.6508444  3
   5423   5424   5436   5438     1  0.0000000  0.6508444  3
   5423   5427   5439   5440     1  0.0000000  0.6508444  3
   5423   5427   5439   5441     1  0.0000000  0.6508444  3
   5423   5430   5433   5434     1  0.0000000  0.6508444  3
   5423   5430   5433   5435     1  0.0000000  0.6508444  3
   5424   5423   5427   5428     1  0.0000000  1.2552000  3
   5424   5423   5427   5429     1  0.0000000  1.2552000  3
   5424   5423   5430   5431     1  0.0000000  1.2552000  3
   5424   5423   5430   5432     1  0.0000000  1.2552000  3
   5424   5436   5448   5449     1  0.0000000  0.6508444  3
   5424   5436   5448   5450     1  0.0000000  0.6508444  3
   5425   5424   5423   5427     1  0.0000000  1.2552000  3
   5425   5424   5423   5430     1  0.0000000  1.2552000  3
   5425   5424   5436   5448     1  0.0000000  0.6508444  3
   5425   5424   5436   5437     1  0.0000000  0.6508444  3
   5425   5424   5436   5438     1  0.0000000  0.6508444  3
   5426   5424   5423   5427     1  0.0000000  1.2552000  3
   5426   5424   5423   5430     1  0.0000000  1.2552000  3
   5426   5424   5436   5448     1  0.0000000  0.6508444  3
   5426   5424   5436   5437     1  0.0000000  0.6508444  3
   5426   5424   5436   5438     1  0.0000000  0.6508444  3
   5427   5423   5430   5431     1  0.0000000  1.2552000  3
   5427   5423   5430   5432     1  0.0000000  1.2552000  3
   5427   5439   5445   5446     1  0.0000000  0.6508444  3
   5427   5439   5445   5447     1  0.0000000  0.6508444  3
   5428   5427   5423   5430     1  0.0000000  1.2552000  3
   5428   5427   5439   5445     1  0.0000000  0.6508444  3
   5428   5427   5439   5440     1  0.0000000  0.6508444  3
   5428   5427   5439   5441     1  0.0000000  0.6508444  3
   5429   5427   5423   5430     1  0.0000000  1.2552000  3
   5429   5427   5439   5445     1  0.0000000  0.6508444  3
   5429   5427   5439   5440     1  0.0000000  0.6508444  3
   5429   5427   5439   5441     1  0.0000000  0.6508444  3
   5430   5433   5442   5443     1  0.0000000  0.6508444  3
   5430   5433   5442   5444     1  0.0000000  0.6508444  3
   5431   5430   5433   5442     1  0.0000000  0.6508444  3
   5431   5430   5433   5434     1  0.0000000  0.6508444  3
   5431   5430   5433   5435     1  0.0000000  0.6508444  3
   5432   5430   5433   5442     1  0.0000000  0.6508444  3
   5432   5430   5433   5434     1  0.0000000  0.6508444  3
   5432   5430   5433   5435     1  0.0000000  0.6508444  3
   5434   5433   5442   5451     1  0.0000000  1.0460000  1
   5434   5433   5442   5451     1  0.0000000  0.0000000  3
   5434   5433   5442   5443     1  0.0000000  0.6508444  3
   5434   5433   5442   5444     1  0.0000000  0.6508444  3
   5435   5433   5442   5451     1  0.0000000  1.0460000  1
   5435   5433   5442   5451     1  0.0000000  0.0000000  3
   5435   5433   5442   5443     1  0.0000000  0.6508444  3
   5435   5433   5442   5444     1  0.0000000  0.6508444  3
   5437   5436   5448   9821     1  0.0000000  1.0460000  1
   5437   5436   5448   9821     1  0.0000000  0.0000000  3
   5437   5436   5448   5449     1  0.0000000  0.6508444  3
   5437   5436   5448   5450     1  0.0000000  0.6508444  3
   5438   5436   5448   9821     1  0.0000000  1.0460000  1
   5438   5436   5448   9821     1  0.0000000  0.0000000  3
   5438   5436   5448   5449     1  0.0000000  0.6508444  3
   5438   5436   5448   5450     1  0.0000000  0.6508444  3
   5440   5439   5445   9798     1  0.0000000  1.0460000  1
   5440   5439   5445   9798     1  0.0000000  0.0000000  3
   5440   5439   5445   5446     1  0.0000000  0.6508444  3
   5440   5439   5445   5447     1  0.0000000  0.6508444  3
   5441   5439   5445   9798     1  0.0000000  1.0460000  1
   5441   5439   5445   9798     1  0.0000000  0.0000000  3
   5441   5439   5445   5446     1  0.0000000  0.6508444  3
   5441   5439   5445   5447     1  0.0000000  0.6508444  3
   5445   9798   9794   9797     1  0.0000000  1.6038667  3
   5446   5445   9798   9794     1  0.0000000  1.6038667  3
   5447   5445   9798   9794     1  0.0000000  1.6038667  3
   5448   9821   9817   9820     1  0.0000000  1.6038667  3
   5449   5448   9821   9817     1  0.0000000  1.6038667  3
   5450   5448   9821   9817     1  0.0000000  1.6038667  3
   5452   5453   5465   5466     1  0.0000000  0.6508444  3
   5452   5453   5465   5467     1  0.0000000  0.6508444  3
   5452   5456   5468   5469     1  0.0000000  0.6508444  3
   5452   5456   5468   5470     1  0.0000000  0.6508444  3
   5452   5459   5462   5463     1  0.0000000  0.6508444  3
   5452   5459   5462   5464     1  0.0000000  0.6508444  3
   5453   5452   5456   5457     1  0.0000000  1.2552000  3
   5453   5452   5456   5458     1  0.0000000  1.2552000  3
   5453   5452   5459   5460     1  0.0000000  1.2552000  3
   5453   5452   5459   5461     1  0.0000000  1.2552000  3
   5453   5465   5477   5478     1  0.0000000  0.6508444  3
   5453   5465   5477   5479     1  0.0000000  0.6508444  3
   5454   5453   5452   5456     1  0.0000000  1.2552000  3
   5454   5453   5452   5459     1  0.0000000  1.2552000  3
   5454   5453   5465   5477     1  0.0000000  0.6508444  3
   5454   5453   5465   5466     1  0.0000000  0.6508444  3
   5454   5453   5465   5467     1  0.0000000  0.6508444  3
   5455   5453   5452   5456     1  0.0000000  1.2552000  3
   5455   5453   5452   5459     1  0.0000000  1.2552000  3
   5455   5453   5465   5477     1  0.0000000  0.6508444  3
   5455   5453   5465   5466     1  0.0000000  0.6508444  3
   5455   5453   5465   5467     1  0.0000000  0.6508444  3
   5456   5452   5459   5460     1  0.0000000  1.2552000  3
   5456   5452   5459   5461     1  0.0000000  1.2552000  3
   5456   5468   5474   5475     1  0.0000000  0.6508444  3
   5456   5468   5474   5476     1  0.0000000  0.6508444  3
   5457   5456   5452   5459     1  0.0000000  1.2552000  3
   5457   5456   5468   5474     1  0.0000000  0.6508444  3
   5457   5456   5468   5469     1  0.0000000  0.6508444  3
   5457   5456   5468   5470     1  0.0000000  0.6508444  3
   5458   5456   5452   5459     1  0.0000000  1.2552000  3
   5458   5456   5468   5474     1  0.0000000  0.6508444  3
   5458   5456   5468   5469     1  0.0000000  0.6508444  3
   5458   5456   5468   5470     1  0.0000000  0.6508444  3
   5459   5462   5471   5472     1  0.0000000  0.6508444  3
   5459   5462   5471   5473     1  0.0000000  0.6508444  3
   5460   5459   5462   5471     1  0.0000000  0.6508444  3
   5460   5459   5462   5463     1  0.0000000  0.6508444  3
   5460   5459   5462   5464     1  0.0000000  0.6508444  3
   5461   5459   5462   5471     1  0.0000000  0.6508444  3
   5461   5459   5462   5463     1  0.0000000  0.6508444  3
   5461   5459   5462   5464     1  0.0000000  0.6508444  3
   5463   5462   5471   5480     1  0.0000000  1.0460000  1
   5463   5462   5471   5480     1  0.0000000  0.0000000  3
   5463   5462   5471   5472     1  0.0000000  0.6508444  3
   5463   5462   5471   5473     1  0.0000000  0.6508444  3
   5464   5462   5471   5480     1  0.0000000  1.0460000  1
   5464   5462   5471   5480     1  0.0000000  0.0000000  3
   5464   5462   5471   5472     1  0.0000000  0.6508444  3
   5464   5462   5471   5473     1  0.0000000  0.6508444  3
   5466   5465   5477   9867     1  0.0000000  1.0460000  1
   5466   5465   5477   9867     1  0.0000000  0.0000000  3
   5466   5465   5477   5478     1  0.0000000  0.6508444  3
   5466   5465   5477   5479     1  0.0000000  0.6508444  3
   5467   5465   5477   9867     1  0.0000000  1.0460000  1
   5467   5465   5477   9867     1  0.0000000  0.0000000  3
   5467   5465   5477   5478     1  0.0000000  0.6508444  3
   5467   5465   5477   5479     1  0.0000000  0.6508444  3
   5469   5468   5474   9844     1  0.0000000  1.0460000  1
   5469   5468   5474   9844     1  0.0000000  0.0000000  3
   5469   5468   5474   5475     1  0.0000000  0.6508444  3
   5469   5468   5474   5476     1  0.0000000  0.6508444  3
   5470   5468   5474   9844     1  0.0000000  1.0460000  1
   5470   5468   5474   9844     1  0.0000000  0.0000000  3
   5470   5468   5474   5475     1  0.0000000  0.6508444  3
   5470   5468   5474   5476     1  0.0000000  0.6508444  3
   5474   9844   9840   9843     1  0.0000000  1.6038667  3
   5475   5474   9844   9840     1  0.0000000  1.6038667  3
   5476   5474   9844   9840     1  0.0000000  1.6038667  3
   5477   9867   9863   9866     1  0.0000000  1.6038667  3
   5478   5477   9867   9863     1  0.0000000  1.6038667  3
   5479   5477   9867   9863     1  0.0000000  1.6038667  3
   5481   5482   5494   5495     1  0.0000000  0.6508444  3
   5481   5482   5494   5496     1  0.0000000  0.6508444  3
   5481   5485   5497   5498     1  0.0000000  0.6508444  3
   5481   5485   5497   5499     1  0.0000000  0.6508444  3
   5481   5488   5491   5492     1  0.0000000  0.6508444  3
   5481   5488   5491   5493     1  0.0000000  0.6508444  3
   5482   5481   5485   5486     1  0.0000000  1.2552000  3
   5482   5481   5485   5487     1  0.0000000  1.2552000  3
   5482   5481   5488   5489     1  0.0000000  1.2552000  3
   5482   5481   5488   5490     1  0.0000000  1.2552000  3
   5482   5494   5506   5507     1  0.0000000  0.6508444  3
   5482   5494   5506   5508     1  0.0000000  0.6508444  3
   5483   5482   5481   5485     1  0.0000000  1.2552000  3
   5483   5482   5481   5488     1  0.0000000  1.2552000  3
   5483   5482   5494   5506     1  0.0000000  0.6508444  3
   5483   5482   5494   5495     1  0.0000000  0.6508444  3
   5483   5482   5494   5496     1  0.0000000  0.6508444  3
   5484   5482   5481   5485     1  0.0000000  1.2552000  3
   5484   5482   5481   5488     1  0.0000000  1.2552000  3
   5484   5482   5494   5506     1  0.0000000  0.6508444  3
   5484   5482   5494   5495     1  0.0000000  0.6508444  3
   5484   5482   5494   5496     1  0.0000000  0.6508444  3
   5485   5481   5488   5489     1  0.0000000  1.2552000  3
   5485   5481   5488   5490     1  0.0000000  1.2552000  3
   5485   5497   5503   5504     1  0.0000000  0.6508444  3
   5485   5497   5503   5505     1  0.0000000  0.6508444  3
   5486   5485   5481   5488     1  0.0000000  1.2552000  3
   5486   5485   5497   5503     1  0.0000000  0.6508444  3
   5486   5485   5497   5498     1  0.0000000  0.6508444  3
   5486   5485   5497   5499     1  0.0000000  0.6508444  3
   5487   5485   5481   5488     1  0.0000000  1.2552000  3
   5487   5485   5497   5503     1  0.0000000  0.6508444  3
   5487   5485   5497   5498     1  0.0000000  0.6508444  3
   5487   5485   5497   5499     1  0.0000000  0.6508444  3
   5488   5491   5500   5501     1  0.0000000  0.6508444  3
   5488   5491   5500   5502     1  0.0000000  0.6508444  3
   5489   5488   5491   5500     1  0.0000000  0.6508444  3
   5489   5488   5491   5492     1  0.0000000  0.6508444  3
   5489   5488   5491   5493     1  0.0000000  0.6508444  3
   5490   5488   5491   5500     1  0.0000000  0.6508444  3
   5490   5488   5491   5492     1  0.0000000  0.6508444  3
   5490   5488   5491   5493     1  0.0000000  0.6508444  3
   5492   5491   5500   5509     1  0.0000000  1.0460000  1
   5492   5491   5500   5509     1  0.0000000  0.0000000  3
   5492   5491   5500   5501     1  0.0000000  0.6508444  3
   5492   5491   5500   5502     1  0.0000000  0.6508444  3
   5493   5491   5500   5509     1  0.0000000  1.0460000  1
   5493   5491   5500   5509     1  0.0000000  0.0000000  3
   5493   5491   5500   5501     1  0.0000000  0.6508444  3
   5493   5491   5500   5502     1  0.0000000  0.6508444  3
   5495   5494   5506   9913     1  0.0000000  1.0460000  1
   5495   5494   5506   9913     1  0.0000000  0.0000000  3
   5495   5494   5506   5507     1  0.0000000  0.6508444  3
   5495   5494   5506   5508     1  0.0000000  0.6508444  3
   5496   5494   5506   9913     1  0.0000000  1.0460000  1
   5496   5494   5506   9913     1  0.0000000  0.0000000  3
   5496   5494   5506   5507     1  0.0000000  0.6508444  3
   5496   5494   5506   5508     1  0.0000000  0.6508444  3
   5498   5497   5503   9890     1  0.0000000  1.0460000  1
   5498   5497   5503   9890     1  0.0000000  0.0000000  3
   5498   5497   5503   5504     1  0.0000000  0.6508444  3
   5498   5497   5503   5505     1  0.0000000  0.6508444  3
   5499   5497   5503   9890     1  0.0000000  1.0460000  1
   5499   5497   5503   9890     1  0.0000000  0.0000000  3
   5499   5497   5503   5504     1  0.0000000  0.6508444  3
   5499   5497   5503   5505     1  0.0000000  0.6508444  3
   5503   9890   9886   9889     1  0.0000000  1.6038667  3
   5504   5503   9890   9886     1  0.0000000  1.6038667  3
   5505   5503   9890   9886     1  0.0000000  1.6038667  3
   5506   9913   9909   9912     1  0.0000000  1.6038667  3
   5507   5506   9913   9909     1  0.0000000  1.6038667  3
   5508   5506   9913   9909     1  0.0000000  1.6038667  3
   5510   5511   5514   5518     1  0.0000000  0.6508444  3
   5510   5511   5523   5526     1  0.0000000  1.0460000  1
   5510   5511   5523   5526     1  0.0000000  0.6694400  3
   5510   5524   5530   5531     1  0.0000000  1.0460000  1
   5510   5524   5530   5531     1  0.0000000  0.6694400  3
   5510   5532   5516   5519     1  0.0000000  1.6038667  3
   5511   5510   5524   5528     1  0.0000000  0.6508444  3
   5511   5510   5524   5529     1  0.0000000  0.6508444  3
   5511   5514   5515   5517     1  0.0000000  0.6508444  3
   5511   5514   5522   5525     1  0.0000000  1.0460000  1
   5511   5514   5522   5525     1  0.0000000  0.6694400  3
   5512   5510   5511   5514     1  0.0000000  0.6508444  3
   5512   5510   5511   5523     1  0.0000000  1.0460000  1
   5512   5510   5511   5523     1  0.0000000  0.0000000  3
   5512   5510   5511   5513     1  0.0000000  0.6508444  3
   5512   5510   5524   5530     1  0.0000000  1.0460000  1
   5512   5510   5524   5530     1  0.0000000  0.0000000  3
   5512   5510   5524   5528     1  0.0000000  0.6508444  3
   5512   5510   5524   5529     1  0.0000000  0.6508444  3
   5512   5510   5532   5516     1  0.0000000  1.6038667  3
   5513   5511   5510   5524     1  0.0000000  0.6508444  3
   5513   5511   5510   5532     1  0.0000000  1.0460000  1
   5513   5511   5510   5532     1  0.0000000  0.0000000  3
   5513   5511   5514   5515     1  0.0000000  0.6508444  3
   5513   5511   5514   5522     1  0.0000000  1.0460000  1
   5513   5511   5514   5522     1  0.0000000  0.0000000  3
   5513   5511   5514   5518     1  0.0000000  0.6508444  3
   5513   5511   5523   5526     1  0.0000000  0.6973333  3
   5514   5511   5523   5526     1  0.0000000  1.0460000  1
   5514   5511   5523   5526     1  0.0000000  0.6694400  3
   5514   5515   5516   5519     1  0.0000000  0.6508444  3
   5514   5515   5521   5527     1  0.0000000  1.0460000  1
   5514   5515   5521   5527     1  0.0000000  0.6694400  3
   5515   5514   5522   5525     1  0.0000000  1.0460000  1
   5515   5514   5522   5525     1  0.0000000  0.6694400  3
   5516   5515   5514   5518     1  0.0000000  0.6508444  3
   5516   5515   5521   5527     1  0.0000000  1.0460000  1
   5516   5515   5521   5527     1  0.0000000  0.6694400  3
   5517   5515   5514   5522     1  0.0000000  1.0460000  1
   5517   5515   5514   5522     1  0.0000000  0.0000000  3
   5517   5515   5514   5518     1  0.0000000  0.6508444  3
   5517   5515   5516   5520     1  0.0000000  1.0460000  1
   5517   5515   5516   5520     1  0.0000000  0.0000000  3
   5517   5515   5516   5532     1  0.0000000  1.0460000  1
   5517   5515   5516   5532     1  0.0000000  0.0000000  3
   5517   5515   5516   5519     1  0.0000000  0.6508444  3
   5517   5515   5521   5527     1  0.0000000  0.6973333  3
   5518   5514   5511   5523     1  0.0000000  1.0460000  1
   5518   5514   5511   5523     1  0.0000000  0.0000000  3
   5518   5514   5515   5521     1  0.0000000  1.0460000  1
   5518   5514   5515   5521     1  0.0000000  0.0000000  3
   5518   5514   5522   5525     1  0.0000000  0.6973333  3
   5519   5516   5515   5521     1  0.0000000  0.6508444  3
   5528   5524   5510   5532     1  0.0000000  1.0460000  1
   5528   5524   5510   5532     1  0.0000000  0.0000000  3
   5528   5524   5530   5531     1  0.0000000  0.6973333  3
   5529   5524   5510   5532     1  0.0000000  1.0460000  1
   5529   5524   5510   5532     1  0.0000000  0.0000000  3
   5529   5524   5530   5531     1  0.0000000  0.6973333  3
   5533   5534   5537   5541     1  0.0000000  0.6508444  3
   5533   5534   5546   5549     1  0.0000000  1.0460000  1
   5533   5534   5546   5549     1  0.0000000  0.6694400  3
   5533   5547   5553   5554     1  0.0000000  1.0460000  1
   5533   5547   5553   5554     1  0.0000000  0.6694400  3
   5533   5555   5539   5542     1  0.0000000  1.6038667  3
   5534   5537   5538   5540     1  0.0000000  0.6508444  3
   5534   5537   5545   5548     1  0.0000000  1.0460000  1
   5534   5537   5545   5548     1  0.0000000  0.6694400  3
   5534   5533   5547   5551     1  0.0000000  0.6508444  3
   5534   5533   5547   5552     1  0.0000000  0.6508444  3
   5535   5533   5534   5537     1  0.0000000  0.6508444  3
   5535   5533   5534   5546     1  0.0000000  1.0460000  1
   5535   5533   5534   5546     1  0.0000000  0.0000000  3
   5535   5533   5534   5536     1  0.0000000  0.6508444  3
   5535   5533   5547   5553     1  0.0000000  1.0460000  1
   5535   5533   5547   5553     1  0.0000000  0.0000000  3
   5535   5533   5547   5551     1  0.0000000  0.6508444  3
   5535   5533   5547   5552     1  0.0000000  0.6508444  3
   5535   5533   5555   5539     1  0.0000000  1.6038667  3
   5536   5534   5537   5538     1  0.0000000  0.6508444  3
   5536   5534   5537   5545     1  0.0000000  1.0460000  1
   5536   5534   5537   5545     1  0.0000000  0.0000000  3
   5536   5534   5537   5541     1  0.0000000  0.6508444  3
   5536   5534   5546   5549     1  0.0000000  0.6973333  3
   5536   5534   5533   5547     1  0.0000000  0.6508444  3
   5536   5534   5533   5555     1  0.0000000  1.0460000  1
   5536   5534   5533   5555     1  0.0000000  0.0000000  3
   5537   5538   5539   5542     1  0.0000000  0.6508444  3
   5537   5538   5544   5550     1  0.0000000  1.0460000  1
   5537   5538   5544   5550     1  0.0000000  0.6694400  3
   5537   5534   5546   5549     1  0.0000000  1.0460000  1
   5537   5534   5546   5549     1  0.0000000  0.6694400  3
   5538   5537   5545   5548     1  0.0000000  1.0460000  1
   5538   5537   5545   5548     1  0.0000000  0.6694400  3
   5539   5538   5544   5550     1  0.0000000  1.0460000  1
   5539   5538   5544   5550     1  0.0000000  0.6694400  3
   5539   5538   5537   5541     1  0.0000000  0.6508444  3
   5540   5538   5539   5543     1  0.0000000  1.0460000  1
   5540   5538   5539   5543     1  0.0000000  0.0000000  3
   5540   5538   5539   5555     1  0.0000000  1.0460000  1
   5540   5538   5539   5555     1  0.0000000  0.0000000  3
   5540   5538   5539   5542     1  0.0000000  0.6508444  3
   5540   5538   5544   5550     1  0.0000000  0.6973333  3
   5540   5538   5537   5545     1  0.0000000  1.0460000  1
   5540   5538   5537   5545     1  0.0000000  0.0000000  3
   5540   5538   5537   5541     1  0.0000000  0.6508444  3
   5541   5537   5538   5544     1  0.0000000  1.0460000  1
   5541   5537   5538   5544     1  0.0000000  0.0000000  3
   5541   5537   5545   5548     1  0.0000000  0.6973333  3
   5541   5537   5534   5546     1  0.0000000  1.0460000  1
   5541   5537   5534   5546     1  0.0000000  0.0000000  3
   5542   5539   5538   5544     1  0.0000000  0.6508444  3
   5551   5547   5553   5554     1  0.0000000  0.6973333  3
   5551   5547   5533   5555     1  0.0000000  1.0460000  1
   5551   5547   5533   5555     1  0.0000000  0.0000000  3
   5552   5547   5553   5554     1  0.0000000  0.6973333  3
   5552   5547   5533   5555     1  0.0000000  1.0460000  1
   5552   5547   5533   5555     1  0.0000000  0.0000000  3
   5556   5557   5560   5564     1  0.0000000  0.6508444  3
   5556   5557   5569   5572     1  0.0000000  1.0460000  1
   5556   5557   5569   5572     1  0.0000000  0.6694400  3
   5556   5570   5576   5577     1  0.0000000  1.0460000  1
   5556   5570   5576   5577     1  0.0000000  0.6694400  3
   5556   5578   5562   5565     1  0.0000000  1.6038667  3
   5557   5556   5570   5574     1  0.0000000  0.6508444  3
   5557   5556   5570   5575     1  0.0000000  0.6508444  3
   5557   5560   5561   5563     1  0.0000000  0.6508444  3
   5557   5560   5568   5571     1  0.0000000  1.0460000  1
   5557   5560   5568   5571     1  0.0000000  0.6694400  3
   5558   5556   5557   5560     1  0.0000000  0.6508444  3
   5558   5556   5557   5569     1  0.0000000  1.0460000  1
   5558   5556   5557   5569     1  0.0000000  0.0000000  3
   5558   5556   5557   5559     1  0.0000000  0.6508444  3
   5558   5556   5570   5576     1  0.0000000  1.0460000  1
   5558   5556   5570   5576     1  0.0000000  0.0000000  3
   5558   5556   5570   5574     1  0.0000000  0.6508444  3
   5558   5556   5570   5575     1  0.0000000  0.6508444  3
   5558   5556   5578   5562     1  0.0000000  1.6038667  3
   5559   5557   5556   5570     1  0.0000000  0.6508444  3
   5559   5557   5556   5578     1  0.0000000  1.0460000  1
   5559   5557   5556   5578     1  0.0000000  0.0000000  3
   5559   5557   5560   5561     1  0.0000000  0.6508444  3
   5559   5557   5560   5568     1  0.0000000  1.0460000  1
   5559   5557   5560   5568     1  0.0000000  0.0000000  3
   5559   5557   5560   5564     1  0.0000000  0.6508444  3
   5559   5557   5569   5572     1  0.0000000  0.6973333  3
   5560   5557   5569   5572     1  0.0000000  1.0460000  1
   5560   5557   5569   5572     1  0.0000000  0.6694400  3
   5560   5561   5562   5565     1  0.0000000  0.6508444  3
   5560   5561   5567   5573     1  0.0000000  1.0460000  1
   5560   5561   5567   5573     1  0.0000000  0.6694400  3
   5561   5560   5568   5571     1  0.0000000  1.0460000  1
   5561   5560   5568   5571     1  0.0000000  0.6694400  3
   5562   5561   5560   5564     1  0.0000000  0.6508444  3
   5562   5561   5567   5573     1  0.0000000  1.0460000  1
   5562   5561   5567   5573     1  0.0000000  0.6694400  3
   5563   5561   5560   5568     1  0.0000000  1.0460000  1
   5563   5561   5560   5568     1  0.0000000  0.0000000  3
   5563   5561   5560   5564     1  0.0000000  0.6508444  3
   5563   5561   5562   5566     1  0.0000000  1.0460000  1
   5563   5561   5562   5566     1  0.0000000  0.0000000  3
   5563   5561   5562   5578     1  0.0000000  1.0460000  1
   5563   5561   5562   5578     1  0.0000000  0.0000000  3
   5563   5561   5562   5565     1  0.0000000  0.6508444  3
   5563   5561   5567   5573     1  0.0000000  0.6973333  3
   5564   5560   5557   5569     1  0.0000000  1.0460000  1
   5564   5560   5557   5569     1  0.0000000  0.0000000  3
   5564   5560   5561   5567     1  0.0000000  1.0460000  1
   5564   5560   5561   5567     1  0.0000000  0.0000000  3
   5564   5560   5568   5571     1  0.0000000  0.6973333  3
   5565   5562   5561   5567     1  0.0000000  0.6508444  3
   5574   5570   5556   5578     1  0.0000000  1.0460000  1
   5574   5570   5556   5578     1  0.0000000  0.0000000  3
   5574   5570   5576   5577     1  0.0000000  0.6973333  3
   5575   5570   5556   5578     1  0.0000000  1.0460000  1
   5575   5570   5556   5578     1  0.0000000  0.0000000  3
   5575   5570   5576   5577     1  0.0000000  0.6973333  3
   5579   5580   5583   5587     1  0.0000000  0.6508444  3
   5579   5580   5592   5595     1  0.0000000  1.0460000  1
   5579   5580   5592   5595     1  0.0000000  0.6694400  3
   5579   5593   5599   5600     1  0.0000000  1.0460000  1
   5579   5593   5599   5600     1  0.0000000  0.6694400  3
   5579   5601   5585   5588     1  0.0000000  1.6038667  3
   5580   5583   5584   5586     1  0.0000000  0.6508444  3
   5580   5583   5591   5594     1  0.0000000  1.0460000  1
   5580   5583   5591   5594     1  0.0000000  0.6694400  3
   5580   5579   5593   5597     1  0.0000000  0.6508444  3
   5580   5579   5593   5598     1  0.0000000  0.6508444  3
   5581   5579   5580   5583     1  0.0000000  0.6508444  3
   5581   5579   5580   5592     1  0.0000000  1.0460000  1
   5581   5579   5580   5592     1  0.0000000  0.0000000  3
   5581   5579   5580   5582     1  0.0000000  0.6508444  3
   5581   5579   5593   5599     1  0.0000000  1.0460000  1
   5581   5579   5593   5599     1  0.0000000  0.0000000  3
   5581   5579   5593   5597     1  0.0000000  0.6508444  3
   5581   5579   5593   5598     1  0.0000000  0.6508444  3
   5581   5579   5601   5585     1  0.0000000  1.6038667  3
   5582   5580   5583   5584     1  0.0000000  0.6508444  3
   5582   5580   5583   5591     1  0.0000000  1.0460000  1
   5582   5580   5583   5591     1  0.0000000  0.0000000  3
   5582   5580   5583   5587     1  0.0000000  0.6508444  3
   5582   5580   5592   5595     1  0.0000000  0.6973333  3
   5582   5580   5579   5593     1  0.0000000  0.6508444  3
   5582   5580   5579   5601     1  0.0000000  1.0460000  1
   5582   5580   5579   5601     1  0.0000000  0.0000000  3
   5583   5584   5585   5588     1  0.0000000  0.6508444  3
   5583   5584   5590   5596     1  0.0000000  1.0460000  1
   5583   5584   5590   5596     1  0.0000000  0.6694400  3
   5583   5580   5592   5595     1  0.0000000  1.0460000  1
   5583   5580   5592   5595     1  0.0000000  0.6694400  3
   5584   5583   5591   5594     1  0.0000000  1.0460000  1
   5584   5583   5591   5594     1  0.0000000  0.6694400  3
   5585   5584   5590   5596     1  0.0000000  1.0460000  1
   5585   5584   5590   5596     1  0.0000000  0.6694400  3
   5585   5584   5583   5587     1  0.0000000  0.6508444  3
   5586   5584   5585   5589     1  0.0000000  1.0460000  1
   5586   5584   5585   5589     1  0.0000000  0.0000000  3
   5586   5584   5585   5601     1  0.0000000  1.0460000  1
   5586   5584   5585   5601     1  0.0000000  0.0000000  3
   5586   5584   5585   5588     1  0.0000000  0.6508444  3
   5586   5584   5590   5596     1  0.0000000  0.6973333  3
   5586   5584   5583   5591     1  0.0000000  1.0460000  1
   5586   5584   5583   5591     1  0.0000000  0.0000000  3
   5586   5584   5583   5587     1  0.0000000  0.6508444  3
   5587   5583   5584   5590     1  0.0000000  1.0460000  1
   5587   5583   5584   5590     1  0.0000000  0.0000000  3
   5587   5583   5591   5594     1  0.0000000  0.6973333  3
   5587   5583   5580   5592     1  0.0000000  1.0460000  1
   5587   5583   5580   5592     1  0.0000000  0.0000000  3
   5588   5585   5584   5590     1  0.0000000  0.6508444  3
   5597   5593   5599   5600     1  0.0000000  0.6973333  3
   5597   5593   5579   5601     1  0.0000000  1.0460000  1
   5597   5593   5579   5601     1  0.0000000  0.0000000  3
   5598   5593   5599   5600     1  0.0000000  0.6973333  3
   5598   5593   5579   5601     1  0.0000000  1.0460000  1
   5598   5593   5579   5601     1  0.0000000  0.0000000  3
   5602   5603   5606   5610     1  0.0000000  0.6508444  3
   5602   5603   5615   5618     1  0.0000000  1.0460000  1
   5602   5603   5615   5618     1  0.0000000  0.6694400  3
   5602   5616   5622   5623     1  0.0000000  1.0460000  1
   5602   5616   5622   5623     1  0.0000000  0.6694400  3
   5602   5624   5608   5611     1  0.0000000  1.6038667  3
   5603   5602   5616   5620     1  0.0000000  0.6508444  3
   5603   5602   5616   5621     1  0.0000000  0.6508444  3
   5603   5606   5607   5609     1  0.0000000  0.6508444  3
   5603   5606   5614   5617     1  0.0000000  1.0460000  1
   5603   5606   5614   5617     1  0.0000000  0.6694400  3
   5604   5602   5603   5606     1  0.0000000  0.6508444  3
   5604   5602   5603   5615     1  0.0000000  1.0460000  1
   5604   5602   5603   5615     1  0.0000000  0.0000000  3
   5604   5602   5603   5605     1  0.0000000  0.6508444  3
   5604   5602   5616   5622     1  0.0000000  1.0460000  1
   5604   5602   5616   5622     1  0.0000000  0.0000000  3
   5604   5602   5616   5620     1  0.0000000  0.6508444  3
   5604   5602   5616   5621     1  0.0000000  0.6508444  3
   5604   5602   5624   5608     1  0.0000000  1.6038667  3
   5605   5603   5602   5616     1  0.0000000  0.6508444  3
   5605   5603   5602   5624     1  0.0000000  1.0460000  1
   5605   5603   5602   5624     1  0.0000000  0.0000000  3
   5605   5603   5606   5607     1  0.0000000  0.6508444  3
   5605   5603   5606   5614     1  0.0000000  1.0460000  1
   5605   5603   5606   5614     1  0.0000000  0.0000000  3
   5605   5603   5606   5610     1  0.0000000  0.6508444  3
   5605   5603   5615   5618     1  0.0000000  0.6973333  3
   5606   5603   5615   5618     1  0.0000000  1.0460000  1
   5606   5603   5615   5618     1  0.0000000  0.6694400  3
   5606   5607   5608   5611     1  0.0000000  0.6508444  3
   5606   5607   5613   5619     1  0.0000000  1.0460000  1
   5606   5607   5613   5619     1  0.0000000  0.6694400  3
   5607   5606   5614   5617     1  0.0000000  1.0460000  1
   5607   5606   5614   5617     1  0.0000000  0.6694400  3
   5608   5607   5606   5610     1  0.0000000  0.6508444  3
   5608   5607   5613   5619     1  0.0000000  1.0460000  1
   5608   5607   5613   5619     1  0.0000000  0.6694400  3
   5609   5607   5606   5614     1  0.0000000  1.0460000  1
   5609   5607   5606   5614     1  0.0000000  0.0000000  3
   5609   5607   5606   5610     1  0.0000000  0.6508444  3
   5609   5607   5608   5612     1  0.0000000  1.0460000  1
   5609   5607   5608   5612     1  0.0000000  0.0000000  3
   5609   5607   5608   5624     1  0.0000000  1.0460000  1
   5609   5607   5608   5624     1  0.0000000  0.0000000  3
   5609   5607   5608   5611     1  0.0000000  0.6508444  3
   5609   5607   5613   5619     1  0.0000000  0.6973333  3
   5610   5606   5603   5615     1  0.0000000  1.0460000  1
   5610   5606   5603   5615     1  0.0000000  0.0000000  3
   5610   5606   5607   5613     1  0.0000000  1.0460000  1
   5610   5606   5607   5613     1  0.0000000  0.0000000  3
   5610   5606   5614   5617     1  0.0000000  0.6973333  3
   5611   5608   5607   5613     1  0.0000000  0.6508444  3
   5620   5616   5602   5624     1  0.0000000  1.0460000  1
   5620   5616   5602   5624     1  0.0000000  0.0000000  3
   5620   5616   5622   5623     1  0.0000000  0.6973333  3
   5621   5616   5602   5624     1  0.0000000  1.0460000  1
   5621   5616   5602   5624     1  0.0000000  0.0000000  3
   5621   5616   5622   5623     1  0.0000000  0.6973333  3
   5625   5626   5629   5633     1  0.0000000  0.6508444  3
   5625   5626   5638   5641     1  0.0000000  1.0460000  1
   5625   5626   5638   5641     1  0.0000000  0.6694400  3
   5625   5639   5645   5646     1  0.0000000  1.0460000  1
   5625   5639   5645   5646     1  0.0000000  0.6694400  3
   5625   5647   5631   5634     1  0.0000000  1.6038667  3
   5626   5629   5630   5632     1  0.0000000  0.6508444  3
   5626   5629   5637   5640     1  0.0000000  1.0460000  1
   5626   5629   5637   5640     1  0.0000000  0.6694400  3
   5626   5625   5639   5643     1  0.0000000  0.6508444  3
   5626   5625   5639   5644     1  0.0000000  0.6508444  3
   5627   5625   5626   5629     1  0.0000000  0.6508444  3
   5627   5625   5626   5638     1  0.0000000  1.0460000  1
   5627   5625   5626   5638     1  0.0000000  0.0000000  3
   5627   5625   5626   5628     1  0.0000000  0.6508444  3
   5627   5625   5639   5645     1  0.0000000  1.0460000  1
   5627   5625   5639   5645     1  0.0000000  0.0000000  3
   5627   5625   5639   5643     1  0.0000000  0.6508444  3
   5627   5625   5639   5644     1  0.0000000  0.6508444  3
   5627   5625   5647   5631     1  0.0000000  1.6038667  3
   5628   5626   5629   5630     1  0.0000000  0.6508444  3
   5628   5626   5629   5637     1  0.0000000  1.0460000  1
   5628   5626   5629   5637     1  0.0000000  0.0000000  3
   5628   5626   5629   5633     1  0.0000000  0.6508444  3
   5628   5626   5638   5641     1  0.0000000  0.6973333  3
   5628   5626   5625   5639     1  0.0000000  0.6508444  3
   5628   5626   5625   5647     1  0.0000000  1.0460000  1
   5628   5626   5625   5647     1  0.0000000  0.0000000  3
   5629   5630   5631   5634     1  0.0000000  0.6508444  3
   5629   5630   5636   5642     1  0.0000000  1.0460000  1
   5629   5630   5636   5642     1  0.0000000  0.6694400  3
   5629   5626   5638   5641     1  0.0000000  1.0460000  1
   5629   5626   5638   5641     1  0.0000000  0.6694400  3
   5630   5629   5637   5640     1  0.0000000  1.0460000  1
   5630   5629   5637   5640     1  0.0000000  0.6694400  3
   5631   5630   5636   5642     1  0.0000000  1.0460000  1
   5631   5630   5636   5642     1  0.0000000  0.6694400  3
   5631   5630   5629   5633     1  0.0000000  0.6508444  3
   5632   5630   5631   5635     1  0.0000000  1.0460000  1
   5632   5630   5631   5635     1  0.0000000  0.0000000  3
   5632   5630   5631   5647     1  0.0000000  1.0460000  1
   5632   5630   5631   5647     1  0.0000000  0.0000000  3
   5632   5630   5631   5634     1  0.0000000  0.6508444  3
   5632   5630   5636   5642     1  0.0000000  0.6973333  3
   5632   5630   5629   5637     1  0.0000000  1.0460000  1
   5632   5630   5629   5637     1  0.0000000  0.0000000  3
   5632   5630   5629   5633     1  0.0000000  0.6508444  3
   5633   5629   5630   5636     1  0.0000000  1.0460000  1
   5633   5629   5630   5636     1  0.0000000  0.0000000  3
   5633   5629   5637   5640     1  0.0000000  0.6973333  3
   5633   5629   5626   5638     1  0.0000000  1.0460000  1
   5633   5629   5626   5638     1  0.0000000  0.0000000  3
   5634   5631   5630   5636     1  0.0000000  0.6508444  3
   5643   5639   5645   5646     1  0.0000000  0.6973333  3
   5643   5639   5625   5647     1  0.0000000  1.0460000  1
   5643   5639   5625   5647     1  0.0000000  0.0000000  3
   5644   5639   5645   5646     1  0.0000000  0.6973333  3
   5644   5639   5625   5647     1  0.0000000  1.0460000  1
   5644   5639   5625   5647     1  0.0000000  0.0000000  3
   5648   5649   5652   5656     1  0.0000000  0.6508444  3
   5648   5649   5661   5664     1  0.0000000  1.0460000  1
   5648   5649   5661   5664     1  0.0000000  0.6694400  3
   5648   5662   5668   5669     1  0.0000000  1.0460000  1
   5648   5662   5668   5669     1  0.0000000  0.6694400  3
   5648   5670   5654   5657     1  0.0000000  1.6038667  3
   5649   5648   5662   5666     1  0.0000000  0.6508444  3
   5649   5648   5662   5667     1  0.0000000  0.6508444  3
   5649   5652   5653   5655     1  0.0000000  0.6508444  3
   5649   5652   5660   5663     1  0.0000000  1.0460000  1
   5649   5652   5660   5663     1  0.0000000  0.6694400  3
   5650   5648   5649   5652     1  0.0000000  0.6508444  3
   5650   5648   5649   5661     1  0.0000000  1.0460000  1
   5650   5648   5649   5661     1  0.0000000  0.0000000  3
   5650   5648   5649   5651     1  0.0000000  0.6508444  3
   5650   5648   5662   5668     1  0.0000000  1.0460000  1
   5650   5648   5662   5668     1  0.0000000  0.0000000  3
   5650   5648   5662   5666     1  0.0000000  0.6508444  3
   5650   5648   5662   5667     1  0.0000000  0.6508444  3
   5650   5648   5670   5654     1  0.0000000  1.6038667  3
   5651   5649   5648   5662     1  0.0000000  0.6508444  3
   5651   5649   5648   5670     1  0.0000000  1.0460000  1
   5651   5649   5648   5670     1  0.0000000  0.0000000  3
   5651   5649   5652   5653     1  0.0000000  0.6508444  3
   5651   5649   5652   5660     1  0.0000000  1.0460000  1
   5651   5649   5652   5660     1  0.0000000  0.0000000  3
   5651   5649   5652   5656     1  0.0000000  0.6508444  3
   5651   5649   5661   5664     1  0.0000000  0.6973333  3
   5652   5649   5661   5664     1  0.0000000  1.0460000  1
   5652   5649   5661   5664     1  0.0000000  0.6694400  3
   5652   5653   5654   5657     1  0.0000000  0.6508444  3
   5652   5653   5659   5665     1  0.0000000  1.0460000  1
   5652   5653   5659   5665     1  0.0000000  0.6694400  3
   5653   5652   5660   5663     1  0.0000000  1.0460000  1
   5653   5652   5660   5663     1  0.0000000  0.6694400  3
   5654   5653   5652   5656     1  0.0000000  0.6508444  3
   5654   5653   5659   5665     1  0.0000000  1.0460000  1
   5654   5653   5659   5665     1  0.0000000  0.6694400  3
   5655   5653   5652   5660     1  0.0000000  1.0460000  1
   5655   5653   5652   5660     1  0.0000000  0.0000000  3
   5655   5653   5652   5656     1  0.0000000  0.6508444  3
   5655   5653   5654   5658     1  0.0000000  1.0460000  1
   5655   5653   5654   5658     1  0.0000000  0.0000000  3
   5655   5653   5654   5670     1  0.0000000  1.0460000  1
   5655   5653   5654   5670     1  0.0000000  0.0000000  3
   5655   5653   5654   5657     1  0.0000000  0.6508444  3
   5655   5653   5659   5665     1  0.0000000  0.6973333  3
   5656   5652   5649   5661     1  0.0000000  1.0460000  1
   5656   5652   5649   5661     1  0.0000000  0.0000000  3
   5656   5652   5653   5659     1  0.0000000  1.0460000  1
   5656   5652   5653   5659     1  0.0000000  0.0000000  3
   5656   5652   5660   5663     1  0.0000000  0.6973333  3
   5657   5654   5653   5659     1  0.0000000  0.6508444  3
   5666   5662   5648   5670     1  0.0000000  1.0460000  1
   5666   5662   5648   5670     1  0.0000000  0.0000000  3
   5666   5662   5668   5669     1  0.0000000  0.6973333  3
   5667   5662   5648   5670     1  0.0000000  1.0460000  1
   5667   5662   5648   5670     1  0.0000000  0.0000000  3
   5667   5662   5668   5669     1  0.0000000  0.6973333  3
   5671   5672   5675   5679     1  0.0000000  0.6508444  3
   5671   5672   5684   5687     1  0.0000000  1.0460000  1
   5671   5672   5684   5687     1  0.0000000  0.6694400  3
   5671   5685   5691   5692     1  0.0000000  1.0460000  1
   5671   5685   5691   5692     1  0.0000000  0.6694400  3
   5671   5693   5677   5680     1  0.0000000  1.6038667  3
   5672   5675   5676   5678     1  0.0000000  0.6508444  3
   5672   5675   5683   5686     1  0.0000000  1.0460000  1
   5672   5675   5683   5686     1  0.0000000  0.6694400  3
   5672   5671   5685   5689     1  0.0000000  0.6508444  3
   5672   5671   5685   5690     1  0.0000000  0.6508444  3
   5673   5671   5672   5675     1  0.0000000  0.6508444  3
   5673   5671   5672   5684     1  0.0000000  1.0460000  1
   5673   5671   5672   5684     1  0.0000000  0.0000000  3
   5673   5671   5672   5674     1  0.0000000  0.6508444  3
   5673   5671   5685   5691     1  0.0000000  1.0460000  1
   5673   5671   5685   5691     1  0.0000000  0.0000000  3
   5673   5671   5685   5689     1  0.0000000  0.6508444  3
   5673   5671   5685   5690     1  0.0000000  0.6508444  3
   5673   5671   5693   5677     1  0.0000000  1.6038667  3
   5674   5672   5675   5676     1  0.0000000  0.6508444  3
   5674   5672   5675   5683     1  0.0000000  1.0460000  1
   5674   5672   5675   5683     1  0.0000000  0.0000000  3
   5674   5672   5675   5679     1  0.0000000  0.6508444  3
   5674   5672   5684   5687     1  0.0000000  0.6973333  3
   5674   5672   5671   5685     1  0.0000000  0.6508444  3
   5674   5672   5671   5693     1  0.0000000  1.0460000  1
   5674   5672   5671   5693     1  0.0000000  0.0000000  3
   5675   5676   5677   5680     1  0.0000000  0.6508444  3
   5675   5676   5682   5688     1  0.0000000  1.0460000  1
   5675   5676   5682   5688     1  0.0000000  0.6694400  3
   5675   5672   5684   5687     1  0.0000000  1.0460000  1
   5675   5672   5684   5687     1  0.0000000  0.6694400  3
   5676   5675   5683   5686     1  0.0000000  1.0460000  1
   5676   5675   5683   5686     1  0.0000000  0.6694400  3
   5677   5676   5682   5688     1  0.0000000  1.0460000  1
   5677   5676   5682   5688     1  0.0000000  0.6694400  3
   5677   5676   5675   5679     1  0.0000000  0.6508444  3
   5678   5676   5677   5681     1  0.0000000  1.0460000  1
   5678   5676   5677   5681     1  0.0000000  0.0000000  3
   5678   5676   5677   5693     1  0.0000000  1.0460000  1
   5678   5676   5677   5693     1  0.0000000  0.0000000  3
   5678   5676   5677   5680     1  0.0000000  0.6508444  3
   5678   5676   5682   5688     1  0.0000000  0.6973333  3
   5678   5676   5675   5683     1  0.0000000  1.0460000  1
   5678   5676   5675   5683     1  0.0000000  0.0000000  3
   5678   5676   5675   5679     1  0.0000000  0.6508444  3
   5679   5675   5676   5682     1  0.0000000  1.0460000  1
   5679   5675   5676   5682     1  0.0000000  0.0000000  3
   5679   5675   5683   5686     1  0.0000000  0.6973333  3
   5679   5675   5672   5684     1  0.0000000  1.0460000  1
   5679   5675   5672   5684     1  0.0000000  0.0000000  3
   5680   5677   5676   5682     1  0.0000000  0.6508444  3
   5689   5685   5691   5692     1  0.0000000  0.6973333  3
   5689   5685   5671   5693     1  0.0000000  1.0460000  1
   5689   5685   5671   5693     1  0.0000000  0.0000000  3
   5690   5685   5691   5692     1  0.0000000  0.6973333  3
   5690   5685   5671   5693     1  0.0000000  1.0460000  1
   5690   5685   5671   5693     1  0.0000000  0.0000000  3
   5694   5695   5698   5702     1  0.0000000  0.6508444  3
   5694   5695   5707   5710     1  0.0000000  1.0460000  1
   5694   5695   5707   5710     1  0.0000000  0.6694400  3
   5694   5708   5714   5715     1  0.0000000  1.0460000  1
   5694   5708   5714   5715     1  0.0000000  0.6694400  3
   5694   5716   5700   5703     1  0.0000000  1.6038667  3
   5695   5694   5708   5712     1  0.0000000  0.6508444  3
   5695   5694   5708   5713     1  0.0000000  0.6508444  3
   5695   5698   5699   5701     1  0.0000000  0.6508444  3
   5695   5698   5706   5709     1  0.0000000  1.0460000  1
   5695   5698   5706   5709     1  0.0000000  0.6694400  3
   5696   5694   5695   5698     1  0.0000000  0.6508444  3
   5696   5694   5695   5707     1  0.0000000  1.0460000  1
   5696   5694   5695   5707     1  0.0000000  0.0000000  3
   5696   5694   5695   5697     1  0.0000000  0.6508444  3
   5696   5694   5708   5714     1  0.0000000  1.0460000  1
   5696   5694   5708   5714     1  0.0000000  0.0000000  3
   5696   5694   5708   5712     1  0.0000000  0.6508444  3
   5696   5694   5708   5713     1  0.0000000  0.6508444  3
   5696   5694   5716   5700     1  0.0000000  1.6038667  3
   5697   5695   5694   5708     1  0.0000000  0.6508444  3
   5697   5695   5694   5716     1  0.0000000  1.0460000  1
   5697   5695   5694   5716     1  0.0000000  0.0000000  3
   5697   5695   5698   5699     1  0.0000000  0.6508444  3
   5697   5695   5698   5706     1  0.0000000  1.0460000  1
   5697   5695   5698   5706     1  0.0000000  0.0000000  3
   5697   5695   5698   5702     1  0.0000000  0.6508444  3
   5697   5695   5707   5710     1  0.0000000  0.6973333  3
   5698   5695   5707   5710     1  0.0000000  1.0460000  1
   5698   5695   5707   5710     1  0.0000000  0.6694400  3
   5698   5699   5700   5703     1  0.0000000  0.6508444  3
   5698   5699   5705   5711     1  0.0000000  1.0460000  1
   5698   5699   5705   5711     1  0.0000000  0.6694400  3
   5699   5698   5706   5709     1  0.0000000  1.0460000  1
   5699   5698   5706   5709     1  0.0000000  0.6694400  3
   5700   5699   5698   5702     1  0.0000000  0.6508444  3
   5700   5699   5705   5711     1  0.0000000  1.0460000  1
   5700   5699   5705   5711     1  0.0000000  0.6694400  3
   5701   5699   5698   5706     1  0.0000000  1.0460000  1
   5701   5699   5698   5706     1  0.0000000  0.0000000  3
   5701   5699   5698   5702     1  0.0000000  0.6508444  3
   5701   5699   5700   5704     1  0.0000000  1.0460000  1
   5701   5699   5700   5704     1  0.0000000  0.0000000  3
   5701   5699   5700   5716     1  0.0000000  1.0460000  1
   5701   5699   5700   5716     1  0.0000000  0.0000000  3
   5701   5699   5700   5703     1  0.0000000  0.6508444  3
   5701   5699   5705   5711     1  0.0000000  0.6973333  3
   5702   5698   5695   5707     1  0.0000000  1.0460000  1
   5702   5698   5695   5707     1  0.0000000  0.0000000  3
   5702   5698   5699   5705     1  0.0000000  1.0460000  1
   5702   5698   5699   5705     1  0.0000000  0.0000000  3
   5702   5698   5706   5709     1  0.0000000  0.6973333  3
   5703   5700   5699   5705     1  0.0000000  0.6508444  3
   5712   5708   5694   5716     1  0.0000000  1.0460000  1
   5712   5708   5694   5716     1  0.0000000  0.0000000  3
   5712   5708   5714   5715     1  0.0000000  0.6973333  3
   5713   5708   5694   5716     1  0.0000000  1.0460000  1
   5713   5708   5694   5716     1  0.0000000  0.0000000  3
   5713   5708   5714   5715     1  0.0000000  0.6973333  3
   5717   5718   5721   5725     1  0.0000000  0.6508444  3
   5717   5718   5730   5733     1  0.0000000  1.0460000  1
   5717   5718   5730   5733     1  0.0000000  0.6694400  3
   5717   5731   5737   5738     1  0.0000000  1.0460000  1
   5717   5731   5737   5738     1  0.0000000  0.6694400  3
   5717   5739   5723   5726     1  0.0000000  1.6038667  3
   5718   5721   5722   5724     1  0.0000000  0.6508444  3
   5718   5721   5729   5732     1  0.0000000  1.0460000  1
   5718   5721   5729   5732     1  0.0000000  0.6694400  3
   5718   5717   5731   5735     1  0.0000000  0.6508444  3
   5718   5717   5731   5736     1  0.0000000  0.6508444  3
   5719   5717   5718   5721     1  0.0000000  0.6508444  3
   5719   5717   5718   5730     1  0.0000000  1.0460000  1
   5719   5717   5718   5730     1  0.0000000  0.0000000  3
   5719   5717   5718   5720     1  0.0000000  0.6508444  3
   5719   5717   5731   5737     1  0.0000000  1.0460000  1
   5719   5717   5731   5737     1  0.0000000  0.0000000  3
   5719   5717   5731   5735     1  0.0000000  0.6508444  3
   5719   5717   5731   5736     1  0.0000000  0.6508444  3
   5719   5717   5739   5723     1  0.0000000  1.6038667  3
   5720   5718   5721   5722     1  0.0000000  0.6508444  3
   5720   5718   5721   5729     1  0.0000000  1.0460000  1
   5720   5718   5721   5729     1  0.0000000  0.0000000  3
   5720   5718   5721   5725     1  0.0000000  0.6508444  3
   5720   5718   5730   5733     1  0.0000000  0.6973333  3
   5720   5718   5717   5731     1  0.0000000  0.6508444  3
   5720   5718   5717   5739     1  0.0000000  1.0460000  1
   5720   5718   5717   5739     1  0.0000000  0.0000000  3
   5721   5722   5723   5726     1  0.0000000  0.6508444  3
   5721   5722   5728   5734     1  0.0000000  1.0460000  1
   5721   5722   5728   5734     1  0.0000000  0.6694400  3
   5721   5718   5730   5733     1  0.0000000  1.0460000  1
   5721   5718   5730   5733     1  0.0000000  0.6694400  3
   5722   5721   5729   5732     1  0.0000000  1.0460000  1
   5722   5721   5729   5732     1  0.0000000  0.6694400  3
   5723   5722   5728   5734     1  0.0000000  1.0460000  1
   5723   5722   5728   5734     1  0.0000000  0.6694400  3
   5723   5722   5721   5725     1  0.0000000  0.6508444  3
   5724   5722   5723   5727     1  0.0000000  1.0460000  1
   5724   5722   5723   5727     1  0.0000000  0.0000000  3
   5724   5722   5723   5739     1  0.0000000  1.0460000  1
   5724   5722   5723   5739     1  0.0000000  0.0000000  3
   5724   5722   5723   5726     1  0.0000000  0.6508444  3
   5724   5722   5728   5734     1  0.0000000  0.6973333  3
   5724   5722   5721   5729     1  0.0000000  1.0460000  1
   5724   5722   5721   5729     1  0.0000000  0.0000000  3
   5724   5722   5721   5725     1  0.0000000  0.6508444  3
   5725   5721   5722   5728     1  0.0000000  1.0460000  1
   5725   5721   5722   5728     1  0.0000000  0.0000000  3
   5725   5721   5729   5732     1  0.0000000  0.6973333  3
   5725   5721   5718   5730     1  0.0000000  1.0460000  1
   5725   5721   5718   5730     1  0.0000000  0.0000000  3
   5726   5723   5722   5728     1  0.0000000  0.6508444  3
   5735   5731   5737   5738     1  0.0000000  0.6973333  3
   5735   5731   5717   5739     1  0.0000000  1.0460000  1
   5735   5731   5717   5739     1  0.0000000  0.0000000  3
   5736   5731   5737   5738     1  0.0000000  0.6973333  3
   5736   5731   5717   5739     1  0.0000000  1.0460000  1
   5736   5731   5717   5739     1  0.0000000  0.0000000  3
   5740   5741   5744   5748     1  0.0000000  0.6508444  3
   5740   5741   5753   5756     1  0.0000000  1.0460000  1
   5740   5741   5753   5756     1  0.0000000  0.6694400  3
   5740   5754   5760   5761     1  0.0000000  1.0460000  1
   5740   5754   5760   5761     1  0.0000000  0.6694400  3
   5740   5762   5746   5749     1  0.0000000  1.6038667  3
   5741   5740   5754   5758     1  0.0000000  0.6508444  3
   5741   5740   5754   5759     1  0.0000000  0.6508444  3
   5741   5744   5745   5747     1  0.0000000  0.6508444  3
   5741   5744   5752   5755     1  0.0000000  1.0460000  1
   5741   5744   5752   5755     1  0.0000000  0.6694400  3
   5742   5740   5741   5744     1  0.0000000  0.6508444  3
   5742   5740   5741   5753     1  0.0000000  1.0460000  1
   5742   5740   5741   5753     1  0.0000000  0.0000000  3
   5742   5740   5741   5743     1  0.0000000  0.6508444  3
   5742   5740   5754   5760     1  0.0000000  1.0460000  1
   5742   5740   5754   5760     1  0.0000000  0.0000000  3
   5742   5740   5754   5758     1  0.0000000  0.6508444  3
   5742   5740   5754   5759     1  0.0000000  0.6508444  3
   5742   5740   5762   5746     1  0.0000000  1.6038667  3
   5743   5741   5740   5754     1  0.0000000  0.6508444  3
   5743   5741   5740   5762     1  0.0000000  1.0460000  1
   5743   5741   5740   5762     1  0.0000000  0.0000000  3
   5743   5741   5744   5745     1  0.0000000  0.6508444  3
   5743   5741   5744   5752     1  0.0000000  1.0460000  1
   5743   5741   5744   5752     1  0.0000000  0.0000000  3
   5743   5741   5744   5748     1  0.0000000  0.6508444  3
   5743   5741   5753   5756     1  0.0000000  0.6973333  3
   5744   5741   5753   5756     1  0.0000000  1.0460000  1
   5744   5741   5753   5756     1  0.0000000  0.6694400  3
   5744   5745   5746   5749     1  0.0000000  0.6508444  3
   5744   5745   5751   5757     1  0.0000000  1.0460000  1
   5744   5745   5751   5757     1  0.0000000  0.6694400  3
   5745   5744   5752   5755     1  0.0000000  1.0460000  1
   5745   5744   5752   5755     1  0.0000000  0.6694400  3
   5746   5745   5744   5748     1  0.0000000  0.6508444  3
   5746   5745   5751   5757     1  0.0000000  1.0460000  1
   5746   5745   5751   5757     1  0.0000000  0.6694400  3
   5747   5745   5744   5752     1  0.0000000  1.0460000  1
   5747   5745   5744   5752     1  0.0000000  0.0000000  3
   5747   5745   5744   5748     1  0.0000000  0.6508444  3
   5747   5745   5746   5750     1  0.0000000  1.0460000  1
   5747   5745   5746   5750     1  0.0000000  0.0000000  3
   5747   5745   5746   5762     1  0.0000000  1.0460000  1
   5747   5745   5746   5762     1  0.0000000  0.0000000  3
   5747   5745   5746   5749     1  0.0000000  0.6508444  3
   5747   5745   5751   5757     1  0.0000000  0.6973333  3
   5748   5744   5741   5753     1  0.0000000  1.0460000  1
   5748   5744   5741   5753     1  0.0000000  0.0000000  3
   5748   5744   5745   5751     1  0.0000000  1.0460000  1
   5748   5744   5745   5751     1  0.0000000  0.0000000  3
   5748   5744   5752   5755     1  0.0000000  0.6973333  3
   5749   5746   5745   5751     1  0.0000000  0.6508444  3
   5758   5754   5740   5762     1  0.0000000  1.0460000  1
   5758   5754   5740   5762     1  0.0000000  0.0000000  3
   5758   5754   5760   5761     1  0.0000000  0.6973333  3
   5759   5754   5740   5762     1  0.0000000  1.0460000  1
   5759   5754   5740   5762     1  0.0000000  0.0000000  3
   5759   5754   5760   5761     1  0.0000000  0.6973333  3
   5763   5764   5767   5771     1  0.0000000  0.6508444  3
   5763   5764   5776   5779     1  0.0000000  1.0460000  1
   5763   5764   5776   5779     1  0.0000000  0.6694400  3
   5763   5777   5783   5784     1  0.0000000  1.0460000  1
   5763   5777   5783   5784     1  0.0000000  0.6694400  3
   5763   5785   5769   5772     1  0.0000000  1.6038667  3
   5764   5767   5768   5770     1  0.0000000  0.6508444  3
   5764   5767   5775   5778     1  0.0000000  1.0460000  1
   5764   5767   5775   5778     1  0.0000000  0.6694400  3
   5764   5763   5777   5781     1  0.0000000  0.6508444  3
   5764   5763   5777   5782     1  0.0000000  0.6508444  3
   5765   5763   5764   5767     1  0.0000000  0.6508444  3
   5765   5763   5764   5776     1  0.0000000  1.0460000  1
   5765   5763   5764   5776     1  0.0000000  0.0000000  3
   5765   5763   5764   5766     1  0.0000000  0.6508444  3
   5765   5763   5777   5783     1  0.0000000  1.0460000  1
   5765   5763   5777   5783     1  0.0000000  0.0000000  3
   5765   5763   5777   5781     1  0.0000000  0.6508444  3
   5765   5763   5777   5782     1  0.0000000  0.6508444  3
   5765   5763   5785   5769     1  0.0000000  1.6038667  3
   5766   5764   5767   5768     1  0.0000000  0.6508444  3
   5766   5764   5767   5775     1  0.0000000  1.0460000  1
   5766   5764   5767   5775     1  0.0000000  0.0000000  3
   5766   5764   5767   5771     1  0.0000000  0.6508444  3
   5766   5764   5776   5779     1  0.0000000  0.6973333  3
   5766   5764   5763   5777     1  0.0000000  0.6508444  3
   5766   5764   5763   5785     1  0.0000000  1.0460000  1
   5766   5764   5763   5785     1  0.0000000  0.0000000  3
   5767   5768   5769   5772     1  0.0000000  0.6508444  3
   5767   5768   5774   5780     1  0.0000000  1.0460000  1
   5767   5768   5774   5780     1  0.0000000  0.6694400  3
   5767   5764   5776   5779     1  0.0000000  1.0460000  1
   5767   5764   5776   5779     1  0.0000000  0.6694400  3
   5768   5767   5775   5778     1  0.0000000  1.0460000  1
   5768   5767   5775   5778     1  0.0000000  0.6694400  3
   5769   5768   5774   5780     1  0.0000000  1.0460000  1
   5769   5768   5774   5780     1  0.0000000  0.6694400  3
   5769   5768   5767   5771     1  0.0000000  0.6508444  3
   5770   5768   5769   5773     1  0.0000000  1.0460000  1
   5770   5768   5769   5773     1  0.0000000  0.0000000  3
   5770   5768   5769   5785     1  0.0000000  1.0460000  1
   5770   5768   5769   5785     1  0.0000000  0.0000000  3
   5770   5768   5769   5772     1  0.0000000  0.6508444  3
   5770   5768   5774   5780     1  0.0000000  0.6973333  3
   5770   5768   5767   5775     1  0.0000000  1.0460000  1
   5770   5768   5767   5775     1  0.0000000  0.0000000  3
   5770   5768   5767   5771     1  0.0000000  0.6508444  3
   5771   5767   5768   5774     1  0.0000000  1.0460000  1
   5771   5767   5768   5774     1  0.0000000  0.0000000  3
   5771   5767   5775   5778     1  0.0000000  0.6973333  3
   5771   5767   5764   5776     1  0.0000000  1.0460000  1
   5771   5767   5764   5776     1  0.0000000  0.0000000  3
   5772   5769   5768   5774     1  0.0000000  0.6508444  3
   5781   5777   5783   5784     1  0.0000000  0.6973333  3
   5781   5777   5763   5785     1  0.0000000  1.0460000  1
   5781   5777   5763   5785     1  0.0000000  0.0000000  3
   5782   5777   5783   5784     1  0.0000000  0.6973333  3
   5782   5777   5763   5785     1  0.0000000  1.0460000  1
   5782   5777   5763   5785     1  0.0000000  0.0000000  3
   5786   5787   5790   5794     1  0.0000000  0.6508444  3
   5786   5787   5799   5802     1  0.0000000  1.0460000  1
   5786   5787   5799   5802     1  0.0000000  0.6694400  3
   5786   5800   5806   5807     1  0.0000000  1.0460000  1
   5786   5800   5806   5807     1  0.0000000  0.6694400  3
   5786   5808   5792   5795     1  0.0000000  1.6038667  3
   5787   5786   5800   5804     1  0.0000000  0.6508444  3
   5787   5786   5800   5805     1  0.0000000  0.6508444  3
   5787   5790   5791   5793     1  0.0000000  0.6508444  3
   5787   5790   5798   5801     1  0.0000000  1.0460000  1
   5787   5790   5798   5801     1  0.0000000  0.6694400  3
   5788   5786   5787   5790     1  0.0000000  0.6508444  3
   5788   5786   5787   5799     1  0.0000000  1.0460000  1
   5788   5786   5787   5799     1  0.0000000  0.0000000  3
   5788   5786   5787   5789     1  0.0000000  0.6508444  3
   5788   5786   5800   5806     1  0.0000000  1.0460000  1
   5788   5786   5800   5806     1  0.0000000  0.0000000  3
   5788   5786   5800   5804     1  0.0000000  0.6508444  3
   5788   5786   5800   5805     1  0.0000000  0.6508444  3
   5788   5786   5808   5792     1  0.0000000  1.6038667  3
   5789   5787   5786   5800     1  0.0000000  0.6508444  3
   5789   5787   5786   5808     1  0.0000000  1.0460000  1
   5789   5787   5786   5808     1  0.0000000  0.0000000  3
   5789   5787   5790   5791     1  0.0000000  0.6508444  3
   5789   5787   5790   5798     1  0.0000000  1.0460000  1
   5789   5787   5790   5798     1  0.0000000  0.0000000  3
   5789   5787   5790   5794     1  0.0000000  0.6508444  3
   5789   5787   5799   5802     1  0.0000000  0.6973333  3
   5790   5787   5799   5802     1  0.0000000  1.0460000  1
   5790   5787   5799   5802     1  0.0000000  0.6694400  3
   5790   5791   5792   5795     1  0.0000000  0.6508444  3
   5790   5791   5797   5803     1  0.0000000  1.0460000  1
   5790   5791   5797   5803     1  0.0000000  0.6694400  3
   5791   5790   5798   5801     1  0.0000000  1.0460000  1
   5791   5790   5798   5801     1  0.0000000  0.6694400  3
   5792   5791   5790   5794     1  0.0000000  0.6508444  3
   5792   5791   5797   5803     1  0.0000000  1.0460000  1
   5792   5791   5797   5803     1  0.0000000  0.6694400  3
   5793   5791   5790   5798     1  0.0000000  1.0460000  1
   5793   5791   5790   5798     1  0.0000000  0.0000000  3
   5793   5791   5790   5794     1  0.0000000  0.6508444  3
   5793   5791   5792   5796     1  0.0000000  1.0460000  1
   5793   5791   5792   5796     1  0.0000000  0.0000000  3
   5793   5791   5792   5808     1  0.0000000  1.0460000  1
   5793   5791   5792   5808     1  0.0000000  0.0000000  3
   5793   5791   5792   5795     1  0.0000000  0.6508444  3
   5793   5791   5797   5803     1  0.0000000  0.6973333  3
   5794   5790   5787   5799     1  0.0000000  1.0460000  1
   5794   5790   5787   5799     1  0.0000000  0.0000000  3
   5794   5790   5791   5797     1  0.0000000  1.0460000  1
   5794   5790   5791   5797     1  0.0000000  0.0000000  3
   5794   5790   5798   5801     1  0.0000000  0.6973333  3
   5795   5792   5791   5797     1  0.0000000  0.6508444  3
   5804   5800   5786   5808     1  0.0000000  1.0460000  1
   5804   5800   5786   5808     1  0.0000000  0.0000000  3
   5804   5800   5806   5807     1  0.0000000  0.6973333  3
   5805   5800   5786   5808     1  0.0000000  1.0460000  1
   5805   5800   5786   5808     1  0.0000000  0.0000000  3
   5805   5800   5806   5807     1  0.0000000  0.6973333  3
   5809   5810   5813   5817     1  0.0000000  0.6508444  3
   5809   5810   5822   5825     1  0.0000000  1.0460000  1
   5809   5810   5822   5825     1  0.0000000  0.6694400  3
   5809   5823   5829   5830     1  0.0000000  1.0460000  1
   5809   5823   5829   5830     1  0.0000000  0.6694400  3
   5809   5831   5815   5818     1  0.0000000  1.6038667  3
   5810   5813   5814   5816     1  0.0000000  0.6508444  3
   5810   5813   5821   5824     1  0.0000000  1.0460000  1
   5810   5813   5821   5824     1  0.0000000  0.6694400  3
   5810   5809   5823   5827     1  0.0000000  0.6508444  3
   5810   5809   5823   5828     1  0.0000000  0.6508444  3
   5811   5809   5810   5813     1  0.0000000  0.6508444  3
   5811   5809   5810   5822     1  0.0000000  1.0460000  1
   5811   5809   5810   5822     1  0.0000000  0.0000000  3
   5811   5809   5810   5812     1  0.0000000  0.6508444  3
   5811   5809   5823   5829     1  0.0000000  1.0460000  1
   5811   5809   5823   5829     1  0.0000000  0.0000000  3
   5811   5809   5823   5827     1  0.0000000  0.6508444  3
   5811   5809   5823   5828     1  0.0000000  0.6508444  3
   5811   5809   5831   5815     1  0.0000000  1.6038667  3
   5812   5810   5813   5814     1  0.0000000  0.6508444  3
   5812   5810   5813   5821     1  0.0000000  1.0460000  1
   5812   5810   5813   5821     1  0.0000000  0.0000000  3
   5812   5810   5813   5817     1  0.0000000  0.6508444  3
   5812   5810   5822   5825     1  0.0000000  0.6973333  3
   5812   5810   5809   5823     1  0.0000000  0.6508444  3
   5812   5810   5809   5831     1  0.0000000  1.0460000  1
   5812   5810   5809   5831     1  0.0000000  0.0000000  3
   5813   5814   5815   5818     1  0.0000000  0.6508444  3
   5813   5814   5820   5826     1  0.0000000  1.0460000  1
   5813   5814   5820   5826     1  0.0000000  0.6694400  3
   5813   5810   5822   5825     1  0.0000000  1.0460000  1
   5813   5810   5822   5825     1  0.0000000  0.6694400  3
   5814   5813   5821   5824     1  0.0000000  1.0460000  1
   5814   5813   5821   5824     1  0.0000000  0.6694400  3
   5815   5814   5820   5826     1  0.0000000  1.0460000  1
   5815   5814   5820   5826     1  0.0000000  0.6694400  3
   5815   5814   5813   5817     1  0.0000000  0.6508444  3
   5816   5814   5815   5819     1  0.0000000  1.0460000  1
   5816   5814   5815   5819     1  0.0000000  0.0000000  3
   5816   5814   5815   5831     1  0.0000000  1.0460000  1
   5816   5814   5815   5831     1  0.0000000  0.0000000  3
   5816   5814   5815   5818     1  0.0000000  0.6508444  3
   5816   5814   5820   5826     1  0.0000000  0.6973333  3
   5816   5814   5813   5821     1  0.0000000  1.0460000  1
   5816   5814   5813   5821     1  0.0000000  0.0000000  3
   5816   5814   5813   5817     1  0.0000000  0.6508444  3
   5817   5813   5814   5820     1  0.0000000  1.0460000  1
   5817   5813   5814   5820     1  0.0000000  0.0000000  3
   5817   5813   5821   5824     1  0.0000000  0.6973333  3
   5817   5813   5810   5822     1  0.0000000  1.0460000  1
   5817   5813   5810   5822     1  0.0000000  0.0000000  3
   5818   5815   5814   5820     1  0.0000000  0.6508444  3
   5827   5823   5829   5830     1  0.0000000  0.6973333  3
   5827   5823   5809   5831     1  0.0000000  1.0460000  1
   5827   5823   5809   5831     1  0.0000000  0.0000000  3
   5828   5823   5829   5830     1  0.0000000  0.6973333  3
   5828   5823   5809   5831     1  0.0000000  1.0460000  1
   5828   5823   5809   5831     1  0.0000000  0.0000000  3
   5832   5833   5836   5840     1  0.0000000  0.6508444  3
   5832   5833   5845   5848     1  0.0000000  1.0460000  1
   5832   5833   5845   5848     1  0.0000000  0.6694400  3
   5832   5846   5852   5853     1  0.0000000  1.0460000  1
   5832   5846   5852   5853     1  0.0000000  0.6694400  3
   5832   5854   5838   5841     1  0.0000000  1.6038667  3
   5833   5832   5846   5850     1  0.0000000  0.6508444  3
   5833   5832   5846   5851     1  0.0000000  0.6508444  3
   5833   5836   5837   5839     1  0.0000000  0.6508444  3
   5833   5836   5844   5847     1  0.0000000  1.0460000  1
   5833   5836   5844   5847     1  0.0000000  0.6694400  3
   5834   5832   5833   5836     1  0.0000000  0.6508444  3
   5834   5832   5833   5845     1  0.0000000  1.0460000  1
   5834   5832   5833   5845     1  0.0000000  0.0000000  3
   5834   5832   5833   5835     1  0.0000000  0.6508444  3
   5834   5832   5846   5852     1  0.0000000  1.0460000  1
   5834   5832   5846   5852     1  0.0000000  0.0000000  3
   5834   5832   5846   5850     1  0.0000000  0.6508444  3
   5834   5832   5846   5851     1  0.0000000  0.6508444  3
   5834   5832   5854   5838     1  0.0000000  1.6038667  3
   5835   5833   5832   5846     1  0.0000000  0.6508444  3
   5835   5833   5832   5854     1  0.0000000  1.0460000  1
   5835   5833   5832   5854     1  0.0000000  0.0000000  3
   5835   5833   5836   5837     1  0.0000000  0.6508444  3
   5835   5833   5836   5844     1  0.0000000  1.0460000  1
   5835   5833   5836   5844     1  0.0000000  0.0000000  3
   5835   5833   5836   5840     1  0.0000000  0.6508444  3
   5835   5833   5845   5848     1  0.0000000  0.6973333  3
   5836   5833   5845   5848     1  0.0000000  1.0460000  1
   5836   5833   5845   5848     1  0.0000000  0.6694400  3
   5836   5837   5838   5841     1  0.0000000  0.6508444  3
   5836   5837   5843   5849     1  0.0000000  1.0460000  1
   5836   5837   5843   5849     1  0.0000000  0.6694400  3
   5837   5836   5844   5847     1  0.0000000  1.0460000  1
   5837   5836   5844   5847     1  0.0000000  0.6694400  3
   5838   5837   5836   5840     1  0.0000000  0.6508444  3
   5838   5837   5843   5849     1  0.0000000  1.0460000  1
   5838   5837   5843   5849     1  0.0000000  0.6694400  3
   5839   5837   5836   5844     1  0.0000000  1.0460000  1
   5839   5837   5836   5844     1  0.0000000  0.0000000  3
   5839   5837   5836   5840     1  0.0000000  0.6508444  3
   5839   5837   5838   5842     1  0.0000000  1.0460000  1
   5839   5837   5838   5842     1  0.0000000  0.0000000  3
   5839   5837   5838   5854     1  0.0000000  1.0460000  1
   5839   5837   5838   5854     1  0.0000000  0.0000000  3
   5839   5837   5838   5841     1  0.0000000  0.6508444  3
   5839   5837   5843   5849     1  0.0000000  0.6973333  3
   5840   5836   5833   5845     1  0.0000000  1.0460000  1
   5840   5836   5833   5845     1  0.0000000  0.0000000  3
   5840   5836   5837   5843     1  0.0000000  1.0460000  1
   5840   5836   5837   5843     1  0.0000000  0.0000000  3
   5840   5836   5844   5847     1  0.0000000  0.6973333  3
   5841   5838   5837   5843     1  0.0000000  0.6508444  3
   5850   5846   5832   5854     1  0.0000000  1.0460000  1
   5850   5846   5832   5854     1  0.0000000  0.0000000  3
   5850   5846   5852   5853     1  0.0000000  0.6973333  3
   5851   5846   5832   5854     1  0.0000000  1.0460000  1
   5851   5846   5832   5854     1  0.0000000  0.0000000  3
   5851   5846   5852   5853     1  0.0000000  0.6973333  3
   5855   5856   5859   5863     1  0.0000000  0.6508444  3
   5855   5856   5868   5871     1  0.0000000  1.0460000  1
   5855   5856   5868   5871     1  0.0000000  0.6694400  3
   5855   5869   5875   5876     1  0.0000000  1.0460000  1
   5855   5869   5875   5876     1  0.0000000  0.6694400  3
   5855   5877   5861   5864     1  0.0000000  1.6038667  3
   5856   5859   5860   5862     1  0.0000000  0.6508444  3
   5856   5859   5867   5870     1  0.0000000  1.0460000  1
   5856   5859   5867   5870     1  0.0000000  0.6694400  3
   5856   5855   5869   5873     1  0.0000000  0.6508444  3
   5856   5855   5869   5874     1  0.0000000  0.6508444  3
   5857   5855   5856   5859     1  0.0000000  0.6508444  3
   5857   5855   5856   5868     1  0.0000000  1.0460000  1
   5857   5855   5856   5868     1  0.0000000  0.0000000  3
   5857   5855   5856   5858     1  0.0000000  0.6508444  3
   5857   5855   5869   5875     1  0.0000000  1.0460000  1
   5857   5855   5869   5875     1  0.0000000  0.0000000  3
   5857   5855   5869   5873     1  0.0000000  0.6508444  3
   5857   5855   5869   5874     1  0.0000000  0.6508444  3
   5857   5855   5877   5861     1  0.0000000  1.6038667  3
   5858   5856   5859   5860     1  0.0000000  0.6508444  3
   5858   5856   5859   5867     1  0.0000000  1.0460000  1
   5858   5856   5859   5867     1  0.0000000  0.0000000  3
   5858   5856   5859   5863     1  0.0000000  0.6508444  3
   5858   5856   5868   5871     1  0.0000000  0.6973333  3
   5858   5856   5855   5869     1  0.0000000  0.6508444  3
   5858   5856   5855   5877     1  0.0000000  1.0460000  1
   5858   5856   5855   5877     1  0.0000000  0.0000000  3
   5859   5860   5861   5864     1  0.0000000  0.6508444  3
   5859   5860   5866   5872     1  0.0000000  1.0460000  1
   5859   5860   5866   5872     1  0.0000000  0.6694400  3
   5859   5856   5868   5871     1  0.0000000  1.0460000  1
   5859   5856   5868   5871     1  0.0000000  0.6694400  3
   5860   5859   5867   5870     1  0.0000000  1.0460000  1
   5860   5859   5867   5870     1  0.0000000  0.6694400  3
   5861   5860   5866   5872     1  0.0000000  1.0460000  1
   5861   5860   5866   5872     1  0.0000000  0.6694400  3
   5861   5860   5859   5863     1  0.0000000  0.6508444  3
   5862   5860   5861   5865     1  0.0000000  1.0460000  1
   5862   5860   5861   5865     1  0.0000000  0.0000000  3
   5862   5860   5861   5877     1  0.0000000  1.0460000  1
   5862   5860   5861   5877     1  0.0000000  0.0000000  3
   5862   5860   5861   5864     1  0.0000000  0.6508444  3
   5862   5860   5866   5872     1  0.0000000  0.6973333  3
   5862   5860   5859   5867     1  0.0000000  1.0460000  1
   5862   5860   5859   5867     1  0.0000000  0.0000000  3
   5862   5860   5859   5863     1  0.0000000  0.6508444  3
   5863   5859   5860   5866     1  0.0000000  1.0460000  1
   5863   5859   5860   5866     1  0.0000000  0.0000000  3
   5863   5859   5867   5870     1  0.0000000  0.6973333  3
   5863   5859   5856   5868     1  0.0000000  1.0460000  1
   5863   5859   5856   5868     1  0.0000000  0.0000000  3
   5864   5861   5860   5866     1  0.0000000  0.6508444  3
   5873   5869   5875   5876     1  0.0000000  0.6973333  3
   5873   5869   5855   5877     1  0.0000000  1.0460000  1
   5873   5869   5855   5877     1  0.0000000  0.0000000  3
   5874   5869   5875   5876     1  0.0000000  0.6973333  3
   5874   5869   5855   5877     1  0.0000000  1.0460000  1
   5874   5869   5855   5877     1  0.0000000  0.0000000  3
   5878   5879   5882   5886     1  0.0000000  0.6508444  3
   5878   5879   5891   5894     1  0.0000000  1.0460000  1
   5878   5879   5891   5894     1  0.0000000  0.6694400  3
   5878   5892   5898   5899     1  0.0000000  1.0460000  1
   5878   5892   5898   5899     1  0.0000000  0.6694400  3
   5878   5900   5884   5887     1  0.0000000  1.6038667  3
   5879   5878   5892   5896     1  0.0000000  0.6508444  3
   5879   5878   5892   5897     1  0.0000000  0.6508444  3
   5879   5882   5883   5885     1  0.0000000  0.6508444  3
   5879   5882   5890   5893     1  0.0000000  1.0460000  1
   5879   5882   5890   5893     1  0.0000000  0.6694400  3
   5880   5878   5879   5882     1  0.0000000  0.6508444  3
   5880   5878   5879   5891     1  0.0000000  1.0460000  1
   5880   5878   5879   5891     1  0.0000000  0.0000000  3
   5880   5878   5879   5881     1  0.0000000  0.6508444  3
   5880   5878   5892   5898     1  0.0000000  1.0460000  1
   5880   5878   5892   5898     1  0.0000000  0.0000000  3
   5880   5878   5892   5896     1  0.0000000  0.6508444  3
   5880   5878   5892   5897     1  0.0000000  0.6508444  3
   5880   5878   5900   5884     1  0.0000000  1.6038667  3
   5881   5879   5878   5892     1  0.0000000  0.6508444  3
   5881   5879   5878   5900     1  0.0000000  1.0460000  1
   5881   5879   5878   5900     1  0.0000000  0.0000000  3
   5881   5879   5882   5883     1  0.0000000  0.6508444  3
   5881   5879   5882   5890     1  0.0000000  1.0460000  1
   5881   5879   5882   5890     1  0.0000000  0.0000000  3
   5881   5879   5882   5886     1  0.0000000  0.6508444  3
   5881   5879   5891   5894     1  0.0000000  0.6973333  3
   5882   5879   5891   5894     1  0.0000000  1.0460000  1
   5882   5879   5891   5894     1  0.0000000  0.6694400  3
   5882   5883   5884   5887     1  0.0000000  0.6508444  3
   5882   5883   5889   5895     1  0.0000000  1.0460000  1
   5882   5883   5889   5895     1  0.0000000  0.6694400  3
   5883   5882   5890   5893     1  0.0000000  1.0460000  1
   5883   5882   5890   5893     1  0.0000000  0.6694400  3
   5884   5883   5882   5886     1  0.0000000  0.6508444  3
   5884   5883   5889   5895     1  0.0000000  1.0460000  1
   5884   5883   5889   5895     1  0.0000000  0.6694400  3
   5885   5883   5882   5890     1  0.0000000  1.0460000  1
   5885   5883   5882   5890     1  0.0000000  0.0000000  3
   5885   5883   5882   5886     1  0.0000000  0.6508444  3
   5885   5883   5884   5888     1  0.0000000  1.0460000  1
   5885   5883   5884   5888     1  0.0000000  0.0000000  3
   5885   5883   5884   5900     1  0.0000000  1.0460000  1
   5885   5883   5884   5900     1  0.0000000  0.0000000  3
   5885   5883   5884   5887     1  0.0000000  0.6508444  3
   5885   5883   5889   5895     1  0.0000000  0.6973333  3
   5886   5882   5879   5891     1  0.0000000  1.0460000  1
   5886   5882   5879   5891     1  0.0000000  0.0000000  3
   5886   5882   5883   5889     1  0.0000000  1.0460000  1
   5886   5882   5883   5889     1  0.0000000  0.0000000  3
   5886   5882   5890   5893     1  0.0000000  0.6973333  3
   5887   5884   5883   5889     1  0.0000000  0.6508444  3
   5896   5892   5878   5900     1  0.0000000  1.0460000  1
   5896   5892   5878   5900     1  0.0000000  0.0000000  3
   5896   5892   5898   5899     1  0.0000000  0.6973333  3
   5897   5892   5878   5900     1  0.0000000  1.0460000  1
   5897   5892   5878   5900     1  0.0000000  0.0000000  3
   5897   5892   5898   5899     1  0.0000000  0.6973333  3
   5901   5902   5905   5909     1  0.0000000  0.6508444  3
   5901   5902   5914   5917     1  0.0000000  1.0460000  1
   5901   5902   5914   5917     1  0.0000000  0.6694400  3
   5901   5915   5921   5922     1  0.0000000  1.0460000  1
   5901   5915   5921   5922     1  0.0000000  0.6694400  3
   5901   5923   5907   5910     1  0.0000000  1.6038667  3
   5902   5905   5906   5908     1  0.0000000  0.6508444  3
   5902   5905   5913   5916     1  0.0000000  1.0460000  1
   5902   5905   5913   5916     1  0.0000000  0.6694400  3
   5902   5901   5915   5919     1  0.0000000  0.6508444  3
   5902   5901   5915   5920     1  0.0000000  0.6508444  3
   5903   5901   5902   5905     1  0.0000000  0.6508444  3
   5903   5901   5902   5914     1  0.0000000  1.0460000  1
   5903   5901   5902   5914     1  0.0000000  0.0000000  3
   5903   5901   5902   5904     1  0.0000000  0.6508444  3
   5903   5901   5915   5921     1  0.0000000  1.0460000  1
   5903   5901   5915   5921     1  0.0000000  0.0000000  3
   5903   5901   5915   5919     1  0.0000000  0.6508444  3
   5903   5901   5915   5920     1  0.0000000  0.6508444  3
   5903   5901   5923   5907     1  0.0000000  1.6038667  3
   5904   5902   5905   5906     1  0.0000000  0.6508444  3
   5904   5902   5905   5913     1  0.0000000  1.0460000  1
   5904   5902   5905   5913     1  0.0000000  0.0000000  3
   5904   5902   5905   5909     1  0.0000000  0.6508444  3
   5904   5902   5914   5917     1  0.0000000  0.6973333  3
   5904   5902   5901   5915     1  0.0000000  0.6508444  3
   5904   5902   5901   5923     1  0.0000000  1.0460000  1
   5904   5902   5901   5923     1  0.0000000  0.0000000  3
   5905   5906   5907   5910     1  0.0000000  0.6508444  3
   5905   5906   5912   5918     1  0.0000000  1.0460000  1
   5905   5906   5912   5918     1  0.0000000  0.6694400  3
   5905   5902   5914   5917     1  0.0000000  1.0460000  1
   5905   5902   5914   5917     1  0.0000000  0.6694400  3
   5906   5905   5913   5916     1  0.0000000  1.0460000  1
   5906   5905   5913   5916     1  0.0000000  0.6694400  3
   5907   5906   5912   5918     1  0.0000000  1.0460000  1
   5907   5906   5912   5918     1  0.0000000  0.6694400  3
   5907   5906   5905   5909     1  0.0000000  0.6508444  3
   5908   5906   5907   5911     1  0.0000000  1.0460000  1
   5908   5906   5907   5911     1  0.0000000  0.0000000  3
   5908   5906   5907   5923     1  0.0000000  1.0460000  1
   5908   5906   5907   5923     1  0.0000000  0.0000000  3
   5908   5906   5907   5910     1  0.0000000  0.6508444  3
   5908   5906   5912   5918     1  0.0000000  0.6973333  3
   5908   5906   5905   5913     1  0.0000000  1.0460000  1
   5908   5906   5905   5913     1  0.0000000  0.0000000  3
   5908   5906   5905   5909     1  0.0000000  0.6508444  3
   5909   5905   5906   5912     1  0.0000000  1.0460000  1
   5909   5905   5906   5912     1  0.0000000  0.0000000  3
   5909   5905   5913   5916     1  0.0000000  0.6973333  3
   5909   5905   5902   5914     1  0.0000000  1.0460000  1
   5909   5905   5902   5914     1  0.0000000  0.0000000  3
   5910   5907   5906   5912     1  0.0000000  0.6508444  3
   5919   5915   5921   5922     1  0.0000000  0.6973333  3
   5919   5915   5901   5923     1  0.0000000  1.0460000  1
   5919   5915   5901   5923     1  0.0000000  0.0000000  3
   5920   5915   5921   5922     1  0.0000000  0.6973333  3
   5920   5915   5901   5923     1  0.0000000  1.0460000  1
   5920   5915   5901   5923     1  0.0000000  0.0000000  3
   5924   5925   5928   5932     1  0.0000000  0.6508444  3
   5924   5925   5937   5940     1  0.0000000  1.0460000  1
   5924   5925   5937   5940     1  0.0000000  0.6694400  3
   5924   5938   5944   5945     1  0.0000000  1.0460000  1
   5924   5938   5944   5945     1  0.0000000  0.6694400  3
   5924   5946   5930   5933     1  0.0000000  1.6038667  3
   5925   5924   5938   5942     1  0.0000000  0.6508444  3
   5925   5924   5938   5943     1  0.0000000  0.6508444  3
   5925   5928   5929   5931     1  0.0000000  0.6508444  3
   5925   5928   5936   5939     1  0.0000000  1.0460000  1
   5925   5928   5936   5939     1  0.0000000  0.6694400  3
   5926   5924   5925   5928     1  0.0000000  0.6508444  3
   5926   5924   5925   5937     1  0.0000000  1.0460000  1
   5926   5924   5925   5937     1  0.0000000  0.0000000  3
   5926   5924   5925   5927     1  0.0000000  0.6508444  3
   5926   5924   5938   5944     1  0.0000000  1.0460000  1
   5926   5924   5938   5944     1  0.0000000  0.0000000  3
   5926   5924   5938   5942     1  0.0000000  0.6508444  3
   5926   5924   5938   5943     1  0.0000000  0.6508444  3
   5926   5924   5946   5930     1  0.0000000  1.6038667  3
   5927   5925   5924   5938     1  0.0000000  0.6508444  3
   5927   5925   5924   5946     1  0.0000000  1.0460000  1
   5927   5925   5924   5946     1  0.0000000  0.0000000  3
   5927   5925   5928   5929     1  0.0000000  0.6508444  3
   5927   5925   5928   5936     1  0.0000000  1.0460000  1
   5927   5925   5928   5936     1  0.0000000  0.0000000  3
   5927   5925   5928   5932     1  0.0000000  0.6508444  3
   5927   5925   5937   5940     1  0.0000000  0.6973333  3
   5928   5925   5937   5940     1  0.0000000  1.0460000  1
   5928   5925   5937   5940     1  0.0000000  0.6694400  3
   5928   5929   5930   5933     1  0.0000000  0.6508444  3
   5928   5929   5935   5941     1  0.0000000  1.0460000  1
   5928   5929   5935   5941     1  0.0000000  0.6694400  3
   5929   5928   5936   5939     1  0.0000000  1.0460000  1
   5929   5928   5936   5939     1  0.0000000  0.6694400  3
   5930   5929   5928   5932     1  0.0000000  0.6508444  3
   5930   5929   5935   5941     1  0.0000000  1.0460000  1
   5930   5929   5935   5941     1  0.0000000  0.6694400  3
   5931   5929   5928   5936     1  0.0000000  1.0460000  1
   5931   5929   5928   5936     1  0.0000000  0.0000000  3
   5931   5929   5928   5932     1  0.0000000  0.6508444  3
   5931   5929   5930   5934     1  0.0000000  1.0460000  1
   5931   5929   5930   5934     1  0.0000000  0.0000000  3
   5931   5929   5930   5946     1  0.0000000  1.0460000  1
   5931   5929   5930   5946     1  0.0000000  0.0000000  3
   5931   5929   5930   5933     1  0.0000000  0.6508444  3
   5931   5929   5935   5941     1  0.0000000  0.6973333  3
   5932   5928   5925   5937     1  0.0000000  1.0460000  1
   5932   5928   5925   5937     1  0.0000000  0.0000000  3
   5932   5928   5929   5935     1  0.0000000  1.0460000  1
   5932   5928   5929   5935     1  0.0000000  0.0000000  3
   5932   5928   5936   5939     1  0.0000000  0.6973333  3
   5933   5930   5929   5935     1  0.0000000  0.6508444  3
   5942   5938   5924   5946     1  0.0000000  1.0460000  1
   5942   5938   5924   5946     1  0.0000000  0.0000000  3
   5942   5938   5944   5945     1  0.0000000  0.6973333  3
   5943   5938   5924   5946     1  0.0000000  1.0460000  1
   5943   5938   5924   5946     1  0.0000000  0.0000000  3
   5943   5938   5944   5945     1  0.0000000  0.6973333  3
   5947   5948   5951   5955     1  0.0000000  0.6508444  3
   5947   5948   5960   5963     1  0.0000000  1.0460000  1
   5947   5948   5960   5963     1  0.0000000  0.6694400  3
   5947   5961   5967   5968     1  0.0000000  1.0460000  1
   5947   5961   5967   5968     1  0.0000000  0.6694400  3
   5947   5969   5953   5956     1  0.0000000  1.6038667  3
   5948   5951   5952   5954     1  0.0000000  0.6508444  3
   5948   5951   5959   5962     1  0.0000000  1.0460000  1
   5948   5951   5959   5962     1  0.0000000  0.6694400  3
   5948   5947   5961   5965     1  0.0000000  0.6508444  3
   5948   5947   5961   5966     1  0.0000000  0.6508444  3
   5949   5947   5948   5951     1  0.0000000  0.6508444  3
   5949   5947   5948   5960     1  0.0000000  1.0460000  1
   5949   5947   5948   5960     1  0.0000000  0.0000000  3
   5949   5947   5948   5950     1  0.0000000  0.6508444  3
   5949   5947   5961   5967     1  0.0000000  1.0460000  1
   5949   5947   5961   5967     1  0.0000000  0.0000000  3
   5949   5947   5961   5965     1  0.0000000  0.6508444  3
   5949   5947   5961   5966     1  0.0000000  0.6508444  3
   5949   5947   5969   5953     1  0.0000000  1.6038667  3
   5950   5948   5951   5952     1  0.0000000  0.6508444  3
   5950   5948   5951   5959     1  0.0000000  1.0460000  1
   5950   5948   5951   5959     1  0.0000000  0.0000000  3
   5950   5948   5951   5955     1  0.0000000  0.6508444  3
   5950   5948   5960   5963     1  0.0000000  0.6973333  3
   5950   5948   5947   5961     1  0.0000000  0.6508444  3
   5950   5948   5947   5969     1  0.0000000  1.0460000  1
   5950   5948   5947   5969     1  0.0000000  0.0000000  3
   5951   5952   5953   5956     1  0.0000000  0.6508444  3
   5951   5952   5958   5964     1  0.0000000  1.0460000  1
   5951   5952   5958   5964     1  0.0000000  0.6694400  3
   5951   5948   5960   5963     1  0.0000000  1.0460000  1
   5951   5948   5960   5963     1  0.0000000  0.6694400  3
   5952   5951   5959   5962     1  0.0000000  1.0460000  1
   5952   5951   5959   5962     1  0.0000000  0.6694400  3
   5953   5952   5958   5964     1  0.0000000  1.0460000  1
   5953   5952   5958   5964     1  0.0000000  0.6694400  3
   5953   5952   5951   5955     1  0.0000000  0.6508444  3
   5954   5952   5953   5957     1  0.0000000  1.0460000  1
   5954   5952   5953   5957     1  0.0000000  0.0000000  3
   5954   5952   5953   5969     1  0.0000000  1.0460000  1
   5954   5952   5953   5969     1  0.0000000  0.0000000  3
   5954   5952   5953   5956     1  0.0000000  0.6508444  3
   5954   5952   5958   5964     1  0.0000000  0.6973333  3
   5954   5952   5951   5959     1  0.0000000  1.0460000  1
   5954   5952   5951   5959     1  0.0000000  0.0000000  3
   5954   5952   5951   5955     1  0.0000000  0.6508444  3
   5955   5951   5952   5958     1  0.0000000  1.0460000  1
   5955   5951   5952   5958     1  0.0000000  0.0000000  3
   5955   5951   5959   5962     1  0.0000000  0.6973333  3
   5955   5951   5948   5960     1  0.0000000  1.0460000  1
   5955   5951   5948   5960     1  0.0000000  0.0000000  3
   5956   5953   5952   5958     1  0.0000000  0.6508444  3
   5965   5961   5967   5968     1  0.0000000  0.6973333  3
   5965   5961   5947   5969     1  0.0000000  1.0460000  1
   5965   5961   5947   5969     1  0.0000000  0.0000000  3
   5966   5961   5967   5968     1  0.0000000  0.6973333  3
   5966   5961   5947   5969     1  0.0000000  1.0460000  1
   5966   5961   5947   5969     1  0.0000000  0.0000000  3
   5970   5971   5974   5978     1  0.0000000  0.6508444  3
   5970   5971   5983   5986     1  0.0000000  1.0460000  1
   5970   5971   5983   5986     1  0.0000000  0.6694400  3
   5970   5984   5990   5991     1  0.0000000  1.0460000  1
   5970   5984   5990   5991     1  0.0000000  0.6694400  3
   5970   5992   5976   5979     1  0.0000000  1.6038667  3
   5971   5970   5984   5988     1  0.0000000  0.6508444  3
   5971   5970   5984   5989     1  0.0000000  0.6508444  3
   5971   5974   5975   5977     1  0.0000000  0.6508444  3
   5971   5974   5982   5985     1  0.0000000  1.0460000  1
   5971   5974   5982   5985     1  0.0000000  0.6694400  3
   5972   5970   5971   5974     1  0.0000000  0.6508444  3
   5972   5970   5971   5983     1  0.0000000  1.0460000  1
   5972   5970   5971   5983     1  0.0000000  0.0000000  3
   5972   5970   5971   5973     1  0.0000000  0.6508444  3
   5972   5970   5984   5990     1  0.0000000  1.0460000  1
   5972   5970   5984   5990     1  0.0000000  0.0000000  3
   5972   5970   5984   5988     1  0.0000000  0.6508444  3
   5972   5970   5984   5989     1  0.0000000  0.6508444  3
   5972   5970   5992   5976     1  0.0000000  1.6038667  3
   5973   5971   5970   5984     1  0.0000000  0.6508444  3
   5973   5971   5970   5992     1  0.0000000  1.0460000  1
   5973   5971   5970   5992     1  0.0000000  0.0000000  3
   5973   5971   5974   5975     1  0.0000000  0.6508444  3
   5973   5971   5974   5982     1  0.0000000  1.0460000  1
   5973   5971   5974   5982     1  0.0000000  0.0000000  3
   5973   5971   5974   5978     1  0.0000000  0.6508444  3
   5973   5971   5983   5986     1  0.0000000  0.6973333  3
   5974   5971   5983   5986     1  0.0000000  1.0460000  1
   5974   5971   5983   5986     1  0.0000000  0.6694400  3
   5974   5975   5976   5979     1  0.0000000  0.6508444  3
   5974   5975   5981   5987     1  0.0000000  1.0460000  1
   5974   5975   5981   5987     1  0.0000000  0.6694400  3
   5975   5974   5982   5985     1  0.0000000  1.0460000  1
   5975   5974   5982   5985     1  0.0000000  0.6694400  3
   5976   5975   5974   5978     1  0.0000000  0.6508444  3
   5976   5975   5981   5987     1  0.0000000  1.0460000  1
   5976   5975   5981   5987     1  0.0000000  0.6694400  3
   5977   5975   5974   5982     1  0.0000000  1.0460000  1
   5977   5975   5974   5982     1  0.0000000  0.0000000  3
   5977   5975   5974   5978     1  0.0000000  0.6508444  3
   5977   5975   5976   5980     1  0.0000000  1.0460000  1
   5977   5975   5976   5980     1  0.0000000  0.0000000  3
   5977   5975   5976   5992     1  0.0000000  1.0460000  1
   5977   5975   5976   5992     1  0.0000000  0.0000000  3
   5977   5975   5976   5979     1  0.0000000  0.6508444  3
   5977   5975   5981   5987     1  0.0000000  0.6973333  3
   5978   5974   5971   5983     1  0.0000000  1.0460000  1
   5978   5974   5971   5983     1  0.0000000  0.0000000  3
   5978   5974   5975   5981     1  0.0000000  1.0460000  1
   5978   5974   5975   5981     1  0.0000000  0.0000000  3
   5978   5974   5982   5985     1  0.0000000  0.6973333  3
   5979   5976   5975   5981     1  0.0000000  0.6508444  3
   5988   5984   5970   5992     1  0.0000000  1.0460000  1
   5988   5984   5970   5992     1  0.0000000  0.0000000  3
   5988   5984   5990   5991     1  0.0000000  0.6973333  3
   5989   5984   5970   5992     1  0.0000000  1.0460000  1
   5989   5984   5970   5992     1  0.0000000  0.0000000  3
   5989   5984   5990   5991     1  0.0000000  0.6973333  3
   5993   5994   5997   6001     1  0.0000000  0.6508444  3
   5993   5994   6006   6009     1  0.0000000  1.0460000  1
   5993   5994   6006   6009     1  0.0000000  0.6694400  3
   5993   6007   6013   6014     1  0.0000000  1.0460000  1
   5993   6007   6013   6014     1  0.0000000  0.6694400  3
   5993   6015   5999   6002     1  0.0000000  1.6038667  3
   5994   5997   5998   6000     1  0.0000000  0.6508444  3
   5994   5997   6005   6008     1  0.0000000  1.0460000  1
   5994   5997   6005   6008     1  0.0000000  0.6694400  3
   5994   5993   6007   6011     1  0.0000000  0.6508444  3
   5994   5993   6007   6012     1  0.0000000  0.6508444  3
   5995   5993   5994   5997     1  0.0000000  0.6508444  3
   5995   5993   5994   6006     1  0.0000000  1.0460000  1
   5995   5993   5994   6006     1  0.0000000  0.0000000  3
   5995   5993   5994   5996     1  0.0000000  0.6508444  3
   5995   5993   6007   6013     1  0.0000000  1.0460000  1
   5995   5993   6007   6013     1  0.0000000  0.0000000  3
   5995   5993   6007   6011     1  0.0000000  0.6508444  3
   5995   5993   6007   6012     1  0.0000000  0.6508444  3
   5995   5993   6015   5999     1  0.0000000  1.6038667  3
   5996   5994   5997   5998     1  0.0000000  0.6508444  3
   5996   5994   5997   6005     1  0.0000000  1.0460000  1
   5996   5994   5997   6005     1  0.0000000  0.0000000  3
   5996   5994   5997   6001     1  0.0000000  0.6508444  3
   5996   5994   6006   6009     1  0.0000000  0.6973333  3
   5996   5994   5993   6007     1  0.0000000  0.6508444  3
   5996   5994   5993   6015     1  0.0000000  1.0460000  1
   5996   5994   5993   6015     1  0.0000000  0.0000000  3
   5997   5998   5999   6002     1  0.0000000  0.6508444  3
   5997   5998   6004   6010     1  0.0000000  1.0460000  1
   5997   5998   6004   6010     1  0.0000000  0.6694400  3
   5997   5994   6006   6009     1  0.0000000  1.0460000  1
   5997   5994   6006   6009     1  0.0000000  0.6694400  3
   5998   5997   6005   6008     1  0.0000000  1.0460000  1
   5998   5997   6005   6008     1  0.0000000  0.6694400  3
   5999   5998   6004   6010     1  0.0000000  1.0460000  1
   5999   5998   6004   6010     1  0.0000000  0.6694400  3
   5999   5998   5997   6001     1  0.0000000  0.6508444  3
   6000   5998   5999   6003     1  0.0000000  1.0460000  1
   6000   5998   5999   6003     1  0.0000000  0.0000000  3
   6000   5998   5999   6015     1  0.0000000  1.0460000  1
   6000   5998   5999   6015     1  0.0000000  0.0000000  3
   6000   5998   5999   6002     1  0.0000000  0.6508444  3
   6000   5998   6004   6010     1  0.0000000  0.6973333  3
   6000   5998   5997   6005     1  0.0000000  1.0460000  1
   6000   5998   5997   6005     1  0.0000000  0.0000000  3
   6000   5998   5997   6001     1  0.0000000  0.6508444  3
   6001   5997   5998   6004     1  0.0000000  1.0460000  1
   6001   5997   5998   6004     1  0.0000000  0.0000000  3
   6001   5997   6005   6008     1  0.0000000  0.6973333  3
   6001   5997   5994   6006     1  0.0000000  1.0460000  1
   6001   5997   5994   6006     1  0.0000000  0.0000000  3
   6002   5999   5998   6004     1  0.0000000  0.6508444  3
   6011   6007   6013   6014     1  0.0000000  0.6973333  3
   6011   6007   5993   6015     1  0.0000000  1.0460000  1
   6011   6007   5993   6015     1  0.0000000  0.0000000  3
   6012   6007   6013   6014     1  0.0000000  0.6973333  3
   6012   6007   5993   6015     1  0.0000000  1.0460000  1
   6012   6007   5993   6015     1  0.0000000  0.0000000  3
   6016   6017   6020   6024     1  0.0000000  0.6508444  3
   6016   6017   6029   6032     1  0.0000000  1.0460000  1
   6016   6017   6029   6032     1  0.0000000  0.6694400  3
   6016   6030   6036   6037     1  0.0000000  1.0460000  1
   6016   6030   6036   6037     1  0.0000000  0.6694400  3
   6016   6038   6022   6025     1  0.0000000  1.6038667  3
   6017   6016   6030   6034     1  0.0000000  0.6508444  3
   6017   6016   6030   6035     1  0.0000000  0.6508444  3
   6017   6020   6021   6023     1  0.0000000  0.6508444  3
   6017   6020   6028   6031     1  0.0000000  1.0460000  1
   6017   6020   6028   6031     1  0.0000000  0.6694400  3
   6018   6016   6017   6020     1  0.0000000  0.6508444  3
   6018   6016   6017   6029     1  0.0000000  1.0460000  1
   6018   6016   6017   6029     1  0.0000000  0.0000000  3
   6018   6016   6017   6019     1  0.0000000  0.6508444  3
   6018   6016   6030   6036     1  0.0000000  1.0460000  1
   6018   6016   6030   6036     1  0.0000000  0.0000000  3
   6018   6016   6030   6034     1  0.0000000  0.6508444  3
   6018   6016   6030   6035     1  0.0000000  0.6508444  3
   6018   6016   6038   6022     1  0.0000000  1.6038667  3
   6019   6017   6016   6030     1  0.0000000  0.6508444  3
   6019   6017   6016   6038     1  0.0000000  1.0460000  1
   6019   6017   6016   6038     1  0.0000000  0.0000000  3
   6019   6017   6020   6021     1  0.0000000  0.6508444  3
   6019   6017   6020   6028     1  0.0000000  1.0460000  1
   6019   6017   6020   6028     1  0.0000000  0.0000000  3
   6019   6017   6020   6024     1  0.0000000  0.6508444  3
   6019   6017   6029   6032     1  0.0000000  0.6973333  3
   6020   6017   6029   6032     1  0.0000000  1.0460000  1
   6020   6017   6029   6032     1  0.0000000  0.6694400  3
   6020   6021   6022   6025     1  0.0000000  0.6508444  3
   6020   6021   6027   6033     1  0.0000000  1.0460000  1
   6020   6021   6027   6033     1  0.0000000  0.6694400  3
   6021   6020   6028   6031     1  0.0000000  1.0460000  1
   6021   6020   6028   6031     1  0.0000000  0.6694400  3
   6022   6021   6020   6024     1  0.0000000  0.6508444  3
   6022   6021   6027   6033     1  0.0000000  1.0460000  1
   6022   6021   6027   6033     1  0.0000000  0.6694400  3
   6023   6021   6020   6028     1  0.0000000  1.0460000  1
   6023   6021   6020   6028     1  0.0000000  0.0000000  3
   6023   6021   6020   6024     1  0.0000000  0.6508444  3
   6023   6021   6022   6026     1  0.0000000  1.0460000  1
   6023   6021   6022   6026     1  0.0000000  0.0000000  3
   6023   6021   6022   6038     1  0.0000000  1.0460000  1
   6023   6021   6022   6038     1  0.0000000  0.0000000  3
   6023   6021   6022   6025     1  0.0000000  0.6508444  3
   6023   6021   6027   6033     1  0.0000000  0.6973333  3
   6024   6020   6017   6029     1  0.0000000  1.0460000  1
   6024   6020   6017   6029     1  0.0000000  0.0000000  3
   6024   6020   6021   6027     1  0.0000000  1.0460000  1
   6024   6020   6021   6027     1  0.0000000  0.0000000  3
   6024   6020   6028   6031     1  0.0000000  0.6973333  3
   6025   6022   6021   6027     1  0.0000000  0.6508444  3
   6034   6030   6016   6038     1  0.0000000  1.0460000  1
   6034   6030   6016   6038     1  0.0000000  0.0000000  3
   6034   6030   6036   6037     1  0.0000000  0.6973333  3
   6035   6030   6016   6038     1  0.0000000  1.0460000  1
   6035   6030   6016   6038     1  0.0000000  0.0000000  3
   6035   6030   6036   6037     1  0.0000000  0.6973333  3
   6039   6040   6043   6047     1  0.0000000  0.6508444  3
   6039   6040   6052   6055     1  0.0000000  1.0460000  1
   6039   6040   6052   6055     1  0.0000000  0.6694400  3
   6039   6053   6059   6060     1  0.0000000  1.0460000  1
   6039   6053   6059   6060     1  0.0000000  0.6694400  3
   6039   6061   6045   6048     1  0.0000000  1.6038667  3
   6040   6043   6044   6046     1  0.0000000  0.6508444  3
   6040   6043   6051   6054     1  0.0000000  1.0460000  1
   6040   6043   6051   6054     1  0.0000000  0.6694400  3
   6040   6039   6053   6057     1  0.0000000  0.6508444  3
   6040   6039   6053   6058     1  0.0000000  0.6508444  3
   6041   6039   6040   6043     1  0.0000000  0.6508444  3
   6041   6039   6040   6052     1  0.0000000  1.0460000  1
   6041   6039   6040   6052     1  0.0000000  0.0000000  3
   6041   6039   6040   6042     1  0.0000000  0.6508444  3
   6041   6039   6053   6059     1  0.0000000  1.0460000  1
   6041   6039   6053   6059     1  0.0000000  0.0000000  3
   6041   6039   6053   6057     1  0.0000000  0.6508444  3
   6041   6039   6053   6058     1  0.0000000  0.6508444  3
   6041   6039   6061   6045     1  0.0000000  1.6038667  3
   6042   6040   6043   6044     1  0.0000000  0.6508444  3
   6042   6040   6043   6051     1  0.0000000  1.0460000  1
   6042   6040   6043   6051     1  0.0000000  0.0000000  3
   6042   6040   6043   6047     1  0.0000000  0.6508444  3
   6042   6040   6052   6055     1  0.0000000  0.6973333  3
   6042   6040   6039   6053     1  0.0000000  0.6508444  3
   6042   6040   6039   6061     1  0.0000000  1.0460000  1
   6042   6040   6039   6061     1  0.0000000  0.0000000  3
   6043   6044   6045   6048     1  0.0000000  0.6508444  3
   6043   6044   6050   6056     1  0.0000000  1.0460000  1
   6043   6044   6050   6056     1  0.0000000  0.6694400  3
   6043   6040   6052   6055     1  0.0000000  1.0460000  1
   6043   6040   6052   6055     1  0.0000000  0.6694400  3
   6044   6043   6051   6054     1  0.0000000  1.0460000  1
   6044   6043   6051   6054     1  0.0000000  0.6694400  3
   6045   6044   6050   6056     1  0.0000000  1.0460000  1
   6045   6044   6050   6056     1  0.0000000  0.6694400  3
   6045   6044   6043   6047     1  0.0000000  0.6508444  3
   6046   6044   6045   6049     1  0.0000000  1.0460000  1
   6046   6044   6045   6049     1  0.0000000  0.0000000  3
   6046   6044   6045   6061     1  0.0000000  1.0460000  1
   6046   6044   6045   6061     1  0.0000000  0.0000000  3
   6046   6044   6045   6048     1  0.0000000  0.6508444  3
   6046   6044   6050   6056     1  0.0000000  0.6973333  3
   6046   6044   6043   6051     1  0.0000000  1.0460000  1
   6046   6044   6043   6051     1  0.0000000  0.0000000  3
   6046   6044   6043   6047     1  0.0000000  0.6508444  3
   6047   6043   6044   6050     1  0.0000000  1.0460000  1
   6047   6043   6044   6050     1  0.0000000  0.0000000  3
   6047   6043   6051   6054     1  0.0000000  0.6973333  3
   6047   6043   6040   6052     1  0.0000000  1.0460000  1
   6047   6043   6040   6052     1  0.0000000  0.0000000  3
   6048   6045   6044   6050     1  0.0000000  0.6508444  3
   6057   6053   6059   6060     1  0.0000000  0.6973333  3
   6057   6053   6039   6061     1  0.0000000  1.0460000  1
   6057   6053   6039   6061     1  0.0000000  0.0000000  3
   6058   6053   6059   6060     1  0.0000000  0.6973333  3
   6058   6053   6039   6061     1  0.0000000  1.0460000  1
   6058   6053   6039   6061     1  0.0000000  0.0000000  3
   6062   6063   6066   6070     1  0.0000000  0.6508444  3
   6062   6063   6075   6078     1  0.0000000  1.0460000  1
   6062   6063   6075   6078     1  0.0000000  0.6694400  3
   6062   6076   6082   6083     1  0.0000000  1.0460000  1
   6062   6076   6082   6083     1  0.0000000  0.6694400  3
   6062   6084   6068   6071     1  0.0000000  1.6038667  3
   6063   6062   6076   6080     1  0.0000000  0.6508444  3
   6063   6062   6076   6081     1  0.0000000  0.6508444  3
   6063   6066   6067   6069     1  0.0000000  0.6508444  3
   6063   6066   6074   6077     1  0.0000000  1.0460000  1
   6063   6066   6074   6077     1  0.0000000  0.6694400  3
   6064   6062   6063   6066     1  0.0000000  0.6508444  3
   6064   6062   6063   6075     1  0.0000000  1.0460000  1
   6064   6062   6063   6075     1  0.0000000  0.0000000  3
   6064   6062   6063   6065     1  0.0000000  0.6508444  3
   6064   6062   6076   6082     1  0.0000000  1.0460000  1
   6064   6062   6076   6082     1  0.0000000  0.0000000  3
   6064   6062   6076   6080     1  0.0000000  0.6508444  3
   6064   6062   6076   6081     1  0.0000000  0.6508444  3
   6064   6062   6084   6068     1  0.0000000  1.6038667  3
   6065   6063   6062   6076     1  0.0000000  0.6508444  3
   6065   6063   6062   6084     1  0.0000000  1.0460000  1
   6065   6063   6062   6084     1  0.0000000  0.0000000  3
   6065   6063   6066   6067     1  0.0000000  0.6508444  3
   6065   6063   6066   6074     1  0.0000000  1.0460000  1
   6065   6063   6066   6074     1  0.0000000  0.0000000  3
   6065   6063   6066   6070     1  0.0000000  0.6508444  3
   6065   6063   6075   6078     1  0.0000000  0.6973333  3
   6066   6063   6075   6078     1  0.0000000  1.0460000  1
   6066   6063   6075   6078     1  0.0000000  0.6694400  3
   6066   6067   6068   6071     1  0.0000000  0.6508444  3
   6066   6067   6073   6079     1  0.0000000  1.0460000  1
   6066   6067   6073   6079     1  0.0000000  0.6694400  3
   6067   6066   6074   6077     1  0.0000000  1.0460000  1
   6067   6066   6074   6077     1  0.0000000  0.6694400  3
   6068   6067   6066   6070     1  0.0000000  0.6508444  3
   6068   6067   6073   6079     1  0.0000000  1.0460000  1
   6068   6067   6073   6079     1  0.0000000  0.6694400  3
   6069   6067   6066   6074     1  0.0000000  1.0460000  1
   6069   6067   6066   6074     1  0.0000000  0.0000000  3
   6069   6067   6066   6070     1  0.0000000  0.6508444  3
   6069   6067   6068   6072     1  0.0000000  1.0460000  1
   6069   6067   6068   6072     1  0.0000000  0.0000000  3
   6069   6067   6068   6084     1  0.0000000  1.0460000  1
   6069   6067   6068   6084     1  0.0000000  0.0000000  3
   6069   6067   6068   6071     1  0.0000000  0.6508444  3
   6069   6067   6073   6079     1  0.0000000  0.6973333  3
   6070   6066   6063   6075     1  0.0000000  1.0460000  1
   6070   6066   6063   6075     1  0.0000000  0.0000000  3
   6070   6066   6067   6073     1  0.0000000  1.0460000  1
   6070   6066   6067   6073     1  0.0000000  0.0000000  3
   6070   6066   6074   6077     1  0.0000000  0.6973333  3
   6071   6068   6067   6073     1  0.0000000  0.6508444  3
   6080   6076   6062   6084     1  0.0000000  1.0460000  1
   6080   6076   6062   6084     1  0.0000000  0.0000000  3
   6080   6076   6082   6083     1  0.0000000  0.6973333  3
   6081   6076   6062   6084     1  0.0000000  1.0460000  1
   6081   6076   6062   6084     1  0.0000000  0.0000000  3
   6081   6076   6082   6083     1  0.0000000  0.6973333  3
   6085   6086   6089   6093     1  0.0000000  0.6508444  3
   6085   6086   6098   6101     1  0.0000000  1.0460000  1
   6085   6086   6098   6101     1  0.0000000  0.6694400  3
   6085   6099   6105   6106     1  0.0000000  1.0460000  1
   6085   6099   6105   6106     1  0.0000000  0.6694400  3
   6085   6107   6091   6094     1  0.0000000  1.6038667  3
   6086   6089   6090   6092     1  0.0000000  0.6508444  3
   6086   6089   6097   6100     1  0.0000000  1.0460000  1
   6086   6089   6097   6100     1  0.0000000  0.6694400  3
   6086   6085   6099   6103     1  0.0000000  0.6508444  3
   6086   6085   6099   6104     1  0.0000000  0.6508444  3
   6087   6085   6086   6089     1  0.0000000  0.6508444  3
   6087   6085   6086   6098     1  0.0000000  1.0460000  1
   6087   6085   6086   6098     1  0.0000000  0.0000000  3
   6087   6085   6086   6088     1  0.0000000  0.6508444  3
   6087   6085   6099   6105     1  0.0000000  1.0460000  1
   6087   6085   6099   6105     1  0.0000000  0.0000000  3
   6087   6085   6099   6103     1  0.0000000  0.6508444  3
   6087   6085   6099   6104     1  0.0000000  0.6508444  3
   6087   6085   6107   6091     1  0.0000000  1.6038667  3
   6088   6086   6089   6090     1  0.0000000  0.6508444  3
   6088   6086   6089   6097     1  0.0000000  1.0460000  1
   6088   6086   6089   6097     1  0.0000000  0.0000000  3
   6088   6086   6089   6093     1  0.0000000  0.6508444  3
   6088   6086   6098   6101     1  0.0000000  0.6973333  3
   6088   6086   6085   6099     1  0.0000000  0.6508444  3
   6088   6086   6085   6107     1  0.0000000  1.0460000  1
   6088   6086   6085   6107     1  0.0000000  0.0000000  3
   6089   6090   6091   6094     1  0.0000000  0.6508444  3
   6089   6090   6096   6102     1  0.0000000  1.0460000  1
   6089   6090   6096   6102     1  0.0000000  0.6694400  3
   6089   6086   6098   6101     1  0.0000000  1.0460000  1
   6089   6086   6098   6101     1  0.0000000  0.6694400  3
   6090   6089   6097   6100     1  0.0000000  1.0460000  1
   6090   6089   6097   6100     1  0.0000000  0.6694400  3
   6091   6090   6096   6102     1  0.0000000  1.0460000  1
   6091   6090   6096   6102     1  0.0000000  0.6694400  3
   6091   6090   6089   6093     1  0.0000000  0.6508444  3
   6092   6090   6091   6095     1  0.0000000  1.0460000  1
   6092   6090   6091   6095     1  0.0000000  0.0000000  3
   6092   6090   6091   6107     1  0.0000000  1.0460000  1
   6092   6090   6091   6107     1  0.0000000  0.0000000  3
   6092   6090   6091   6094     1  0.0000000  0.6508444  3
   6092   6090   6096   6102     1  0.0000000  0.6973333  3
   6092   6090   6089   6097     1  0.0000000  1.0460000  1
   6092   6090   6089   6097     1  0.0000000  0.0000000  3
   6092   6090   6089   6093     1  0.0000000  0.6508444  3
   6093   6089   6090   6096     1  0.0000000  1.0460000  1
   6093   6089   6090   6096     1  0.0000000  0.0000000  3
   6093   6089   6097   6100     1  0.0000000  0.6973333  3
   6093   6089   6086   6098     1  0.0000000  1.0460000  1
   6093   6089   6086   6098     1  0.0000000  0.0000000  3
   6094   6091   6090   6096     1  0.0000000  0.6508444  3
   6103   6099   6105   6106     1  0.0000000  0.6973333  3
   6103   6099   6085   6107     1  0.0000000  1.0460000  1
   6103   6099   6085   6107     1  0.0000000  0.0000000  3
   6104   6099   6105   6106     1  0.0000000  0.6973333  3
   6104   6099   6085   6107     1  0.0000000  1.0460000  1
   6104   6099   6085   6107     1  0.0000000  0.0000000  3
   6108   6109   6112   6116     1  0.0000000  0.6508444  3
   6108   6109   6121   6124     1  0.0000000  1.0460000  1
   6108   6109   6121   6124     1  0.0000000  0.6694400  3
   6108   6122   6128   6129     1  0.0000000  1.0460000  1
   6108   6122   6128   6129     1  0.0000000  0.6694400  3
   6108   6130   6114   6117     1  0.0000000  1.6038667  3
   6109   6108   6122   6126     1  0.0000000  0.6508444  3
   6109   6108   6122   6127     1  0.0000000  0.6508444  3
   6109   6112   6113   6115     1  0.0000000  0.6508444  3
   6109   6112   6120   6123     1  0.0000000  1.0460000  1
   6109   6112   6120   6123     1  0.0000000  0.6694400  3
   6110   6108   6109   6112     1  0.0000000  0.6508444  3
   6110   6108   6109   6121     1  0.0000000  1.0460000  1
   6110   6108   6109   6121     1  0.0000000  0.0000000  3
   6110   6108   6109   6111     1  0.0000000  0.6508444  3
   6110   6108   6122   6128     1  0.0000000  1.0460000  1
   6110   6108   6122   6128     1  0.0000000  0.0000000  3
   6110   6108   6122   6126     1  0.0000000  0.6508444  3
   6110   6108   6122   6127     1  0.0000000  0.6508444  3
   6110   6108   6130   6114     1  0.0000000  1.6038667  3
   6111   6109   6108   6122     1  0.0000000  0.6508444  3
   6111   6109   6108   6130     1  0.0000000  1.0460000  1
   6111   6109   6108   6130     1  0.0000000  0.0000000  3
   6111   6109   6112   6113     1  0.0000000  0.6508444  3
   6111   6109   6112   6120     1  0.0000000  1.0460000  1
   6111   6109   6112   6120     1  0.0000000  0.0000000  3
   6111   6109   6112   6116     1  0.0000000  0.6508444  3
   6111   6109   6121   6124     1  0.0000000  0.6973333  3
   6112   6109   6121   6124     1  0.0000000  1.0460000  1
   6112   6109   6121   6124     1  0.0000000  0.6694400  3
   6112   6113   6114   6117     1  0.0000000  0.6508444  3
   6112   6113   6119   6125     1  0.0000000  1.0460000  1
   6112   6113   6119   6125     1  0.0000000  0.6694400  3
   6113   6112   6120   6123     1  0.0000000  1.0460000  1
   6113   6112   6120   6123     1  0.0000000  0.6694400  3
   6114   6113   6112   6116     1  0.0000000  0.6508444  3
   6114   6113   6119   6125     1  0.0000000  1.0460000  1
   6114   6113   6119   6125     1  0.0000000  0.6694400  3
   6115   6113   6112   6120     1  0.0000000  1.0460000  1
   6115   6113   6112   6120     1  0.0000000  0.0000000  3
   6115   6113   6112   6116     1  0.0000000  0.6508444  3
   6115   6113   6114   6118     1  0.0000000  1.0460000  1
   6115   6113   6114   6118     1  0.0000000  0.0000000  3
   6115   6113   6114   6130     1  0.0000000  1.0460000  1
   6115   6113   6114   6130     1  0.0000000  0.0000000  3
   6115   6113   6114   6117     1  0.0000000  0.6508444  3
   6115   6113   6119   6125     1  0.0000000  0.6973333  3
   6116   6112   6109   6121     1  0.0000000  1.0460000  1
   6116   6112   6109   6121     1  0.0000000  0.0000000  3
   6116   6112   6113   6119     1  0.0000000  1.0460000  1
   6116   6112   6113   6119     1  0.0000000  0.0000000  3
   6116   6112   6120   6123     1  0.0000000  0.6973333  3
   6117   6114   6113   6119     1  0.0000000  0.6508444  3
   6126   6122   6108   6130     1  0.0000000  1.0460000  1
   6126   6122   6108   6130     1  0.0000000  0.0000000  3
   6126   6122   6128   6129     1  0.0000000  0.6973333  3
   6127   6122   6108   6130     1  0.0000000  1.0460000  1
   6127   6122   6108   6130     1  0.0000000  0.0000000  3
   6127   6122   6128   6129     1  0.0000000  0.6973333  3
   6131   6132   6135   6139     1  0.0000000  0.6508444  3
   6131   6132   6144   6147     1  0.0000000  1.0460000  1
   6131   6132   6144   6147     1  0.0000000  0.6694400  3
   6131   6145   6151   6152     1  0.0000000  1.0460000  1
   6131   6145   6151   6152     1  0.0000000  0.6694400  3
   6131   6153   6137   6140     1  0.0000000  1.6038667  3
   6132   6135   6136   6138     1  0.0000000  0.6508444  3
   6132   6135   6143   6146     1  0.0000000  1.0460000  1
   6132   6135   6143   6146     1  0.0000000  0.6694400  3
   6132   6131   6145   6149     1  0.0000000  0.6508444  3
   6132   6131   6145   6150     1  0.0000000  0.6508444  3
   6133   6131   6132   6135     1  0.0000000  0.6508444  3
   6133   6131   6132   6144     1  0.0000000  1.0460000  1
   6133   6131   6132   6144     1  0.0000000  0.0000000  3
   6133   6131   6132   6134     1  0.0000000  0.6508444  3
   6133   6131   6145   6151     1  0.0000000  1.0460000  1
   6133   6131   6145   6151     1  0.0000000  0.0000000  3
   6133   6131   6145   6149     1  0.0000000  0.6508444  3
   6133   6131   6145   6150     1  0.0000000  0.6508444  3
   6133   6131   6153   6137     1  0.0000000  1.6038667  3
   6134   6132   6135   6136     1  0.0000000  0.6508444  3
   6134   6132   6135   6143     1  0.0000000  1.0460000  1
   6134   6132   6135   6143     1  0.0000000  0.0000000  3
   6134   6132   6135   6139     1  0.0000000  0.6508444  3
   6134   6132   6144   6147     1  0.0000000  0.6973333  3
   6134   6132   6131   6145     1  0.0000000  0.6508444  3
   6134   6132   6131   6153     1  0.0000000  1.0460000  1
   6134   6132   6131   6153     1  0.0000000  0.0000000  3
   6135   6136   6137   6140     1  0.0000000  0.6508444  3
   6135   6136   6142   6148     1  0.0000000  1.0460000  1
   6135   6136   6142   6148     1  0.0000000  0.6694400  3
   6135   6132   6144   6147     1  0.0000000  1.0460000  1
   6135   6132   6144   6147     1  0.0000000  0.6694400  3
   6136   6135   6143   6146     1  0.0000000  1.0460000  1
   6136   6135   6143   6146     1  0.0000000  0.6694400  3
   6137   6136   6142   6148     1  0.0000000  1.0460000  1
   6137   6136   6142   6148     1  0.0000000  0.6694400  3
   6137   6136   6135   6139     1  0.0000000  0.6508444  3
   6138   6136   6137   6141     1  0.0000000  1.0460000  1
   6138   6136   6137   6141     1  0.0000000  0.0000000  3
   6138   6136   6137   6153     1  0.0000000  1.0460000  1
   6138   6136   6137   6153     1  0.0000000  0.0000000  3
   6138   6136   6137   6140     1  0.0000000  0.6508444  3
   6138   6136   6142   6148     1  0.0000000  0.6973333  3
   6138   6136   6135   6143     1  0.0000000  1.0460000  1
   6138   6136   6135   6143     1  0.0000000  0.0000000  3
   6138   6136   6135   6139     1  0.0000000  0.6508444  3
   6139   6135   6136   6142     1  0.0000000  1.0460000  1
   6139   6135   6136   6142     1  0.0000000  0.0000000  3
   6139   6135   6143   6146     1  0.0000000  0.6973333  3
   6139   6135   6132   6144     1  0.0000000  1.0460000  1
   6139   6135   6132   6144     1  0.0000000  0.0000000  3
   6140   6137   6136   6142     1  0.0000000  0.6508444  3
   6149   6145   6151   6152     1  0.0000000  0.6973333  3
   6149   6145   6131   6153     1  0.0000000  1.0460000  1
   6149   6145   6131   6153     1  0.0000000  0.0000000  3
   6150   6145   6151   6152     1  0.0000000  0.6973333  3
   6150   6145   6131   6153     1  0.0000000  1.0460000  1
   6150   6145   6131   6153     1  0.0000000  0.0000000  3
   6154   6155   6158   6162     1  0.0000000  0.6508444  3
   6154   6155   6167   6170     1  0.0000000  1.0460000  1
   6154   6155   6167   6170     1  0.0000000  0.6694400  3
   6154   6168   6174   6175     1  0.0000000  1.0460000  1
   6154   6168   6174   6175     1  0.0000000  0.6694400  3
   6154   6176   6160   6163     1  0.0000000  1.6038667  3
   6155   6154   6168   6172     1  0.0000000  0.6508444  3
   6155   6154   6168   6173     1  0.0000000  0.6508444  3
   6155   6158   6159   6161     1  0.0000000  0.6508444  3
   6155   6158   6166   6169     1  0.0000000  1.0460000  1
   6155   6158   6166   6169     1  0.0000000  0.6694400  3
   6156   6154   6155   6158     1  0.0000000  0.6508444  3
   6156   6154   6155   6167     1  0.0000000  1.0460000  1
   6156   6154   6155   6167     1  0.0000000  0.0000000  3
   6156   6154   6155   6157     1  0.0000000  0.6508444  3
   6156   6154   6168   6174     1  0.0000000  1.0460000  1
   6156   6154   6168   6174     1  0.0000000  0.0000000  3
   6156   6154   6168   6172     1  0.0000000  0.6508444  3
   6156   6154   6168   6173     1  0.0000000  0.6508444  3
   6156   6154   6176   6160     1  0.0000000  1.6038667  3
   6157   6155   6154   6168     1  0.0000000  0.6508444  3
   6157   6155   6154   6176     1  0.0000000  1.0460000  1
   6157   6155   6154   6176     1  0.0000000  0.0000000  3
   6157   6155   6158   6159     1  0.0000000  0.6508444  3
   6157   6155   6158   6166     1  0.0000000  1.0460000  1
   6157   6155   6158   6166     1  0.0000000  0.0000000  3
   6157   6155   6158   6162     1  0.0000000  0.6508444  3
   6157   6155   6167   6170     1  0.0000000  0.6973333  3
   6158   6155   6167   6170     1  0.0000000  1.0460000  1
   6158   6155   6167   6170     1  0.0000000  0.6694400  3
   6158   6159   6160   6163     1  0.0000000  0.6508444  3
   6158   6159   6165   6171     1  0.0000000  1.0460000  1
   6158   6159   6165   6171     1  0.0000000  0.6694400  3
   6159   6158   6166   6169     1  0.0000000  1.0460000  1
   6159   6158   6166   6169     1  0.0000000  0.6694400  3
   6160   6159   6158   6162     1  0.0000000  0.6508444  3
   6160   6159   6165   6171     1  0.0000000  1.0460000  1
   6160   6159   6165   6171     1  0.0000000  0.6694400  3
   6161   6159   6158   6166     1  0.0000000  1.0460000  1
   6161   6159   6158   6166     1  0.0000000  0.0000000  3
   6161   6159   6158   6162     1  0.0000000  0.6508444  3
   6161   6159   6160   6164     1  0.0000000  1.0460000  1
   6161   6159   6160   6164     1  0.0000000  0.0000000  3
   6161   6159   6160   6176     1  0.0000000  1.0460000  1
   6161   6159   6160   6176     1  0.0000000  0.0000000  3
   6161   6159   6160   6163     1  0.0000000  0.6508444  3
   6161   6159   6165   6171     1  0.0000000  0.6973333  3
   6162   6158   6155   6167     1  0.0000000  1.0460000  1
   6162   6158   6155   6167     1  0.0000000  0.0000000  3
   6162   6158   6159   6165     1  0.0000000  1.0460000  1
   6162   6158   6159   6165     1  0.0000000  0.0000000  3
   6162   6158   6166   6169     1  0.0000000  0.6973333  3
   6163   6160   6159   6165     1  0.0000000  0.6508444  3
   6172   6168   6154   6176     1  0.0000000  1.0460000  1
   6172   6168   6154   6176     1  0.0000000  0.0000000  3
   6172   6168   6174   6175     1  0.0000000  0.6973333  3
   6173   6168   6154   6176     1  0.0000000  1.0460000  1
   6173   6168   6154   6176     1  0.0000000  0.0000000  3
   6173   6168   6174   6175     1  0.0000000  0.6973333  3
   6177   6178   6181   6185     1  0.0000000  0.6508444  3
   6177   6178   6190   6193     1  0.0000000  1.0460000  1
   6177   6178   6190   6193     1  0.0000000  0.6694400  3
   6177   6191   6197   6198     1  0.0000000  1.0460000  1
   6177   6191   6197   6198     1  0.0000000  0.6694400  3
   6177   6199   6183   6186     1  0.0000000  1.6038667  3
   6178   6181   6182   6184     1  0.0000000  0.6508444  3
   6178   6181   6189   6192     1  0.0000000  1.0460000  1
   6178   6181   6189   6192     1  0.0000000  0.6694400  3
   6178   6177   6191   6195     1  0.0000000  0.6508444  3
   6178   6177   6191   6196     1  0.0000000  0.6508444  3
   6179   6177   6178   6181     1  0.0000000  0.6508444  3
   6179   6177   6178   6190     1  0.0000000  1.0460000  1
   6179   6177   6178   6190     1  0.0000000  0.0000000  3
   6179   6177   6178   6180     1  0.0000000  0.6508444  3
   6179   6177   6191   6197     1  0.0000000  1.0460000  1
   6179   6177   6191   6197     1  0.0000000  0.0000000  3
   6179   6177   6191   6195     1  0.0000000  0.6508444  3
   6179   6177   6191   6196     1  0.0000000  0.6508444  3
   6179   6177   6199   6183     1  0.0000000  1.6038667  3
   6180   6178   6181   6182     1  0.0000000  0.6508444  3
   6180   6178   6181   6189     1  0.0000000  1.0460000  1
   6180   6178   6181   6189     1  0.0000000  0.0000000  3
   6180   6178   6181   6185     1  0.0000000  0.6508444  3
   6180   6178   6190   6193     1  0.0000000  0.6973333  3
   6180   6178   6177   6191     1  0.0000000  0.6508444  3
   6180   6178   6177   6199     1  0.0000000  1.0460000  1
   6180   6178   6177   6199     1  0.0000000  0.0000000  3
   6181   6182   6183   6186     1  0.0000000  0.6508444  3
   6181   6182   6188   6194     1  0.0000000  1.0460000  1
   6181   6182   6188   6194     1  0.0000000  0.6694400  3
   6181   6178   6190   6193     1  0.0000000  1.0460000  1
   6181   6178   6190   6193     1  0.0000000  0.6694400  3
   6182   6181   6189   6192     1  0.0000000  1.0460000  1
   6182   6181   6189   6192     1  0.0000000  0.6694400  3
   6183   6182   6188   6194     1  0.0000000  1.0460000  1
   6183   6182   6188   6194     1  0.0000000  0.6694400  3
   6183   6182   6181   6185     1  0.0000000  0.6508444  3
   6184   6182   6183   6187     1  0.0000000  1.0460000  1
   6184   6182   6183   6187     1  0.0000000  0.0000000  3
   6184   6182   6183   6199     1  0.0000000  1.0460000  1
   6184   6182   6183   6199     1  0.0000000  0.0000000  3
   6184   6182   6183   6186     1  0.0000000  0.6508444  3
   6184   6182   6188   6194     1  0.0000000  0.6973333  3
   6184   6182   6181   6189     1  0.0000000  1.0460000  1
   6184   6182   6181   6189     1  0.0000000  0.0000000  3
   6184   6182   6181   6185     1  0.0000000  0.6508444  3
   6185   6181   6182   6188     1  0.0000000  1.0460000  1
   6185   6181   6182   6188     1  0.0000000  0.0000000  3
   6185   6181   6189   6192     1  0.0000000  0.6973333  3
   6185   6181   6178   6190     1  0.0000000  1.0460000  1
   6185   6181   6178   6190     1  0.0000000  0.0000000  3
   6186   6183   6182   6188     1  0.0000000  0.6508444  3
   6195   6191   6197   6198     1  0.0000000  0.6973333  3
   6195   6191   6177   6199     1  0.0000000  1.0460000  1
   6195   6191   6177   6199     1  0.0000000  0.0000000  3
   6196   6191   6197   6198     1  0.0000000  0.6973333  3
   6196   6191   6177   6199     1  0.0000000  1.0460000  1
   6196   6191   6177   6199     1  0.0000000  0.0000000  3
   6200   6201   6204   6208     1  0.0000000  0.6508444  3
   6200   6201   6213   6216     1  0.0000000  1.0460000  1
   6200   6201   6213   6216     1  0.0000000  0.6694400  3
   6200   6214   6220   6221     1  0.0000000  1.0460000  1
   6200   6214   6220   6221     1  0.0000000  0.6694400  3
   6200   6222   6206   6209     1  0.0000000  1.6038667  3
   6201   6200   6214   6218     1  0.0000000  0.6508444  3
   6201   6200   6214   6219     1  0.0000000  0.6508444  3
   6201   6204   6205   6207     1  0.0000000  0.6508444  3
   6201   6204   6212   6215     1  0.0000000  1.0460000  1
   6201   6204   6212   6215     1  0.0000000  0.6694400  3
   6202   6200   6201   6204     1  0.0000000  0.6508444  3
   6202   6200   6201   6213     1  0.0000000  1.0460000  1
   6202   6200   6201   6213     1  0.0000000  0.0000000  3
   6202   6200   6201   6203     1  0.0000000  0.6508444  3
   6202   6200   6214   6220     1  0.0000000  1.0460000  1
   6202   6200   6214   6220     1  0.0000000  0.0000000  3
   6202   6200   6214   6218     1  0.0000000  0.6508444  3
   6202   6200   6214   6219     1  0.0000000  0.6508444  3
   6202   6200   6222   6206     1  0.0000000  1.6038667  3
   6203   6201   6200   6214     1  0.0000000  0.6508444  3
   6203   6201   6200   6222     1  0.0000000  1.0460000  1
   6203   6201   6200   6222     1  0.0000000  0.0000000  3
   6203   6201   6204   6205     1  0.0000000  0.6508444  3
   6203   6201   6204   6212     1  0.0000000  1.0460000  1
   6203   6201   6204   6212     1  0.0000000  0.0000000  3
   6203   6201   6204   6208     1  0.0000000  0.6508444  3
   6203   6201   6213   6216     1  0.0000000  0.6973333  3
   6204   6201   6213   6216     1  0.0000000  1.0460000  1
   6204   6201   6213   6216     1  0.0000000  0.6694400  3
   6204   6205   6206   6209     1  0.0000000  0.6508444  3
   6204   6205   6211   6217     1  0.0000000  1.0460000  1
   6204   6205   6211   6217     1  0.0000000  0.6694400  3
   6205   6204   6212   6215     1  0.0000000  1.0460000  1
   6205   6204   6212   6215     1  0.0000000  0.6694400  3
   6206   6205   6204   6208     1  0.0000000  0.6508444  3
   6206   6205   6211   6217     1  0.0000000  1.0460000  1
   6206   6205   6211   6217     1  0.0000000  0.6694400  3
   6207   6205   6204   6212     1  0.0000000  1.0460000  1
   6207   6205   6204   6212     1  0.0000000  0.0000000  3
   6207   6205   6204   6208     1  0.0000000  0.6508444  3
   6207   6205   6206   6210     1  0.0000000  1.0460000  1
   6207   6205   6206   6210     1  0.0000000  0.0000000  3
   6207   6205   6206   6222     1  0.0000000  1.0460000  1
   6207   6205   6206   6222     1  0.0000000  0.0000000  3
   6207   6205   6206   6209     1  0.0000000  0.6508444  3
   6207   6205   6211   6217     1  0.0000000  0.6973333  3
   6208   6204   6201   6213     1  0.0000000  1.0460000  1
   6208   6204   6201   6213     1  0.0000000  0.0000000  3
   6208   6204   6205   6211     1  0.0000000  1.0460000  1
   6208   6204   6205   6211     1  0.0000000  0.0000000  3
   6208   6204   6212   6215     1  0.0000000  0.6973333  3
   6209   6206   6205   6211     1  0.0000000  0.6508444  3
   6218   6214   6200   6222     1  0.0000000  1.0460000  1
   6218   6214   6200   6222     1  0.0000000  0.0000000  3
   6218   6214   6220   6221     1  0.0000000  0.6973333  3
   6219   6214   6200   6222     1  0.0000000  1.0460000  1
   6219   6214   6200   6222     1  0.0000000  0.0000000  3
   6219   6214   6220   6221     1  0.0000000  0.6973333  3
   6223   6224   6227   6231     1  0.0000000  0.6508444  3
   6223   6224   6236   6239     1  0.0000000  1.0460000  1
   6223   6224   6236   6239     1  0.0000000  0.6694400  3
   6223   6237   6243   6244     1  0.0000000  1.0460000  1
   6223   6237   6243   6244     1  0.0000000  0.6694400  3
   6223   6245   6229   6232     1  0.0000000  1.6038667  3
   6224   6227   6228   6230     1  0.0000000  0.6508444  3
   6224   6227   6235   6238     1  0.0000000  1.0460000  1
   6224   6227   6235   6238     1  0.0000000  0.6694400  3
   6224   6223   6237   6241     1  0.0000000  0.6508444  3
   6224   6223   6237   6242     1  0.0000000  0.6508444  3
   6225   6223   6224   6227     1  0.0000000  0.6508444  3
   6225   6223   6224   6236     1  0.0000000  1.0460000  1
   6225   6223   6224   6236     1  0.0000000  0.0000000  3
   6225   6223   6224   6226     1  0.0000000  0.6508444  3
   6225   6223   6237   6243     1  0.0000000  1.0460000  1
   6225   6223   6237   6243     1  0.0000000  0.0000000  3
   6225   6223   6237   6241     1  0.0000000  0.6508444  3
   6225   6223   6237   6242     1  0.0000000  0.6508444  3
   6225   6223   6245   6229     1  0.0000000  1.6038667  3
   6226   6224   6227   6228     1  0.0000000  0.6508444  3
   6226   6224   6227   6235     1  0.0000000  1.0460000  1
   6226   6224   6227   6235     1  0.0000000  0.0000000  3
   6226   6224   6227   6231     1  0.0000000  0.6508444  3
   6226   6224   6236   6239     1  0.0000000  0.6973333  3
   6226   6224   6223   6237     1  0.0000000  0.6508444  3
   6226   6224   6223   6245     1  0.0000000  1.0460000  1
   6226   6224   6223   6245     1  0.0000000  0.0000000  3
   6227   6228   6229   6232     1  0.0000000  0.6508444  3
   6227   6228   6234   6240     1  0.0000000  1.0460000  1
   6227   6228   6234   6240     1  0.0000000  0.6694400  3
   6227   6224   6236   6239     1  0.0000000  1.0460000  1
   6227   6224   6236   6239     1  0.0000000  0.6694400  3
   6228   6227   6235   6238     1  0.0000000  1.0460000  1
   6228   6227   6235   6238     1  0.0000000  0.6694400  3
   6229   6228   6234   6240     1  0.0000000  1.0460000  1
   6229   6228   6234   6240     1  0.0000000  0.6694400  3
   6229   6228   6227   6231     1  0.0000000  0.6508444  3
   6230   6228   6229   6233     1  0.0000000  1.0460000  1
   6230   6228   6229   6233     1  0.0000000  0.0000000  3
   6230   6228   6229   6245     1  0.0000000  1.0460000  1
   6230   6228   6229   6245     1  0.0000000  0.0000000  3
   6230   6228   6229   6232     1  0.0000000  0.6508444  3
   6230   6228   6234   6240     1  0.0000000  0.6973333  3
   6230   6228   6227   6235     1  0.0000000  1.0460000  1
   6230   6228   6227   6235     1  0.0000000  0.0000000  3
   6230   6228   6227   6231     1  0.0000000  0.6508444  3
   6231   6227   6228   6234     1  0.0000000  1.0460000  1
   6231   6227   6228   6234     1  0.0000000  0.0000000  3
   6231   6227   6235   6238     1  0.0000000  0.6973333  3
   6231   6227   6224   6236     1  0.0000000  1.0460000  1
   6231   6227   6224   6236     1  0.0000000  0.0000000  3
   6232   6229   6228   6234     1  0.0000000  0.6508444  3
   6241   6237   6243   6244     1  0.0000000  0.6973333  3
   6241   6237   6223   6245     1  0.0000000  1.0460000  1
   6241   6237   6223   6245     1  0.0000000  0.0000000  3
   6242   6237   6243   6244     1  0.0000000  0.6973333  3
   6242   6237   6223   6245     1  0.0000000  1.0460000  1
   6242   6237   6223   6245     1  0.0000000  0.0000000  3
   6246   6247   6250   6254     1  0.0000000  0.6508444  3
   6246   6247   6259   6262     1  0.0000000  1.0460000  1
   6246   6247   6259   6262     1  0.0000000  0.6694400  3
   6246   6260   6266   6267     1  0.0000000  1.0460000  1
   6246   6260   6266   6267     1  0.0000000  0.6694400  3
   6246   6268   6252   6255     1  0.0000000  1.6038667  3
   6247   6246   6260   6264     1  0.0000000  0.6508444  3
   6247   6246   6260   6265     1  0.0000000  0.6508444  3
   6247   6250   6251   6253     1  0.0000000  0.6508444  3
   6247   6250   6258   6261     1  0.0000000  1.0460000  1
   6247   6250   6258   6261     1  0.0000000  0.6694400  3
   6248   6246   6247   6250     1  0.0000000  0.6508444  3
   6248   6246   6247   6259     1  0.0000000  1.0460000  1
   6248   6246   6247   6259     1  0.0000000  0.0000000  3
   6248   6246   6247   6249     1  0.0000000  0.6508444  3
   6248   6246   6260   6266     1  0.0000000  1.0460000  1
   6248   6246   6260   6266     1  0.0000000  0.0000000  3
   6248   6246   6260   6264     1  0.0000000  0.6508444  3
   6248   6246   6260   6265     1  0.0000000  0.6508444  3
   6248   6246   6268   6252     1  0.0000000  1.6038667  3
   6249   6247   6246   6260     1  0.0000000  0.6508444  3
   6249   6247   6246   6268     1  0.0000000  1.0460000  1
   6249   6247   6246   6268     1  0.0000000  0.0000000  3
   6249   6247   6250   6251     1  0.0000000  0.6508444  3
   6249   6247   6250   6258     1  0.0000000  1.0460000  1
   6249   6247   6250   6258     1  0.0000000  0.0000000  3
   6249   6247   6250   6254     1  0.0000000  0.6508444  3
   6249   6247   6259   6262     1  0.0000000  0.6973333  3
   6250   6247   6259   6262     1  0.0000000  1.0460000  1
   6250   6247   6259   6262     1  0.0000000  0.6694400  3
   6250   6251   6252   6255     1  0.0000000  0.6508444  3
   6250   6251   6257   6263     1  0.0000000  1.0460000  1
   6250   6251   6257   6263     1  0.0000000  0.6694400  3
   6251   6250   6258   6261     1  0.0000000  1.0460000  1
   6251   6250   6258   6261     1  0.0000000  0.6694400  3
   6252   6251   6250   6254     1  0.0000000  0.6508444  3
   6252   6251   6257   6263     1  0.0000000  1.0460000  1
   6252   6251   6257   6263     1  0.0000000  0.6694400  3
   6253   6251   6250   6258     1  0.0000000  1.0460000  1
   6253   6251   6250   6258     1  0.0000000  0.0000000  3
   6253   6251   6250   6254     1  0.0000000  0.6508444  3
   6253   6251   6252   6256     1  0.0000000  1.0460000  1
   6253   6251   6252   6256     1  0.0000000  0.0000000  3
   6253   6251   6252   6268     1  0.0000000  1.0460000  1
   6253   6251   6252   6268     1  0.0000000  0.0000000  3
   6253   6251   6252   6255     1  0.0000000  0.6508444  3
   6253   6251   6257   6263     1  0.0000000  0.6973333  3
   6254   6250   6247   6259     1  0.0000000  1.0460000  1
   6254   6250   6247   6259     1  0.0000000  0.0000000  3
   6254   6250   6251   6257     1  0.0000000  1.0460000  1
   6254   6250   6251   6257     1  0.0000000  0.0000000  3
   6254   6250   6258   6261     1  0.0000000  0.6973333  3
   6255   6252   6251   6257     1  0.0000000  0.6508444  3
   6264   6260   6246   6268     1  0.0000000  1.0460000  1
   6264   6260   6246   6268     1  0.0000000  0.0000000  3
   6264   6260   6266   6267     1  0.0000000  0.6973333  3
   6265   6260   6246   6268     1  0.0000000  1.0460000  1
   6265   6260   6246   6268     1  0.0000000  0.0000000  3
   6265   6260   6266   6267     1  0.0000000  0.6973333  3
   6269   6270   6273   6277     1  0.0000000  0.6508444  3
   6269   6270   6282   6285     1  0.0000000  1.0460000  1
   6269   6270   6282   6285     1  0.0000000  0.6694400  3
   6269   6283   6289   6290     1  0.0000000  1.0460000  1
   6269   6283   6289   6290     1  0.0000000  0.6694400  3
   6269   6291   6275   6278     1  0.0000000  1.6038667  3
   6270   6273   6274   6276     1  0.0000000  0.6508444  3
   6270   6273   6281   6284     1  0.0000000  1.0460000  1
   6270   6273   6281   6284     1  0.0000000  0.6694400  3
   6270   6269   6283   6287     1  0.0000000  0.6508444  3
   6270   6269   6283   6288     1  0.0000000  0.6508444  3
   6271   6269   6270   6273     1  0.0000000  0.6508444  3
   6271   6269   6270   6282     1  0.0000000  1.0460000  1
   6271   6269   6270   6282     1  0.0000000  0.0000000  3
   6271   6269   6270   6272     1  0.0000000  0.6508444  3
   6271   6269   6283   6289     1  0.0000000  1.0460000  1
   6271   6269   6283   6289     1  0.0000000  0.0000000  3
   6271   6269   6283   6287     1  0.0000000  0.6508444  3
   6271   6269   6283   6288     1  0.0000000  0.6508444  3
   6271   6269   6291   6275     1  0.0000000  1.6038667  3
   6272   6270   6273   6274     1  0.0000000  0.6508444  3
   6272   6270   6273   6281     1  0.0000000  1.0460000  1
   6272   6270   6273   6281     1  0.0000000  0.0000000  3
   6272   6270   6273   6277     1  0.0000000  0.6508444  3
   6272   6270   6282   6285     1  0.0000000  0.6973333  3
   6272   6270   6269   6283     1  0.0000000  0.6508444  3
   6272   6270   6269   6291     1  0.0000000  1.0460000  1
   6272   6270   6269   6291     1  0.0000000  0.0000000  3
   6273   6274   6275   6278     1  0.0000000  0.6508444  3
   6273   6274   6280   6286     1  0.0000000  1.0460000  1
   6273   6274   6280   6286     1  0.0000000  0.6694400  3
   6273   6270   6282   6285     1  0.0000000  1.0460000  1
   6273   6270   6282   6285     1  0.0000000  0.6694400  3
   6274   6273   6281   6284     1  0.0000000  1.0460000  1
   6274   6273   6281   6284     1  0.0000000  0.6694400  3
   6275   6274   6280   6286     1  0.0000000  1.0460000  1
   6275   6274   6280   6286     1  0.0000000  0.6694400  3
   6275   6274   6273   6277     1  0.0000000  0.6508444  3
   6276   6274   6275   6279     1  0.0000000  1.0460000  1
   6276   6274   6275   6279     1  0.0000000  0.0000000  3
   6276   6274   6275   6291     1  0.0000000  1.0460000  1
   6276   6274   6275   6291     1  0.0000000  0.0000000  3
   6276   6274   6275   6278     1  0.0000000  0.6508444  3
   6276   6274   6280   6286     1  0.0000000  0.6973333  3
   6276   6274   6273   6281     1  0.0000000  1.0460000  1
   6276   6274   6273   6281     1  0.0000000  0.0000000  3
   6276   6274   6273   6277     1  0.0000000  0.6508444  3
   6277   6273   6274   6280     1  0.0000000  1.0460000  1
   6277   6273   6274   6280     1  0.0000000  0.0000000  3
   6277   6273   6281   6284     1  0.0000000  0.6973333  3
   6277   6273   6270   6282     1  0.0000000  1.0460000  1
   6277   6273   6270   6282     1  0.0000000  0.0000000  3
   6278   6275   6274   6280     1  0.0000000  0.6508444  3
   6287   6283   6289   6290     1  0.0000000  0.6973333  3
   6287   6283   6269   6291     1  0.0000000  1.0460000  1
   6287   6283   6269   6291     1  0.0000000  0.0000000  3
   6288   6283   6289   6290     1  0.0000000  0.6973333  3
   6288   6283   6269   6291     1  0.0000000  1.0460000  1
   6288   6283   6269   6291     1  0.0000000  0.0000000  3
   6292   6293   6296   6300     1  0.0000000  0.6508444  3
   6292   6293   6305   6308     1  0.0000000  1.0460000  1
   6292   6293   6305   6308     1  0.0000000  0.6694400  3
   6292   6306   6312   6313     1  0.0000000  1.0460000  1
   6292   6306   6312   6313     1  0.0000000  0.6694400  3
   6292   6314   6298   6301     1  0.0000000  1.6038667  3
   6293   6292   6306   6310     1  0.0000000  0.6508444  3
   6293   6292   6306   6311     1  0.0000000  0.6508444  3
   6293   6296   6297   6299     1  0.0000000  0.6508444  3
   6293   6296   6304   6307     1  0.0000000  1.0460000  1
   6293   6296   6304   6307     1  0.0000000  0.6694400  3
   6294   6292   6293   6296     1  0.0000000  0.6508444  3
   6294   6292   6293   6305     1  0.0000000  1.0460000  1
   6294   6292   6293   6305     1  0.0000000  0.0000000  3
   6294   6292   6293   6295     1  0.0000000  0.6508444  3
   6294   6292   6306   6312     1  0.0000000  1.0460000  1
   6294   6292   6306   6312     1  0.0000000  0.0000000  3
   6294   6292   6306   6310     1  0.0000000  0.6508444  3
   6294   6292   6306   6311     1  0.0000000  0.6508444  3
   6294   6292   6314   6298     1  0.0000000  1.6038667  3
   6295   6293   6292   6306     1  0.0000000  0.6508444  3
   6295   6293   6292   6314     1  0.0000000  1.0460000  1
   6295   6293   6292   6314     1  0.0000000  0.0000000  3
   6295   6293   6296   6297     1  0.0000000  0.6508444  3
   6295   6293   6296   6304     1  0.0000000  1.0460000  1
   6295   6293   6296   6304     1  0.0000000  0.0000000  3
   6295   6293   6296   6300     1  0.0000000  0.6508444  3
   6295   6293   6305   6308     1  0.0000000  0.6973333  3
   6296   6293   6305   6308     1  0.0000000  1.0460000  1
   6296   6293   6305   6308     1  0.0000000  0.6694400  3
   6296   6297   6298   6301     1  0.0000000  0.6508444  3
   6296   6297   6303   6309     1  0.0000000  1.0460000  1
   6296   6297   6303   6309     1  0.0000000  0.6694400  3
   6297   6296   6304   6307     1  0.0000000  1.0460000  1
   6297   6296   6304   6307     1  0.0000000  0.6694400  3
   6298   6297   6296   6300     1  0.0000000  0.6508444  3
   6298   6297   6303   6309     1  0.0000000  1.0460000  1
   6298   6297   6303   6309     1  0.0000000  0.6694400  3
   6299   6297   6296   6304     1  0.0000000  1.0460000  1
   6299   6297   6296   6304     1  0.0000000  0.0000000  3
   6299   6297   6296   6300     1  0.0000000  0.6508444  3
   6299   6297   6298   6302     1  0.0000000  1.0460000  1
   6299   6297   6298   6302     1  0.0000000  0.0000000  3
   6299   6297   6298   6314     1  0.0000000  1.0460000  1
   6299   6297   6298   6314     1  0.0000000  0.0000000  3
   6299   6297   6298   6301     1  0.0000000  0.6508444  3
   6299   6297   6303   6309     1  0.0000000  0.6973333  3
   6300   6296   6293   6305     1  0.0000000  1.0460000  1
   6300   6296   6293   6305     1  0.0000000  0.0000000  3
   6300   6296   6297   6303     1  0.0000000  1.0460000  1
   6300   6296   6297   6303     1  0.0000000  0.0000000  3
   6300   6296   6304   6307     1  0.0000000  0.6973333  3
   6301   6298   6297   6303     1  0.0000000  0.6508444  3
   6310   6306   6292   6314     1  0.0000000  1.0460000  1
   6310   6306   6292   6314     1  0.0000000  0.0000000  3
   6310   6306   6312   6313     1  0.0000000  0.6973333  3
   6311   6306   6292   6314     1  0.0000000  1.0460000  1
   6311   6306   6292   6314     1  0.0000000  0.0000000  3
   6311   6306   6312   6313     1  0.0000000  0.6973333  3
   6315   6316   6319   6323     1  0.0000000  0.6508444  3
   6315   6316   6328   6331     1  0.0000000  1.0460000  1
   6315   6316   6328   6331     1  0.0000000  0.6694400  3
   6315   6329   6335   6336     1  0.0000000  1.0460000  1
   6315   6329   6335   6336     1  0.0000000  0.6694400  3
   6315   6337   6321   6324     1  0.0000000  1.6038667  3
   6316   6319   6320   6322     1  0.0000000  0.6508444  3
   6316   6319   6327   6330     1  0.0000000  1.0460000  1
   6316   6319   6327   6330     1  0.0000000  0.6694400  3
   6316   6315   6329   6333     1  0.0000000  0.6508444  3
   6316   6315   6329   6334     1  0.0000000  0.6508444  3
   6317   6315   6316   6319     1  0.0000000  0.6508444  3
   6317   6315   6316   6328     1  0.0000000  1.0460000  1
   6317   6315   6316   6328     1  0.0000000  0.0000000  3
   6317   6315   6316   6318     1  0.0000000  0.6508444  3
   6317   6315   6329   6335     1  0.0000000  1.0460000  1
   6317   6315   6329   6335     1  0.0000000  0.0000000  3
   6317   6315   6329   6333     1  0.0000000  0.6508444  3
   6317   6315   6329   6334     1  0.0000000  0.6508444  3
   6317   6315   6337   6321     1  0.0000000  1.6038667  3
   6318   6316   6319   6320     1  0.0000000  0.6508444  3
   6318   6316   6319   6327     1  0.0000000  1.0460000  1
   6318   6316   6319   6327     1  0.0000000  0.0000000  3
   6318   6316   6319   6323     1  0.0000000  0.6508444  3
   6318   6316   6328   6331     1  0.0000000  0.6973333  3
   6318   6316   6315   6329     1  0.0000000  0.6508444  3
   6318   6316   6315   6337     1  0.0000000  1.0460000  1
   6318   6316   6315   6337     1  0.0000000  0.0000000  3
   6319   6320   6321   6324     1  0.0000000  0.6508444  3
   6319   6320   6326   6332     1  0.0000000  1.0460000  1
   6319   6320   6326   6332     1  0.0000000  0.6694400  3
   6319   6316   6328   6331     1  0.0000000  1.0460000  1
   6319   6316   6328   6331     1  0.0000000  0.6694400  3
   6320   6319   6327   6330     1  0.0000000  1.0460000  1
   6320   6319   6327   6330     1  0.0000000  0.6694400  3
   6321   6320   6326   6332     1  0.0000000  1.0460000  1
   6321   6320   6326   6332     1  0.0000000  0.6694400  3
   6321   6320   6319   6323     1  0.0000000  0.6508444  3
   6322   6320   6321   6325     1  0.0000000  1.0460000  1
   6322   6320   6321   6325     1  0.0000000  0.0000000  3
   6322   6320   6321   6337     1  0.0000000  1.0460000  1
   6322   6320   6321   6337     1  0.0000000  0.0000000  3
   6322   6320   6321   6324     1  0.0000000  0.6508444  3
   6322   6320   6326   6332     1  0.0000000  0.6973333  3
   6322   6320   6319   6327     1  0.0000000  1.0460000  1
   6322   6320   6319   6327     1  0.0000000  0.0000000  3
   6322   6320   6319   6323     1  0.0000000  0.6508444  3
   6323   6319   6320   6326     1  0.0000000  1.0460000  1
   6323   6319   6320   6326     1  0.0000000  0.0000000  3
   6323   6319   6327   6330     1  0.0000000  0.6973333  3
   6323   6319   6316   6328     1  0.0000000  1.0460000  1
   6323   6319   6316   6328     1  0.0000000  0.0000000  3
   6324   6321   6320   6326     1  0.0000000  0.6508444  3
   6333   6329   6335   6336     1  0.0000000  0.6973333  3
   6333   6329   6315   6337     1  0.0000000  1.0460000  1
   6333   6329   6315   6337     1  0.0000000  0.0000000  3
   6334   6329   6335   6336     1  0.0000000  0.6973333  3
   6334   6329   6315   6337     1  0.0000000  1.0460000  1
   6334   6329   6315   6337     1  0.0000000  0.0000000  3
   6338   6339   6342   6346     1  0.0000000  0.6508444  3
   6338   6339   6351   6354     1  0.0000000  1.0460000  1
   6338   6339   6351   6354     1  0.0000000  0.6694400  3
   6338   6352   6358   6359     1  0.0000000  1.0460000  1
   6338   6352   6358   6359     1  0.0000000  0.6694400  3
   6338   6360   6344   6347     1  0.0000000  1.6038667  3
   6339   6338   6352   6356     1  0.0000000  0.6508444  3
   6339   6338   6352   6357     1  0.0000000  0.6508444  3
   6339   6342   6343   6345     1  0.0000000  0.6508444  3
   6339   6342   6350   6353     1  0.0000000  1.0460000  1
   6339   6342   6350   6353     1  0.0000000  0.6694400  3
   6340   6338   6339   6342     1  0.0000000  0.6508444  3
   6340   6338   6339   6351     1  0.0000000  1.0460000  1
   6340   6338   6339   6351     1  0.0000000  0.0000000  3
   6340   6338   6339   6341     1  0.0000000  0.6508444  3
   6340   6338   6352   6358     1  0.0000000  1.0460000  1
   6340   6338   6352   6358     1  0.0000000  0.0000000  3
   6340   6338   6352   6356     1  0.0000000  0.6508444  3
   6340   6338   6352   6357     1  0.0000000  0.6508444  3
   6340   6338   6360   6344     1  0.0000000  1.6038667  3
   6341   6339   6338   6352     1  0.0000000  0.6508444  3
   6341   6339   6338   6360     1  0.0000000  1.0460000  1
   6341   6339   6338   6360     1  0.0000000  0.0000000  3
   6341   6339   6342   6343     1  0.0000000  0.6508444  3
   6341   6339   6342   6350     1  0.0000000  1.0460000  1
   6341   6339   6342   6350     1  0.0000000  0.0000000  3
   6341   6339   6342   6346     1  0.0000000  0.6508444  3
   6341   6339   6351   6354     1  0.0000000  0.6973333  3
   6342   6339   6351   6354     1  0.0000000  1.0460000  1
   6342   6339   6351   6354     1  0.0000000  0.6694400  3
   6342   6343   6344   6347     1  0.0000000  0.6508444  3
   6342   6343   6349   6355     1  0.0000000  1.0460000  1
   6342   6343   6349   6355     1  0.0000000  0.6694400  3
   6343   6342   6350   6353     1  0.0000000  1.0460000  1
   6343   6342   6350   6353     1  0.0000000  0.6694400  3
   6344   6343   6342   6346     1  0.0000000  0.6508444  3
   6344   6343   6349   6355     1  0.0000000  1.0460000  1
   6344   6343   6349   6355     1  0.0000000  0.6694400  3
   6345   6343   6342   6350     1  0.0000000  1.0460000  1
   6345   6343   6342   6350     1  0.0000000  0.0000000  3
   6345   6343   6342   6346     1  0.0000000  0.6508444  3
   6345   6343   6344   6348     1  0.0000000  1.0460000  1
   6345   6343   6344   6348     1  0.0000000  0.0000000  3
   6345   6343   6344   6360     1  0.0000000  1.0460000  1
   6345   6343   6344   6360     1  0.0000000  0.0000000  3
   6345   6343   6344   6347     1  0.0000000  0.6508444  3
   6345   6343   6349   6355     1  0.0000000  0.6973333  3
   6346   6342   6339   6351     1  0.0000000  1.0460000  1
   6346   6342   6339   6351     1  0.0000000  0.0000000  3
   6346   6342   6343   6349     1  0.0000000  1.0460000  1
   6346   6342   6343   6349     1  0.0000000  0.0000000  3
   6346   6342   6350   6353     1  0.0000000  0.6973333  3
   6347   6344   6343   6349     1  0.0000000  0.6508444  3
   6356   6352   6338   6360     1  0.0000000  1.0460000  1
   6356   6352   6338   6360     1  0.0000000  0.0000000  3
   6356   6352   6358   6359     1  0.0000000  0.6973333  3
   6357   6352   6338   6360     1  0.0000000  1.0460000  1
   6357   6352   6338   6360     1  0.0000000  0.0000000  3
   6357   6352   6358   6359     1  0.0000000  0.6973333  3
   6361   6362   6365   6369     1  0.0000000  0.6508444  3
   6361   6362   6374   6377     1  0.0000000  1.0460000  1
   6361   6362   6374   6377     1  0.0000000  0.6694400  3
   6361   6375   6381   6382     1  0.0000000  1.0460000  1
   6361   6375   6381   6382     1  0.0000000  0.6694400  3
   6361   6383   6367   6370     1  0.0000000  1.6038667  3
   6362   6365   6366   6368     1  0.0000000  0.6508444  3
   6362   6365   6373   6376     1  0.0000000  1.0460000  1
   6362   6365   6373   6376     1  0.0000000  0.6694400  3
   6362   6361   6375   6379     1  0.0000000  0.6508444  3
   6362   6361   6375   6380     1  0.0000000  0.6508444  3
   6363   6361   6362   6365     1  0.0000000  0.6508444  3
   6363   6361   6362   6374     1  0.0000000  1.0460000  1
   6363   6361   6362   6374     1  0.0000000  0.0000000  3
   6363   6361   6362   6364     1  0.0000000  0.6508444  3
   6363   6361   6375   6381     1  0.0000000  1.0460000  1
   6363   6361   6375   6381     1  0.0000000  0.0000000  3
   6363   6361   6375   6379     1  0.0000000  0.6508444  3
   6363   6361   6375   6380     1  0.0000000  0.6508444  3
   6363   6361   6383   6367     1  0.0000000  1.6038667  3
   6364   6362   6365   6366     1  0.0000000  0.6508444  3
   6364   6362   6365   6373     1  0.0000000  1.0460000  1
   6364   6362   6365   6373     1  0.0000000  0.0000000  3
   6364   6362   6365   6369     1  0.0000000  0.6508444  3
   6364   6362   6374   6377     1  0.0000000  0.6973333  3
   6364   6362   6361   6375     1  0.0000000  0.6508444  3
   6364   6362   6361   6383     1  0.0000000  1.0460000  1
   6364   6362   6361   6383     1  0.0000000  0.0000000  3
   6365   6366   6367   6370     1  0.0000000  0.6508444  3
   6365   6366   6372   6378     1  0.0000000  1.0460000  1
   6365   6366   6372   6378     1  0.0000000  0.6694400  3
   6365   6362   6374   6377     1  0.0000000  1.0460000  1
   6365   6362   6374   6377     1  0.0000000  0.6694400  3
   6366   6365   6373   6376     1  0.0000000  1.0460000  1
   6366   6365   6373   6376     1  0.0000000  0.6694400  3
   6367   6366   6372   6378     1  0.0000000  1.0460000  1
   6367   6366   6372   6378     1  0.0000000  0.6694400  3
   6367   6366   6365   6369     1  0.0000000  0.6508444  3
   6368   6366   6367   6371     1  0.0000000  1.0460000  1
   6368   6366   6367   6371     1  0.0000000  0.0000000  3
   6368   6366   6367   6383     1  0.0000000  1.0460000  1
   6368   6366   6367   6383     1  0.0000000  0.0000000  3
   6368   6366   6367   6370     1  0.0000000  0.6508444  3
   6368   6366   6372   6378     1  0.0000000  0.6973333  3
   6368   6366   6365   6373     1  0.0000000  1.0460000  1
   6368   6366   6365   6373     1  0.0000000  0.0000000  3
   6368   6366   6365   6369     1  0.0000000  0.6508444  3
   6369   6365   6366   6372     1  0.0000000  1.0460000  1
   6369   6365   6366   6372     1  0.0000000  0.0000000  3
   6369   6365   6373   6376     1  0.0000000  0.6973333  3
   6369   6365   6362   6374     1  0.0000000  1.0460000  1
   6369   6365   6362   6374     1  0.0000000  0.0000000  3
   6370   6367   6366   6372     1  0.0000000  0.6508444  3
   6379   6375   6381   6382     1  0.0000000  0.6973333  3
   6379   6375   6361   6383     1  0.0000000  1.0460000  1
   6379   6375   6361   6383     1  0.0000000  0.0000000  3
   6380   6375   6381   6382     1  0.0000000  0.6973333  3
   6380   6375   6361   6383     1  0.0000000  1.0460000  1
   6380   6375   6361   6383     1  0.0000000  0.0000000  3
   6384   6385   6388   6392     1  0.0000000  0.6508444  3
   6384   6385   6397   6400     1  0.0000000  1.0460000  1
   6384   6385   6397   6400     1  0.0000000  0.6694400  3
   6384   6398   6404   6405     1  0.0000000  1.0460000  1
   6384   6398   6404   6405     1  0.0000000  0.6694400  3
   6384   6406   6390   6393     1  0.0000000  1.6038667  3
   6385   6384   6398   6402     1  0.0000000  0.6508444  3
   6385   6384   6398   6403     1  0.0000000  0.6508444  3
   6385   6388   6389   6391     1  0.0000000  0.6508444  3
   6385   6388   6396   6399     1  0.0000000  1.0460000  1
   6385   6388   6396   6399     1  0.0000000  0.6694400  3
   6386   6384   6385   6388     1  0.0000000  0.6508444  3
   6386   6384   6385   6397     1  0.0000000  1.0460000  1
   6386   6384   6385   6397     1  0.0000000  0.0000000  3
   6386   6384   6385   6387     1  0.0000000  0.6508444  3
   6386   6384   6398   6404     1  0.0000000  1.0460000  1
   6386   6384   6398   6404     1  0.0000000  0.0000000  3
   6386   6384   6398   6402     1  0.0000000  0.6508444  3
   6386   6384   6398   6403     1  0.0000000  0.6508444  3
   6386   6384   6406   6390     1  0.0000000  1.6038667  3
   6387   6385   6384   6398     1  0.0000000  0.6508444  3
   6387   6385   6384   6406     1  0.0000000  1.0460000  1
   6387   6385   6384   6406     1  0.0000000  0.0000000  3
   6387   6385   6388   6389     1  0.0000000  0.6508444  3
   6387   6385   6388   6396     1  0.0000000  1.0460000  1
   6387   6385   6388   6396     1  0.0000000  0.0000000  3
   6387   6385   6388   6392     1  0.0000000  0.6508444  3
   6387   6385   6397   6400     1  0.0000000  0.6973333  3
   6388   6385   6397   6400     1  0.0000000  1.0460000  1
   6388   6385   6397   6400     1  0.0000000  0.6694400  3
   6388   6389   6390   6393     1  0.0000000  0.6508444  3
   6388   6389   6395   6401     1  0.0000000  1.0460000  1
   6388   6389   6395   6401     1  0.0000000  0.6694400  3
   6389   6388   6396   6399     1  0.0000000  1.0460000  1
   6389   6388   6396   6399     1  0.0000000  0.6694400  3
   6390   6389   6388   6392     1  0.0000000  0.6508444  3
   6390   6389   6395   6401     1  0.0000000  1.0460000  1
   6390   6389   6395   6401     1  0.0000000  0.6694400  3
   6391   6389   6388   6396     1  0.0000000  1.0460000  1
   6391   6389   6388   6396     1  0.0000000  0.0000000  3
   6391   6389   6388   6392     1  0.0000000  0.6508444  3
   6391   6389   6390   6394     1  0.0000000  1.0460000  1
   6391   6389   6390   6394     1  0.0000000  0.0000000  3
   6391   6389   6390   6406     1  0.0000000  1.0460000  1
   6391   6389   6390   6406     1  0.0000000  0.0000000  3
   6391   6389   6390   6393     1  0.0000000  0.6508444  3
   6391   6389   6395   6401     1  0.0000000  0.6973333  3
   6392   6388   6385   6397     1  0.0000000  1.0460000  1
   6392   6388   6385   6397     1  0.0000000  0.0000000  3
   6392   6388   6389   6395     1  0.0000000  1.0460000  1
   6392   6388   6389   6395     1  0.0000000  0.0000000  3
   6392   6388   6396   6399     1  0.0000000  0.6973333  3
   6393   6390   6389   6395     1  0.0000000  0.6508444  3
   6402   6398   6384   6406     1  0.0000000  1.0460000  1
   6402   6398   6384   6406     1  0.0000000  0.0000000  3
   6402   6398   6404   6405     1  0.0000000  0.6973333  3
   6403   6398   6384   6406     1  0.0000000  1.0460000  1
   6403   6398   6384   6406     1  0.0000000  0.0000000  3
   6403   6398   6404   6405     1  0.0000000  0.6973333  3
   6407   6408   6411   6415     1  0.0000000  0.6508444  3
   6407   6408   6420   6423     1  0.0000000  1.0460000  1
   6407   6408   6420   6423     1  0.0000000  0.6694400  3
   6407   6421   6427   6428     1  0.0000000  1.0460000  1
   6407   6421   6427   6428     1  0.0000000  0.6694400  3
   6407   6429   6413   6416     1  0.0000000  1.6038667  3
   6408   6411   6412   6414     1  0.0000000  0.6508444  3
   6408   6411   6419   6422     1  0.0000000  1.0460000  1
   6408   6411   6419   6422     1  0.0000000  0.6694400  3
   6408   6407   6421   6425     1  0.0000000  0.6508444  3
   6408   6407   6421   6426     1  0.0000000  0.6508444  3
   6409   6407   6408   6411     1  0.0000000  0.6508444  3
   6409   6407   6408   6420     1  0.0000000  1.0460000  1
   6409   6407   6408   6420     1  0.0000000  0.0000000  3
   6409   6407   6408   6410     1  0.0000000  0.6508444  3
   6409   6407   6421   6427     1  0.0000000  1.0460000  1
   6409   6407   6421   6427     1  0.0000000  0.0000000  3
   6409   6407   6421   6425     1  0.0000000  0.6508444  3
   6409   6407   6421   6426     1  0.0000000  0.6508444  3
   6409   6407   6429   6413     1  0.0000000  1.6038667  3
   6410   6408   6411   6412     1  0.0000000  0.6508444  3
   6410   6408   6411   6419     1  0.0000000  1.0460000  1
   6410   6408   6411   6419     1  0.0000000  0.0000000  3
   6410   6408   6411   6415     1  0.0000000  0.6508444  3
   6410   6408   6420   6423     1  0.0000000  0.6973333  3
   6410   6408   6407   6421     1  0.0000000  0.6508444  3
   6410   6408   6407   6429     1  0.0000000  1.0460000  1
   6410   6408   6407   6429     1  0.0000000  0.0000000  3
   6411   6412   6413   6416     1  0.0000000  0.6508444  3
   6411   6412   6418   6424     1  0.0000000  1.0460000  1
   6411   6412   6418   6424     1  0.0000000  0.6694400  3
   6411   6408   6420   6423     1  0.0000000  1.0460000  1
   6411   6408   6420   6423     1  0.0000000  0.6694400  3
   6412   6411   6419   6422     1  0.0000000  1.0460000  1
   6412   6411   6419   6422     1  0.0000000  0.6694400  3
   6413   6412   6418   6424     1  0.0000000  1.0460000  1
   6413   6412   6418   6424     1  0.0000000  0.6694400  3
   6413   6412   6411   6415     1  0.0000000  0.6508444  3
   6414   6412   6413   6417     1  0.0000000  1.0460000  1
   6414   6412   6413   6417     1  0.0000000  0.0000000  3
   6414   6412   6413   6429     1  0.0000000  1.0460000  1
   6414   6412   6413   6429     1  0.0000000  0.0000000  3
   6414   6412   6413   6416     1  0.0000000  0.6508444  3
   6414   6412   6418   6424     1  0.0000000  0.6973333  3
   6414   6412   6411   6419     1  0.0000000  1.0460000  1
   6414   6412   6411   6419     1  0.0000000  0.0000000  3
   6414   6412   6411   6415     1  0.0000000  0.6508444  3
   6415   6411   6412   6418     1  0.0000000  1.0460000  1
   6415   6411   6412   6418     1  0.0000000  0.0000000  3
   6415   6411   6419   6422     1  0.0000000  0.6973333  3
   6415   6411   6408   6420     1  0.0000000  1.0460000  1
   6415   6411   6408   6420     1  0.0000000  0.0000000  3
   6416   6413   6412   6418     1  0.0000000  0.6508444  3
   6425   6421   6427   6428     1  0.0000000  0.6973333  3
   6425   6421   6407   6429     1  0.0000000  1.0460000  1
   6425   6421   6407   6429     1  0.0000000  0.0000000  3
   6426   6421   6427   6428     1  0.0000000  0.6973333  3
   6426   6421   6407   6429     1  0.0000000  1.0460000  1
   6426   6421   6407   6429     1  0.0000000  0.0000000  3
   6430   6431   6434   6438     1  0.0000000  0.6508444  3
   6430   6431   6443   6446     1  0.0000000  1.0460000  1
   6430   6431   6443   6446     1  0.0000000  0.6694400  3
   6430   6444   6450   6451     1  0.0000000  1.0460000  1
   6430   6444   6450   6451     1  0.0000000  0.6694400  3
   6430   6452   6436   6439     1  0.0000000  1.6038667  3
   6431   6430   6444   6448     1  0.0000000  0.6508444  3
   6431   6430   6444   6449     1  0.0000000  0.6508444  3
   6431   6434   6435   6437     1  0.0000000  0.6508444  3
   6431   6434   6442   6445     1  0.0000000  1.0460000  1
   6431   6434   6442   6445     1  0.0000000  0.6694400  3
   6432   6430   6431   6434     1  0.0000000  0.6508444  3
   6432   6430   6431   6443     1  0.0000000  1.0460000  1
   6432   6430   6431   6443     1  0.0000000  0.0000000  3
   6432   6430   6431   6433     1  0.0000000  0.6508444  3
   6432   6430   6444   6450     1  0.0000000  1.0460000  1
   6432   6430   6444   6450     1  0.0000000  0.0000000  3
   6432   6430   6444   6448     1  0.0000000  0.6508444  3
   6432   6430   6444   6449     1  0.0000000  0.6508444  3
   6432   6430   6452   6436     1  0.0000000  1.6038667  3
   6433   6431   6430   6444     1  0.0000000  0.6508444  3
   6433   6431   6430   6452     1  0.0000000  1.0460000  1
   6433   6431   6430   6452     1  0.0000000  0.0000000  3
   6433   6431   6434   6435     1  0.0000000  0.6508444  3
   6433   6431   6434   6442     1  0.0000000  1.0460000  1
   6433   6431   6434   6442     1  0.0000000  0.0000000  3
   6433   6431   6434   6438     1  0.0000000  0.6508444  3
   6433   6431   6443   6446     1  0.0000000  0.6973333  3
   6434   6431   6443   6446     1  0.0000000  1.0460000  1
   6434   6431   6443   6446     1  0.0000000  0.6694400  3
   6434   6435   6436   6439     1  0.0000000  0.6508444  3
   6434   6435   6441   6447     1  0.0000000  1.0460000  1
   6434   6435   6441   6447     1  0.0000000  0.6694400  3
   6435   6434   6442   6445     1  0.0000000  1.0460000  1
   6435   6434   6442   6445     1  0.0000000  0.6694400  3
   6436   6435   6434   6438     1  0.0000000  0.6508444  3
   6436   6435   6441   6447     1  0.0000000  1.0460000  1
   6436   6435   6441   6447     1  0.0000000  0.6694400  3
   6437   6435   6434   6442     1  0.0000000  1.0460000  1
   6437   6435   6434   6442     1  0.0000000  0.0000000  3
   6437   6435   6434   6438     1  0.0000000  0.6508444  3
   6437   6435   6436   6440     1  0.0000000  1.0460000  1
   6437   6435   6436   6440     1  0.0000000  0.0000000  3
   6437   6435   6436   6452     1  0.0000000  1.0460000  1
   6437   6435   6436   6452     1  0.0000000  0.0000000  3
   6437   6435   6436   6439     1  0.0000000  0.6508444  3
   6437   6435   6441   6447     1  0.0000000  0.6973333  3
   6438   6434   6431   6443     1  0.0000000  1.0460000  1
   6438   6434   6431   6443     1  0.0000000  0.0000000  3
   6438   6434   6435   6441     1  0.0000000  1.0460000  1
   6438   6434   6435   6441     1  0.0000000  0.0000000  3
   6438   6434   6442   6445     1  0.0000000  0.6973333  3
   6439   6436   6435   6441     1  0.0000000  0.6508444  3
   6448   6444   6430   6452     1  0.0000000  1.0460000  1
   6448   6444   6430   6452     1  0.0000000  0.0000000  3
   6448   6444   6450   6451     1  0.0000000  0.6973333  3
   6449   6444   6430   6452     1  0.0000000  1.0460000  1
   6449   6444   6430   6452     1  0.0000000  0.0000000  3
   6449   6444   6450   6451     1  0.0000000  0.6973333  3
   6453   6454   6457   6461     1  0.0000000  0.6508444  3
   6453   6454   6466   6469     1  0.0000000  1.0460000  1
   6453   6454   6466   6469     1  0.0000000  0.6694400  3
   6453   6467   6473   6474     1  0.0000000  1.0460000  1
   6453   6467   6473   6474     1  0.0000000  0.6694400  3
   6453   6475   6459   6462     1  0.0000000  1.6038667  3
   6454   6457   6458   6460     1  0.0000000  0.6508444  3
   6454   6457   6465   6468     1  0.0000000  1.0460000  1
   6454   6457   6465   6468     1  0.0000000  0.6694400  3
   6454   6453   6467   6471     1  0.0000000  0.6508444  3
   6454   6453   6467   6472     1  0.0000000  0.6508444  3
   6455   6453   6454   6457     1  0.0000000  0.6508444  3
   6455   6453   6454   6466     1  0.0000000  1.0460000  1
   6455   6453   6454   6466     1  0.0000000  0.0000000  3
   6455   6453   6454   6456     1  0.0000000  0.6508444  3
   6455   6453   6467   6473     1  0.0000000  1.0460000  1
   6455   6453   6467   6473     1  0.0000000  0.0000000  3
   6455   6453   6467   6471     1  0.0000000  0.6508444  3
   6455   6453   6467   6472     1  0.0000000  0.6508444  3
   6455   6453   6475   6459     1  0.0000000  1.6038667  3
   6456   6454   6457   6458     1  0.0000000  0.6508444  3
   6456   6454   6457   6465     1  0.0000000  1.0460000  1
   6456   6454   6457   6465     1  0.0000000  0.0000000  3
   6456   6454   6457   6461     1  0.0000000  0.6508444  3
   6456   6454   6466   6469     1  0.0000000  0.6973333  3
   6456   6454   6453   6467     1  0.0000000  0.6508444  3
   6456   6454   6453   6475     1  0.0000000  1.0460000  1
   6456   6454   6453   6475     1  0.0000000  0.0000000  3
   6457   6458   6459   6462     1  0.0000000  0.6508444  3
   6457   6458   6464   6470     1  0.0000000  1.0460000  1
   6457   6458   6464   6470     1  0.0000000  0.6694400  3
   6457   6454   6466   6469     1  0.0000000  1.0460000  1
   6457   6454   6466   6469     1  0.0000000  0.6694400  3
   6458   6457   6465   6468     1  0.0000000  1.0460000  1
   6458   6457   6465   6468     1  0.0000000  0.6694400  3
   6459   6458   6464   6470     1  0.0000000  1.0460000  1
   6459   6458   6464   6470     1  0.0000000  0.6694400  3
   6459   6458   6457   6461     1  0.0000000  0.6508444  3
   6460   6458   6459   6463     1  0.0000000  1.0460000  1
   6460   6458   6459   6463     1  0.0000000  0.0000000  3
   6460   6458   6459   6475     1  0.0000000  1.0460000  1
   6460   6458   6459   6475     1  0.0000000  0.0000000  3
   6460   6458   6459   6462     1  0.0000000  0.6508444  3
   6460   6458   6464   6470     1  0.0000000  0.6973333  3
   6460   6458   6457   6465     1  0.0000000  1.0460000  1
   6460   6458   6457   6465     1  0.0000000  0.0000000  3
   6460   6458   6457   6461     1  0.0000000  0.6508444  3
   6461   6457   6458   6464     1  0.0000000  1.0460000  1
   6461   6457   6458   6464     1  0.0000000  0.0000000  3
   6461   6457   6465   6468     1  0.0000000  0.6973333  3
   6461   6457   6454   6466     1  0.0000000  1.0460000  1
   6461   6457   6454   6466     1  0.0000000  0.0000000  3
   6462   6459   6458   6464     1  0.0000000  0.6508444  3
   6471   6467   6473   6474     1  0.0000000  0.6973333  3
   6471   6467   6453   6475     1  0.0000000  1.0460000  1
   6471   6467   6453   6475     1  0.0000000  0.0000000  3
   6472   6467   6473   6474     1  0.0000000  0.6973333  3
   6472   6467   6453   6475     1  0.0000000  1.0460000  1
   6472   6467   6453   6475     1  0.0000000  0.0000000  3
   6476   6477   6480   6484     1  0.0000000  0.6508444  3
   6476   6477   6489   6492     1  0.0000000  1.0460000  1
   6476   6477   6489   6492     1  0.0000000  0.6694400  3
   6476   6490   6496   6497     1  0.0000000  1.0460000  1
   6476   6490   6496   6497     1  0.0000000  0.6694400  3
   6476   6498   6482   6485     1  0.0000000  1.6038667  3
   6477   6476   6490   6494     1  0.0000000  0.6508444  3
   6477   6476   6490   6495     1  0.0000000  0.6508444  3
   6477   6480   6481   6483     1  0.0000000  0.6508444  3
   6477   6480   6488   6491     1  0.0000000  1.0460000  1
   6477   6480   6488   6491     1  0.0000000  0.6694400  3
   6478   6476   6477   6480     1  0.0000000  0.6508444  3
   6478   6476   6477   6489     1  0.0000000  1.0460000  1
   6478   6476   6477   6489     1  0.0000000  0.0000000  3
   6478   6476   6477   6479     1  0.0000000  0.6508444  3
   6478   6476   6490   6496     1  0.0000000  1.0460000  1
   6478   6476   6490   6496     1  0.0000000  0.0000000  3
   6478   6476   6490   6494     1  0.0000000  0.6508444  3
   6478   6476   6490   6495     1  0.0000000  0.6508444  3
   6478   6476   6498   6482     1  0.0000000  1.6038667  3
   6479   6477   6476   6490     1  0.0000000  0.6508444  3
   6479   6477   6476   6498     1  0.0000000  1.0460000  1
   6479   6477   6476   6498     1  0.0000000  0.0000000  3
   6479   6477   6480   6481     1  0.0000000  0.6508444  3
   6479   6477   6480   6488     1  0.0000000  1.0460000  1
   6479   6477   6480   6488     1  0.0000000  0.0000000  3
   6479   6477   6480   6484     1  0.0000000  0.6508444  3
   6479   6477   6489   6492     1  0.0000000  0.6973333  3
   6480   6477   6489   6492     1  0.0000000  1.0460000  1
   6480   6477   6489   6492     1  0.0000000  0.6694400  3
   6480   6481   6482   6485     1  0.0000000  0.6508444  3
   6480   6481   6487   6493     1  0.0000000  1.0460000  1
   6480   6481   6487   6493     1  0.0000000  0.6694400  3
   6481   6480   6488   6491     1  0.0000000  1.0460000  1
   6481   6480   6488   6491     1  0.0000000  0.6694400  3
   6482   6481   6480   6484     1  0.0000000  0.6508444  3
   6482   6481   6487   6493     1  0.0000000  1.0460000  1
   6482   6481   6487   6493     1  0.0000000  0.6694400  3
   6483   6481   6480   6488     1  0.0000000  1.0460000  1
   6483   6481   6480   6488     1  0.0000000  0.0000000  3
   6483   6481   6480   6484     1  0.0000000  0.6508444  3
   6483   6481   6482   6486     1  0.0000000  1.0460000  1
   6483   6481   6482   6486     1  0.0000000  0.0000000  3
   6483   6481   6482   6498     1  0.0000000  1.0460000  1
   6483   6481   6482   6498     1  0.0000000  0.0000000  3
   6483   6481   6482   6485     1  0.0000000  0.6508444  3
   6483   6481   6487   6493     1  0.0000000  0.6973333  3
   6484   6480   6477   6489     1  0.0000000  1.0460000  1
   6484   6480   6477   6489     1  0.0000000  0.0000000  3
   6484   6480   6481   6487     1  0.0000000  1.0460000  1
   6484   6480   6481   6487     1  0.0000000  0.0000000  3
   6484   6480   6488   6491     1  0.0000000  0.6973333  3
   6485   6482   6481   6487     1  0.0000000  0.6508444  3
   6494   6490   6476   6498     1  0.0000000  1.0460000  1
   6494   6490   6476   6498     1  0.0000000  0.0000000  3
   6494   6490   6496   6497     1  0.0000000  0.6973333  3
   6495   6490   6476   6498     1  0.0000000  1.0460000  1
   6495   6490   6476   6498     1  0.0000000  0.0000000  3
   6495   6490   6496   6497     1  0.0000000  0.6973333  3
   6499   6500   6503   6507     1  0.0000000  0.6508444  3
   6499   6500   6512   6515     1  0.0000000  1.0460000  1
   6499   6500   6512   6515     1  0.0000000  0.6694400  3
   6499   6513   6519   6520     1  0.0000000  1.0460000  1
   6499   6513   6519   6520     1  0.0000000  0.6694400  3
   6499   6521   6505   6508     1  0.0000000  1.6038667  3
   6500   6503   6504   6506     1  0.0000000  0.6508444  3
   6500   6503   6511   6514     1  0.0000000  1.0460000  1
   6500   6503   6511   6514     1  0.0000000  0.6694400  3
   6500   6499   6513   6517     1  0.0000000  0.6508444  3
   6500   6499   6513   6518     1  0.0000000  0.6508444  3
   6501   6499   6500   6503     1  0.0000000  0.6508444  3
   6501   6499   6500   6512     1  0.0000000  1.0460000  1
   6501   6499   6500   6512     1  0.0000000  0.0000000  3
   6501   6499   6500   6502     1  0.0000000  0.6508444  3
   6501   6499   6513   6519     1  0.0000000  1.0460000  1
   6501   6499   6513   6519     1  0.0000000  0.0000000  3
   6501   6499   6513   6517     1  0.0000000  0.6508444  3
   6501   6499   6513   6518     1  0.0000000  0.6508444  3
   6501   6499   6521   6505     1  0.0000000  1.6038667  3
   6502   6500   6503   6504     1  0.0000000  0.6508444  3
   6502   6500   6503   6511     1  0.0000000  1.0460000  1
   6502   6500   6503   6511     1  0.0000000  0.0000000  3
   6502   6500   6503   6507     1  0.0000000  0.6508444  3
   6502   6500   6512   6515     1  0.0000000  0.6973333  3
   6502   6500   6499   6513     1  0.0000000  0.6508444  3
   6502   6500   6499   6521     1  0.0000000  1.0460000  1
   6502   6500   6499   6521     1  0.0000000  0.0000000  3
   6503   6504   6505   6508     1  0.0000000  0.6508444  3
   6503   6504   6510   6516     1  0.0000000  1.0460000  1
   6503   6504   6510   6516     1  0.0000000  0.6694400  3
   6503   6500   6512   6515     1  0.0000000  1.0460000  1
   6503   6500   6512   6515     1  0.0000000  0.6694400  3
   6504   6503   6511   6514     1  0.0000000  1.0460000  1
   6504   6503   6511   6514     1  0.0000000  0.6694400  3
   6505   6504   6510   6516     1  0.0000000  1.0460000  1
   6505   6504   6510   6516     1  0.0000000  0.6694400  3
   6505   6504   6503   6507     1  0.0000000  0.6508444  3
   6506   6504   6505   6509     1  0.0000000  1.0460000  1
   6506   6504   6505   6509     1  0.0000000  0.0000000  3
   6506   6504   6505   6521     1  0.0000000  1.0460000  1
   6506   6504   6505   6521     1  0.0000000  0.0000000  3
   6506   6504   6505   6508     1  0.0000000  0.6508444  3
   6506   6504   6510   6516     1  0.0000000  0.6973333  3
   6506   6504   6503   6511     1  0.0000000  1.0460000  1
   6506   6504   6503   6511     1  0.0000000  0.0000000  3
   6506   6504   6503   6507     1  0.0000000  0.6508444  3
   6507   6503   6504   6510     1  0.0000000  1.0460000  1
   6507   6503   6504   6510     1  0.0000000  0.0000000  3
   6507   6503   6511   6514     1  0.0000000  0.6973333  3
   6507   6503   6500   6512     1  0.0000000  1.0460000  1
   6507   6503   6500   6512     1  0.0000000  0.0000000  3
   6508   6505   6504   6510     1  0.0000000  0.6508444  3
   6517   6513   6519   6520     1  0.0000000  0.6973333  3
   6517   6513   6499   6521     1  0.0000000  1.0460000  1
   6517   6513   6499   6521     1  0.0000000  0.0000000  3
   6518   6513   6519   6520     1  0.0000000  0.6973333  3
   6518   6513   6499   6521     1  0.0000000  1.0460000  1
   6518   6513   6499   6521     1  0.0000000  0.0000000  3
   6522   6523   6526   6530     1  0.0000000  0.6508444  3
   6522   6523   6535   6538     1  0.0000000  1.0460000  1
   6522   6523   6535   6538     1  0.0000000  0.6694400  3
   6522   6536   6542   6543     1  0.0000000  1.0460000  1
   6522   6536   6542   6543     1  0.0000000  0.6694400  3
   6522   6544   6528   6531     1  0.0000000  1.6038667  3
   6523   6522   6536   6540     1  0.0000000  0.6508444  3
   6523   6522   6536   6541     1  0.0000000  0.6508444  3
   6523   6526   6527   6529     1  0.0000000  0.6508444  3
   6523   6526   6534   6537     1  0.0000000  1.0460000  1
   6523   6526   6534   6537     1  0.0000000  0.6694400  3
   6524   6522   6523   6526     1  0.0000000  0.6508444  3
   6524   6522   6523   6535     1  0.0000000  1.0460000  1
   6524   6522   6523   6535     1  0.0000000  0.0000000  3
   6524   6522   6523   6525     1  0.0000000  0.6508444  3
   6524   6522   6536   6542     1  0.0000000  1.0460000  1
   6524   6522   6536   6542     1  0.0000000  0.0000000  3
   6524   6522   6536   6540     1  0.0000000  0.6508444  3
   6524   6522   6536   6541     1  0.0000000  0.6508444  3
   6524   6522   6544   6528     1  0.0000000  1.6038667  3
   6525   6523   6522   6536     1  0.0000000  0.6508444  3
   6525   6523   6522   6544     1  0.0000000  1.0460000  1
   6525   6523   6522   6544     1  0.0000000  0.0000000  3
   6525   6523   6526   6527     1  0.0000000  0.6508444  3
   6525   6523   6526   6534     1  0.0000000  1.0460000  1
   6525   6523   6526   6534     1  0.0000000  0.0000000  3
   6525   6523   6526   6530     1  0.0000000  0.6508444  3
   6525   6523   6535   6538     1  0.0000000  0.6973333  3
   6526   6523   6535   6538     1  0.0000000  1.0460000  1
   6526   6523   6535   6538     1  0.0000000  0.6694400  3
   6526   6527   6528   6531     1  0.0000000  0.6508444  3
   6526   6527   6533   6539     1  0.0000000  1.0460000  1
   6526   6527   6533   6539     1  0.0000000  0.6694400  3
   6527   6526   6534   6537     1  0.0000000  1.0460000  1
   6527   6526   6534   6537     1  0.0000000  0.6694400  3
   6528   6527   6526   6530     1  0.0000000  0.6508444  3
   6528   6527   6533   6539     1  0.0000000  1.0460000  1
   6528   6527   6533   6539     1  0.0000000  0.6694400  3
   6529   6527   6526   6534     1  0.0000000  1.0460000  1
   6529   6527   6526   6534     1  0.0000000  0.0000000  3
   6529   6527   6526   6530     1  0.0000000  0.6508444  3
   6529   6527   6528   6532     1  0.0000000  1.0460000  1
   6529   6527   6528   6532     1  0.0000000  0.0000000  3
   6529   6527   6528   6544     1  0.0000000  1.0460000  1
   6529   6527   6528   6544     1  0.0000000  0.0000000  3
   6529   6527   6528   6531     1  0.0000000  0.6508444  3
   6529   6527   6533   6539     1  0.0000000  0.6973333  3
   6530   6526   6523   6535     1  0.0000000  1.0460000  1
   6530   6526   6523   6535     1  0.0000000  0.0000000  3
   6530   6526   6527   6533     1  0.0000000  1.0460000  1
   6530   6526   6527   6533     1  0.0000000  0.0000000  3
   6530   6526   6534   6537     1  0.0000000  0.6973333  3
   6531   6528   6527   6533     1  0.0000000  0.6508444  3
   6540   6536   6522   6544     1  0.0000000  1.0460000  1
   6540   6536   6522   6544     1  0.0000000  0.0000000  3
   6540   6536   6542   6543     1  0.0000000  0.6973333  3
   6541   6536   6522   6544     1  0.0000000  1.0460000  1
   6541   6536   6522   6544     1  0.0000000  0.0000000  3
   6541   6536   6542   6543     1  0.0000000  0.6973333  3
   6545   6546   6549   6553     1  0.0000000  0.6508444  3
   6545   6546   6558   6561     1  0.0000000  1.0460000  1
   6545   6546   6558   6561     1  0.0000000  0.6694400  3
   6545   6559   6565   6566     1  0.0000000  1.0460000  1
   6545   6559   6565   6566     1  0.0000000  0.6694400  3
   6545   6567   6551   6554     1  0.0000000  1.6038667  3
   6546   6549   6550   6552     1  0.0000000  0.6508444  3
   6546   6549   6557   6560     1  0.0000000  1.0460000  1
   6546   6549   6557   6560     1  0.0000000  0.6694400  3
   6546   6545   6559   6563     1  0.0000000  0.6508444  3
   6546   6545   6559   6564     1  0.0000000  0.6508444  3
   6547   6545   6546   6549     1  0.0000000  0.6508444  3
   6547   6545   6546   6558     1  0.0000000  1.0460000  1
   6547   6545   6546   6558     1  0.0000000  0.0000000  3
   6547   6545   6546   6548     1  0.0000000  0.6508444  3
   6547   6545   6559   6565     1  0.0000000  1.0460000  1
   6547   6545   6559   6565     1  0.0000000  0.0000000  3
   6547   6545   6559   6563     1  0.0000000  0.6508444  3
   6547   6545   6559   6564     1  0.0000000  0.6508444  3
   6547   6545   6567   6551     1  0.0000000  1.6038667  3
   6548   6546   6549   6550     1  0.0000000  0.6508444  3
   6548   6546   6549   6557     1  0.0000000  1.0460000  1
   6548   6546   6549   6557     1  0.0000000  0.0000000  3
   6548   6546   6549   6553     1  0.0000000  0.6508444  3
   6548   6546   6558   6561     1  0.0000000  0.6973333  3
   6548   6546   6545   6559     1  0.0000000  0.6508444  3
   6548   6546   6545   6567     1  0.0000000  1.0460000  1
   6548   6546   6545   6567     1  0.0000000  0.0000000  3
   6549   6550   6551   6554     1  0.0000000  0.6508444  3
   6549   6550   6556   6562     1  0.0000000  1.0460000  1
   6549   6550   6556   6562     1  0.0000000  0.6694400  3
   6549   6546   6558   6561     1  0.0000000  1.0460000  1
   6549   6546   6558   6561     1  0.0000000  0.6694400  3
   6550   6549   6557   6560     1  0.0000000  1.0460000  1
   6550   6549   6557   6560     1  0.0000000  0.6694400  3
   6551   6550   6556   6562     1  0.0000000  1.0460000  1
   6551   6550   6556   6562     1  0.0000000  0.6694400  3
   6551   6550   6549   6553     1  0.0000000  0.6508444  3
   6552   6550   6551   6555     1  0.0000000  1.0460000  1
   6552   6550   6551   6555     1  0.0000000  0.0000000  3
   6552   6550   6551   6567     1  0.0000000  1.0460000  1
   6552   6550   6551   6567     1  0.0000000  0.0000000  3
   6552   6550   6551   6554     1  0.0000000  0.6508444  3
   6552   6550   6556   6562     1  0.0000000  0.6973333  3
   6552   6550   6549   6557     1  0.0000000  1.0460000  1
   6552   6550   6549   6557     1  0.0000000  0.0000000  3
   6552   6550   6549   6553     1  0.0000000  0.6508444  3
   6553   6549   6550   6556     1  0.0000000  1.0460000  1
   6553   6549   6550   6556     1  0.0000000  0.0000000  3
   6553   6549   6557   6560     1  0.0000000  0.6973333  3
   6553   6549   6546   6558     1  0.0000000  1.0460000  1
   6553   6549   6546   6558     1  0.0000000  0.0000000  3
   6554   6551   6550   6556     1  0.0000000  0.6508444  3
   6563   6559   6565   6566     1  0.0000000  0.6973333  3
   6563   6559   6545   6567     1  0.0000000  1.0460000  1
   6563   6559   6545   6567     1  0.0000000  0.0000000  3
   6564   6559   6565   6566     1  0.0000000  0.6973333  3
   6564   6559   6545   6567     1  0.0000000  1.0460000  1
   6564   6559   6545   6567     1  0.0000000  0.0000000  3
   6568   6569   6572   6576     1  0.0000000  0.6508444  3
   6568   6569   6581   6584     1  0.0000000  1.0460000  1
   6568   6569   6581   6584     1  0.0000000  0.6694400  3
   6568   6582   6588   6589     1  0.0000000  1.0460000  1
   6568   6582   6588   6589     1  0.0000000  0.6694400  3
   6568   6590   6574   6577     1  0.0000000  1.6038667  3
   6569   6568   6582   6586     1  0.0000000  0.6508444  3
   6569   6568   6582   6587     1  0.0000000  0.6508444  3
   6569   6572   6573   6575     1  0.0000000  0.6508444  3
   6569   6572   6580   6583     1  0.0000000  1.0460000  1
   6569   6572   6580   6583     1  0.0000000  0.6694400  3
   6570   6568   6569   6572     1  0.0000000  0.6508444  3
   6570   6568   6569   6581     1  0.0000000  1.0460000  1
   6570   6568   6569   6581     1  0.0000000  0.0000000  3
   6570   6568   6569   6571     1  0.0000000  0.6508444  3
   6570   6568   6582   6588     1  0.0000000  1.0460000  1
   6570   6568   6582   6588     1  0.0000000  0.0000000  3
   6570   6568   6582   6586     1  0.0000000  0.6508444  3
   6570   6568   6582   6587     1  0.0000000  0.6508444  3
   6570   6568   6590   6574     1  0.0000000  1.6038667  3
   6571   6569   6568   6582     1  0.0000000  0.6508444  3
   6571   6569   6568   6590     1  0.0000000  1.0460000  1
   6571   6569   6568   6590     1  0.0000000  0.0000000  3
   6571   6569   6572   6573     1  0.0000000  0.6508444  3
   6571   6569   6572   6580     1  0.0000000  1.0460000  1
   6571   6569   6572   6580     1  0.0000000  0.0000000  3
   6571   6569   6572   6576     1  0.0000000  0.6508444  3
   6571   6569   6581   6584     1  0.0000000  0.6973333  3
   6572   6569   6581   6584     1  0.0000000  1.0460000  1
   6572   6569   6581   6584     1  0.0000000  0.6694400  3
   6572   6573   6574   6577     1  0.0000000  0.6508444  3
   6572   6573   6579   6585     1  0.0000000  1.0460000  1
   6572   6573   6579   6585     1  0.0000000  0.6694400  3
   6573   6572   6580   6583     1  0.0000000  1.0460000  1
   6573   6572   6580   6583     1  0.0000000  0.6694400  3
   6574   6573   6572   6576     1  0.0000000  0.6508444  3
   6574   6573   6579   6585     1  0.0000000  1.0460000  1
   6574   6573   6579   6585     1  0.0000000  0.6694400  3
   6575   6573   6572   6580     1  0.0000000  1.0460000  1
   6575   6573   6572   6580     1  0.0000000  0.0000000  3
   6575   6573   6572   6576     1  0.0000000  0.6508444  3
   6575   6573   6574   6578     1  0.0000000  1.0460000  1
   6575   6573   6574   6578     1  0.0000000  0.0000000  3
   6575   6573   6574   6590     1  0.0000000  1.0460000  1
   6575   6573   6574   6590     1  0.0000000  0.0000000  3
   6575   6573   6574   6577     1  0.0000000  0.6508444  3
   6575   6573   6579   6585     1  0.0000000  0.6973333  3
   6576   6572   6569   6581     1  0.0000000  1.0460000  1
   6576   6572   6569   6581     1  0.0000000  0.0000000  3
   6576   6572   6573   6579     1  0.0000000  1.0460000  1
   6576   6572   6573   6579     1  0.0000000  0.0000000  3
   6576   6572   6580   6583     1  0.0000000  0.6973333  3
   6577   6574   6573   6579     1  0.0000000  0.6508444  3
   6586   6582   6568   6590     1  0.0000000  1.0460000  1
   6586   6582   6568   6590     1  0.0000000  0.0000000  3
   6586   6582   6588   6589     1  0.0000000  0.6973333  3
   6587   6582   6568   6590     1  0.0000000  1.0460000  1
   6587   6582   6568   6590     1  0.0000000  0.0000000  3
   6587   6582   6588   6589     1  0.0000000  0.6973333  3
   6591   6592   6595   6599     1  0.0000000  0.6508444  3
   6591   6592   6604   6607     1  0.0000000  1.0460000  1
   6591   6592   6604   6607     1  0.0000000  0.6694400  3
   6591   6605   6611   6612     1  0.0000000  1.0460000  1
   6591   6605   6611   6612     1  0.0000000  0.6694400  3
   6591   6613   6597   6600     1  0.0000000  1.6038667  3
   6592   6595   6596   6598     1  0.0000000  0.6508444  3
   6592   6595   6603   6606     1  0.0000000  1.0460000  1
   6592   6595   6603   6606     1  0.0000000  0.6694400  3
   6592   6591   6605   6609     1  0.0000000  0.6508444  3
   6592   6591   6605   6610     1  0.0000000  0.6508444  3
   6593   6591   6592   6595     1  0.0000000  0.6508444  3
   6593   6591   6592   6604     1  0.0000000  1.0460000  1
   6593   6591   6592   6604     1  0.0000000  0.0000000  3
   6593   6591   6592   6594     1  0.0000000  0.6508444  3
   6593   6591   6605   6611     1  0.0000000  1.0460000  1
   6593   6591   6605   6611     1  0.0000000  0.0000000  3
   6593   6591   6605   6609     1  0.0000000  0.6508444  3
   6593   6591   6605   6610     1  0.0000000  0.6508444  3
   6593   6591   6613   6597     1  0.0000000  1.6038667  3
   6594   6592   6595   6596     1  0.0000000  0.6508444  3
   6594   6592   6595   6603     1  0.0000000  1.0460000  1
   6594   6592   6595   6603     1  0.0000000  0.0000000  3
   6594   6592   6595   6599     1  0.0000000  0.6508444  3
   6594   6592   6604   6607     1  0.0000000  0.6973333  3
   6594   6592   6591   6605     1  0.0000000  0.6508444  3
   6594   6592   6591   6613     1  0.0000000  1.0460000  1
   6594   6592   6591   6613     1  0.0000000  0.0000000  3
   6595   6596   6597   6600     1  0.0000000  0.6508444  3
   6595   6596   6602   6608     1  0.0000000  1.0460000  1
   6595   6596   6602   6608     1  0.0000000  0.6694400  3
   6595   6592   6604   6607     1  0.0000000  1.0460000  1
   6595   6592   6604   6607     1  0.0000000  0.6694400  3
   6596   6595   6603   6606     1  0.0000000  1.0460000  1
   6596   6595   6603   6606     1  0.0000000  0.6694400  3
   6597   6596   6602   6608     1  0.0000000  1.0460000  1
   6597   6596   6602   6608     1  0.0000000  0.6694400  3
   6597   6596   6595   6599     1  0.0000000  0.6508444  3
   6598   6596   6597   6601     1  0.0000000  1.0460000  1
   6598   6596   6597   6601     1  0.0000000  0.0000000  3
   6598   6596   6597   6613     1  0.0000000  1.0460000  1
   6598   6596   6597   6613     1  0.0000000  0.0000000  3
   6598   6596   6597   6600     1  0.0000000  0.6508444  3
   6598   6596   6602   6608     1  0.0000000  0.6973333  3
   6598   6596   6595   6603     1  0.0000000  1.0460000  1
   6598   6596   6595   6603     1  0.0000000  0.0000000  3
   6598   6596   6595   6599     1  0.0000000  0.6508444  3
   6599   6595   6596   6602     1  0.0000000  1.0460000  1
   6599   6595   6596   6602     1  0.0000000  0.0000000  3
   6599   6595   6603   6606     1  0.0000000  0.6973333  3
   6599   6595   6592   6604     1  0.0000000  1.0460000  1
   6599   6595   6592   6604     1  0.0000000  0.0000000  3
   6600   6597   6596   6602     1  0.0000000  0.6508444  3
   6609   6605   6611   6612     1  0.0000000  0.6973333  3
   6609   6605   6591   6613     1  0.0000000  1.0460000  1
   6609   6605   6591   6613     1  0.0000000  0.0000000  3
   6610   6605   6611   6612     1  0.0000000  0.6973333  3
   6610   6605   6591   6613     1  0.0000000  1.0460000  1
   6610   6605   6591   6613     1  0.0000000  0.0000000  3
   6614   6615   6618   6622     1  0.0000000  0.6508444  3
   6614   6615   6627   6630     1  0.0000000  1.0460000  1
   6614   6615   6627   6630     1  0.0000000  0.6694400  3
   6614   6628   6634   6635     1  0.0000000  1.0460000  1
   6614   6628   6634   6635     1  0.0000000  0.6694400  3
   6614   6636   6620   6623     1  0.0000000  1.6038667  3
   6615   6614   6628   6632     1  0.0000000  0.6508444  3
   6615   6614   6628   6633     1  0.0000000  0.6508444  3
   6615   6618   6619   6621     1  0.0000000  0.6508444  3
   6615   6618   6626   6629     1  0.0000000  1.0460000  1
   6615   6618   6626   6629     1  0.0000000  0.6694400  3
   6616   6614   6615   6618     1  0.0000000  0.6508444  3
   6616   6614   6615   6627     1  0.0000000  1.0460000  1
   6616   6614   6615   6627     1  0.0000000  0.0000000  3
   6616   6614   6615   6617     1  0.0000000  0.6508444  3
   6616   6614   6628   6634     1  0.0000000  1.0460000  1
   6616   6614   6628   6634     1  0.0000000  0.0000000  3
   6616   6614   6628   6632     1  0.0000000  0.6508444  3
   6616   6614   6628   6633     1  0.0000000  0.6508444  3
   6616   6614   6636   6620     1  0.0000000  1.6038667  3
   6617   6615   6614   6628     1  0.0000000  0.6508444  3
   6617   6615   6614   6636     1  0.0000000  1.0460000  1
   6617   6615   6614   6636     1  0.0000000  0.0000000  3
   6617   6615   6618   6619     1  0.0000000  0.6508444  3
   6617   6615   6618   6626     1  0.0000000  1.0460000  1
   6617   6615   6618   6626     1  0.0000000  0.0000000  3
   6617   6615   6618   6622     1  0.0000000  0.6508444  3
   6617   6615   6627   6630     1  0.0000000  0.6973333  3
   6618   6615   6627   6630     1  0.0000000  1.0460000  1
   6618   6615   6627   6630     1  0.0000000  0.6694400  3
   6618   6619   6620   6623     1  0.0000000  0.6508444  3
   6618   6619   6625   6631     1  0.0000000  1.0460000  1
   6618   6619   6625   6631     1  0.0000000  0.6694400  3
   6619   6618   6626   6629     1  0.0000000  1.0460000  1
   6619   6618   6626   6629     1  0.0000000  0.6694400  3
   6620   6619   6618   6622     1  0.0000000  0.6508444  3
   6620   6619   6625   6631     1  0.0000000  1.0460000  1
   6620   6619   6625   6631     1  0.0000000  0.6694400  3
   6621   6619   6618   6626     1  0.0000000  1.0460000  1
   6621   6619   6618   6626     1  0.0000000  0.0000000  3
   6621   6619   6618   6622     1  0.0000000  0.6508444  3
   6621   6619   6620   6624     1  0.0000000  1.0460000  1
   6621   6619   6620   6624     1  0.0000000  0.0000000  3
   6621   6619   6620   6636     1  0.0000000  1.0460000  1
   6621   6619   6620   6636     1  0.0000000  0.0000000  3
   6621   6619   6620   6623     1  0.0000000  0.6508444  3
   6621   6619   6625   6631     1  0.0000000  0.6973333  3
   6622   6618   6615   6627     1  0.0000000  1.0460000  1
   6622   6618   6615   6627     1  0.0000000  0.0000000  3
   6622   6618   6619   6625     1  0.0000000  1.0460000  1
   6622   6618   6619   6625     1  0.0000000  0.0000000  3
   6622   6618   6626   6629     1  0.0000000  0.6973333  3
   6623   6620   6619   6625     1  0.0000000  0.6508444  3
   6632   6628   6614   6636     1  0.0000000  1.0460000  1
   6632   6628   6614   6636     1  0.0000000  0.0000000  3
   6632   6628   6634   6635     1  0.0000000  0.6973333  3
   6633   6628   6614   6636     1  0.0000000  1.0460000  1
   6633   6628   6614   6636     1  0.0000000  0.0000000  3
   6633   6628   6634   6635     1  0.0000000  0.6973333  3
   6637   6638   6641   6645     1  0.0000000  0.6508444  3
   6637   6638   6650   6653     1  0.0000000  1.0460000  1
   6637   6638   6650   6653     1  0.0000000  0.6694400  3
   6637   6651   6657   6658     1  0.0000000  1.0460000  1
   6637   6651   6657   6658     1  0.0000000  0.6694400  3
   6637   6659   6643   6646     1  0.0000000  1.6038667  3
   6638   6641   6642   6644     1  0.0000000  0.6508444  3
   6638   6641   6649   6652     1  0.0000000  1.0460000  1
   6638   6641   6649   6652     1  0.0000000  0.6694400  3
   6638   6637   6651   6655     1  0.0000000  0.6508444  3
   6638   6637   6651   6656     1  0.0000000  0.6508444  3
   6639   6637   6638   6641     1  0.0000000  0.6508444  3
   6639   6637   6638   6650     1  0.0000000  1.0460000  1
   6639   6637   6638   6650     1  0.0000000  0.0000000  3
   6639   6637   6638   6640     1  0.0000000  0.6508444  3
   6639   6637   6651   6657     1  0.0000000  1.0460000  1
   6639   6637   6651   6657     1  0.0000000  0.0000000  3
   6639   6637   6651   6655     1  0.0000000  0.6508444  3
   6639   6637   6651   6656     1  0.0000000  0.6508444  3
   6639   6637   6659   6643     1  0.0000000  1.6038667  3
   6640   6638   6641   6642     1  0.0000000  0.6508444  3
   6640   6638   6641   6649     1  0.0000000  1.0460000  1
   6640   6638   6641   6649     1  0.0000000  0.0000000  3
   6640   6638   6641   6645     1  0.0000000  0.6508444  3
   6640   6638   6650   6653     1  0.0000000  0.6973333  3
   6640   6638   6637   6651     1  0.0000000  0.6508444  3
   6640   6638   6637   6659     1  0.0000000  1.0460000  1
   6640   6638   6637   6659     1  0.0000000  0.0000000  3
   6641   6642   6643   6646     1  0.0000000  0.6508444  3
   6641   6642   6648   6654     1  0.0000000  1.0460000  1
   6641   6642   6648   6654     1  0.0000000  0.6694400  3
   6641   6638   6650   6653     1  0.0000000  1.0460000  1
   6641   6638   6650   6653     1  0.0000000  0.6694400  3
   6642   6641   6649   6652     1  0.0000000  1.0460000  1
   6642   6641   6649   6652     1  0.0000000  0.6694400  3
   6643   6642   6648   6654     1  0.0000000  1.0460000  1
   6643   6642   6648   6654     1  0.0000000  0.6694400  3
   6643   6642   6641   6645     1  0.0000000  0.6508444  3
   6644   6642   6643   6647     1  0.0000000  1.0460000  1
   6644   6642   6643   6647     1  0.0000000  0.0000000  3
   6644   6642   6643   6659     1  0.0000000  1.0460000  1
   6644   6642   6643   6659     1  0.0000000  0.0000000  3
   6644   6642   6643   6646     1  0.0000000  0.6508444  3
   6644   6642   6648   6654     1  0.0000000  0.6973333  3
   6644   6642   6641   6649     1  0.0000000  1.0460000  1
   6644   6642   6641   6649     1  0.0000000  0.0000000  3
   6644   6642   6641   6645     1  0.0000000  0.6508444  3
   6645   6641   6642   6648     1  0.0000000  1.0460000  1
   6645   6641   6642   6648     1  0.0000000  0.0000000  3
   6645   6641   6649   6652     1  0.0000000  0.6973333  3
   6645   6641   6638   6650     1  0.0000000  1.0460000  1
   6645   6641   6638   6650     1  0.0000000  0.0000000  3
   6646   6643   6642   6648     1  0.0000000  0.6508444  3
   6655   6651   6657   6658     1  0.0000000  0.6973333  3
   6655   6651   6637   6659     1  0.0000000  1.0460000  1
   6655   6651   6637   6659     1  0.0000000  0.0000000  3
   6656   6651   6657   6658     1  0.0000000  0.6973333  3
   6656   6651   6637   6659     1  0.0000000  1.0460000  1
   6656   6651   6637   6659     1  0.0000000  0.0000000  3
   6660   6661   6664   6668     1  0.0000000  0.6508444  3
   6660   6661   6673   6676     1  0.0000000  1.0460000  1
   6660   6661   6673   6676     1  0.0000000  0.6694400  3
   6660   6674   6680   6681     1  0.0000000  1.0460000  1
   6660   6674   6680   6681     1  0.0000000  0.6694400  3
   6660   6682   6666   6669     1  0.0000000  1.6038667  3
   6661   6660   6674   6678     1  0.0000000  0.6508444  3
   6661   6660   6674   6679     1  0.0000000  0.6508444  3
   6661   6664   6665   6667     1  0.0000000  0.6508444  3
   6661   6664   6672   6675     1  0.0000000  1.0460000  1
   6661   6664   6672   6675     1  0.0000000  0.6694400  3
   6662   6660   6661   6664     1  0.0000000  0.6508444  3
   6662   6660   6661   6673     1  0.0000000  1.0460000  1
   6662   6660   6661   6673     1  0.0000000  0.0000000  3
   6662   6660   6661   6663     1  0.0000000  0.6508444  3
   6662   6660   6674   6680     1  0.0000000  1.0460000  1
   6662   6660   6674   6680     1  0.0000000  0.0000000  3
   6662   6660   6674   6678     1  0.0000000  0.6508444  3
   6662   6660   6674   6679     1  0.0000000  0.6508444  3
   6662   6660   6682   6666     1  0.0000000  1.6038667  3
   6663   6661   6660   6674     1  0.0000000  0.6508444  3
   6663   6661   6660   6682     1  0.0000000  1.0460000  1
   6663   6661   6660   6682     1  0.0000000  0.0000000  3
   6663   6661   6664   6665     1  0.0000000  0.6508444  3
   6663   6661   6664   6672     1  0.0000000  1.0460000  1
   6663   6661   6664   6672     1  0.0000000  0.0000000  3
   6663   6661   6664   6668     1  0.0000000  0.6508444  3
   6663   6661   6673   6676     1  0.0000000  0.6973333  3
   6664   6661   6673   6676     1  0.0000000  1.0460000  1
   6664   6661   6673   6676     1  0.0000000  0.6694400  3
   6664   6665   6666   6669     1  0.0000000  0.6508444  3
   6664   6665   6671   6677     1  0.0000000  1.0460000  1
   6664   6665   6671   6677     1  0.0000000  0.6694400  3
   6665   6664   6672   6675     1  0.0000000  1.0460000  1
   6665   6664   6672   6675     1  0.0000000  0.6694400  3
   6666   6665   6664   6668     1  0.0000000  0.6508444  3
   6666   6665   6671   6677     1  0.0000000  1.0460000  1
   6666   6665   6671   6677     1  0.0000000  0.6694400  3
   6667   6665   6664   6672     1  0.0000000  1.0460000  1
   6667   6665   6664   6672     1  0.0000000  0.0000000  3
   6667   6665   6664   6668     1  0.0000000  0.6508444  3
   6667   6665   6666   6670     1  0.0000000  1.0460000  1
   6667   6665   6666   6670     1  0.0000000  0.0000000  3
   6667   6665   6666   6682     1  0.0000000  1.0460000  1
   6667   6665   6666   6682     1  0.0000000  0.0000000  3
   6667   6665   6666   6669     1  0.0000000  0.6508444  3
   6667   6665   6671   6677     1  0.0000000  0.6973333  3
   6668   6664   6661   6673     1  0.0000000  1.0460000  1
   6668   6664   6661   6673     1  0.0000000  0.0000000  3
   6668   6664   6665   6671     1  0.0000000  1.0460000  1
   6668   6664   6665   6671     1  0.0000000  0.0000000  3
   6668   6664   6672   6675     1  0.0000000  0.6973333  3
   6669   6666   6665   6671     1  0.0000000  0.6508444  3
   6678   6674   6660   6682     1  0.0000000  1.0460000  1
   6678   6674   6660   6682     1  0.0000000  0.0000000  3
   6678   6674   6680   6681     1  0.0000000  0.6973333  3
   6679   6674   6660   6682     1  0.0000000  1.0460000  1
   6679   6674   6660   6682     1  0.0000000  0.0000000  3
   6679   6674   6680   6681     1  0.0000000  0.6973333  3
   6683   6684   6687   6691     1  0.0000000  0.6508444  3
   6683   6684   6696   6699     1  0.0000000  1.0460000  1
   6683   6684   6696   6699     1  0.0000000  0.6694400  3
   6683   6697   6703   6704     1  0.0000000  1.0460000  1
   6683   6697   6703   6704     1  0.0000000  0.6694400  3
   6683   6705   6689   6692     1  0.0000000  1.6038667  3
   6684   6687   6688   6690     1  0.0000000  0.6508444  3
   6684   6687   6695   6698     1  0.0000000  1.0460000  1
   6684   6687   6695   6698     1  0.0000000  0.6694400  3
   6684   6683   6697   6701     1  0.0000000  0.6508444  3
   6684   6683   6697   6702     1  0.0000000  0.6508444  3
   6685   6683   6684   6687     1  0.0000000  0.6508444  3
   6685   6683   6684   6696     1  0.0000000  1.0460000  1
   6685   6683   6684   6696     1  0.0000000  0.0000000  3
   6685   6683   6684   6686     1  0.0000000  0.6508444  3
   6685   6683   6697   6703     1  0.0000000  1.0460000  1
   6685   6683   6697   6703     1  0.0000000  0.0000000  3
   6685   6683   6697   6701     1  0.0000000  0.6508444  3
   6685   6683   6697   6702     1  0.0000000  0.6508444  3
   6685   6683   6705   6689     1  0.0000000  1.6038667  3
   6686   6684   6687   6688     1  0.0000000  0.6508444  3
   6686   6684   6687   6695     1  0.0000000  1.0460000  1
   6686   6684   6687   6695     1  0.0000000  0.0000000  3
   6686   6684   6687   6691     1  0.0000000  0.6508444  3
   6686   6684   6696   6699     1  0.0000000  0.6973333  3
   6686   6684   6683   6697     1  0.0000000  0.6508444  3
   6686   6684   6683   6705     1  0.0000000  1.0460000  1
   6686   6684   6683   6705     1  0.0000000  0.0000000  3
   6687   6688   6689   6692     1  0.0000000  0.6508444  3
   6687   6688   6694   6700     1  0.0000000  1.0460000  1
   6687   6688   6694   6700     1  0.0000000  0.6694400  3
   6687   6684   6696   6699     1  0.0000000  1.0460000  1
   6687   6684   6696   6699     1  0.0000000  0.6694400  3
   6688   6687   6695   6698     1  0.0000000  1.0460000  1
   6688   6687   6695   6698     1  0.0000000  0.6694400  3
   6689   6688   6694   6700     1  0.0000000  1.0460000  1
   6689   6688   6694   6700     1  0.0000000  0.6694400  3
   6689   6688   6687   6691     1  0.0000000  0.6508444  3
   6690   6688   6689   6693     1  0.0000000  1.0460000  1
   6690   6688   6689   6693     1  0.0000000  0.0000000  3
   6690   6688   6689   6705     1  0.0000000  1.0460000  1
   6690   6688   6689   6705     1  0.0000000  0.0000000  3
   6690   6688   6689   6692     1  0.0000000  0.6508444  3
   6690   6688   6694   6700     1  0.0000000  0.6973333  3
   6690   6688   6687   6695     1  0.0000000  1.0460000  1
   6690   6688   6687   6695     1  0.0000000  0.0000000  3
   6690   6688   6687   6691     1  0.0000000  0.6508444  3
   6691   6687   6688   6694     1  0.0000000  1.0460000  1
   6691   6687   6688   6694     1  0.0000000  0.0000000  3
   6691   6687   6695   6698     1  0.0000000  0.6973333  3
   6691   6687   6684   6696     1  0.0000000  1.0460000  1
   6691   6687   6684   6696     1  0.0000000  0.0000000  3
   6692   6689   6688   6694     1  0.0000000  0.6508444  3
   6701   6697   6703   6704     1  0.0000000  0.6973333  3
   6701   6697   6683   6705     1  0.0000000  1.0460000  1
   6701   6697   6683   6705     1  0.0000000  0.0000000  3
   6702   6697   6703   6704     1  0.0000000  0.6973333  3
   6702   6697   6683   6705     1  0.0000000  1.0460000  1
   6702   6697   6683   6705     1  0.0000000  0.0000000  3
   6706   6707   6710   6714     1  0.0000000  0.6508444  3
   6706   6707   6719   6722     1  0.0000000  1.0460000  1
   6706   6707   6719   6722     1  0.0000000  0.6694400  3
   6706   6720   6726   6727     1  0.0000000  1.0460000  1
   6706   6720   6726   6727     1  0.0000000  0.6694400  3
   6706   6728   6712   6715     1  0.0000000  1.6038667  3
   6707   6706   6720   6724     1  0.0000000  0.6508444  3
   6707   6706   6720   6725     1  0.0000000  0.6508444  3
   6707   6710   6711   6713     1  0.0000000  0.6508444  3
   6707   6710   6718   6721     1  0.0000000  1.0460000  1
   6707   6710   6718   6721     1  0.0000000  0.6694400  3
   6708   6706   6707   6710     1  0.0000000  0.6508444  3
   6708   6706   6707   6719     1  0.0000000  1.0460000  1
   6708   6706   6707   6719     1  0.0000000  0.0000000  3
   6708   6706   6707   6709     1  0.0000000  0.6508444  3
   6708   6706   6720   6726     1  0.0000000  1.0460000  1
   6708   6706   6720   6726     1  0.0000000  0.0000000  3
   6708   6706   6720   6724     1  0.0000000  0.6508444  3
   6708   6706   6720   6725     1  0.0000000  0.6508444  3
   6708   6706   6728   6712     1  0.0000000  1.6038667  3
   6709   6707   6706   6720     1  0.0000000  0.6508444  3
   6709   6707   6706   6728     1  0.0000000  1.0460000  1
   6709   6707   6706   6728     1  0.0000000  0.0000000  3
   6709   6707   6710   6711     1  0.0000000  0.6508444  3
   6709   6707   6710   6718     1  0.0000000  1.0460000  1
   6709   6707   6710   6718     1  0.0000000  0.0000000  3
   6709   6707   6710   6714     1  0.0000000  0.6508444  3
   6709   6707   6719   6722     1  0.0000000  0.6973333  3
   6710   6707   6719   6722     1  0.0000000  1.0460000  1
   6710   6707   6719   6722     1  0.0000000  0.6694400  3
   6710   6711   6712   6715     1  0.0000000  0.6508444  3
   6710   6711   6717   6723     1  0.0000000  1.0460000  1
   6710   6711   6717   6723     1  0.0000000  0.6694400  3
   6711   6710   6718   6721     1  0.0000000  1.0460000  1
   6711   6710   6718   6721     1  0.0000000  0.6694400  3
   6712   6711   6710   6714     1  0.0000000  0.6508444  3
   6712   6711   6717   6723     1  0.0000000  1.0460000  1
   6712   6711   6717   6723     1  0.0000000  0.6694400  3
   6713   6711   6710   6718     1  0.0000000  1.0460000  1
   6713   6711   6710   6718     1  0.0000000  0.0000000  3
   6713   6711   6710   6714     1  0.0000000  0.6508444  3
   6713   6711   6712   6716     1  0.0000000  1.0460000  1
   6713   6711   6712   6716     1  0.0000000  0.0000000  3
   6713   6711   6712   6728     1  0.0000000  1.0460000  1
   6713   6711   6712   6728     1  0.0000000  0.0000000  3
   6713   6711   6712   6715     1  0.0000000  0.6508444  3
   6713   6711   6717   6723     1  0.0000000  0.6973333  3
   6714   6710   6707   6719     1  0.0000000  1.0460000  1
   6714   6710   6707   6719     1  0.0000000  0.0000000  3
   6714   6710   6711   6717     1  0.0000000  1.0460000  1
   6714   6710   6711   6717     1  0.0000000  0.0000000  3
   6714   6710   6718   6721     1  0.0000000  0.6973333  3
   6715   6712   6711   6717     1  0.0000000  0.6508444  3
   6724   6720   6706   6728     1  0.0000000  1.0460000  1
   6724   6720   6706   6728     1  0.0000000  0.0000000  3
   6724   6720   6726   6727     1  0.0000000  0.6973333  3
   6725   6720   6706   6728     1  0.0000000  1.0460000  1
   6725   6720   6706   6728     1  0.0000000  0.0000000  3
   6725   6720   6726   6727     1  0.0000000  0.6973333  3
   6729   6730   6733   6737     1  0.0000000  0.6508444  3
   6729   6730   6742   6745     1  0.0000000  1.0460000  1
   6729   6730   6742   6745     1  0.0000000  0.6694400  3
   6729   6743   6749   6750     1  0.0000000  1.0460000  1
   6729   6743   6749   6750     1  0.0000000  0.6694400  3
   6729   6751   6735   6738     1  0.0000000  1.6038667  3
   6730   6733   6734   6736     1  0.0000000  0.6508444  3
   6730   6733   6741   6744     1  0.0000000  1.0460000  1
   6730   6733   6741   6744     1  0.0000000  0.6694400  3
   6730   6729   6743   6747     1  0.0000000  0.6508444  3
   6730   6729   6743   6748     1  0.0000000  0.6508444  3
   6731   6729   6730   6733     1  0.0000000  0.6508444  3
   6731   6729   6730   6742     1  0.0000000  1.0460000  1
   6731   6729   6730   6742     1  0.0000000  0.0000000  3
   6731   6729   6730   6732     1  0.0000000  0.6508444  3
   6731   6729   6743   6749     1  0.0000000  1.0460000  1
   6731   6729   6743   6749     1  0.0000000  0.0000000  3
   6731   6729   6743   6747     1  0.0000000  0.6508444  3
   6731   6729   6743   6748     1  0.0000000  0.6508444  3
   6731   6729   6751   6735     1  0.0000000  1.6038667  3
   6732   6730   6733   6734     1  0.0000000  0.6508444  3
   6732   6730   6733   6741     1  0.0000000  1.0460000  1
   6732   6730   6733   6741     1  0.0000000  0.0000000  3
   6732   6730   6733   6737     1  0.0000000  0.6508444  3
   6732   6730   6742   6745     1  0.0000000  0.6973333  3
   6732   6730   6729   6743     1  0.0000000  0.6508444  3
   6732   6730   6729   6751     1  0.0000000  1.0460000  1
   6732   6730   6729   6751     1  0.0000000  0.0000000  3
   6733   6734   6735   6738     1  0.0000000  0.6508444  3
   6733   6734   6740   6746     1  0.0000000  1.0460000  1
   6733   6734   6740   6746     1  0.0000000  0.6694400  3
   6733   6730   6742   6745     1  0.0000000  1.0460000  1
   6733   6730   6742   6745     1  0.0000000  0.6694400  3
   6734   6733   6741   6744     1  0.0000000  1.0460000  1
   6734   6733   6741   6744     1  0.0000000  0.6694400  3
   6735   6734   6740   6746     1  0.0000000  1.0460000  1
   6735   6734   6740   6746     1  0.0000000  0.6694400  3
   6735   6734   6733   6737     1  0.0000000  0.6508444  3
   6736   6734   6735   6739     1  0.0000000  1.0460000  1
   6736   6734   6735   6739     1  0.0000000  0.0000000  3
   6736   6734   6735   6751     1  0.0000000  1.0460000  1
   6736   6734   6735   6751     1  0.0000000  0.0000000  3
   6736   6734   6735   6738     1  0.0000000  0.6508444  3
   6736   6734   6740   6746     1  0.0000000  0.6973333  3
   6736   6734   6733   6741     1  0.0000000  1.0460000  1
   6736   6734   6733   6741     1  0.0000000  0.0000000  3
   6736   6734   6733   6737     1  0.0000000  0.6508444  3
   6737   6733   6734   6740     1  0.0000000  1.0460000  1
   6737   6733   6734   6740     1  0.0000000  0.0000000  3
   6737   6733   6741   6744     1  0.0000000  0.6973333  3
   6737   6733   6730   6742     1  0.0000000  1.0460000  1
   6737   6733   6730   6742     1  0.0000000  0.0000000  3
   6738   6735   6734   6740     1  0.0000000  0.6508444  3
   6747   6743   6749   6750     1  0.0000000  0.6973333  3
   6747   6743   6729   6751     1  0.0000000  1.0460000  1
   6747   6743   6729   6751     1  0.0000000  0.0000000  3
   6748   6743   6749   6750     1  0.0000000  0.6973333  3
   6748   6743   6729   6751     1  0.0000000  1.0460000  1
   6748   6743   6729   6751     1  0.0000000  0.0000000  3
   6752   6753   6756   6760     1  0.0000000  0.6508444  3
   6752   6753   6765   6768     1  0.0000000  1.0460000  1
   6752   6753   6765   6768     1  0.0000000  0.6694400  3
   6752   6766   6772   6773     1  0.0000000  1.0460000  1
   6752   6766   6772   6773     1  0.0000000  0.6694400  3
   6752   6774   6758   6761     1  0.0000000  1.6038667  3
   6753   6752   6766   6770     1  0.0000000  0.6508444  3
   6753   6752   6766   6771     1  0.0000000  0.6508444  3
   6753   6756   6757   6759     1  0.0000000  0.6508444  3
   6753   6756   6764   6767     1  0.0000000  1.0460000  1
   6753   6756   6764   6767     1  0.0000000  0.6694400  3
   6754   6752   6753   6756     1  0.0000000  0.6508444  3
   6754   6752   6753   6765     1  0.0000000  1.0460000  1
   6754   6752   6753   6765     1  0.0000000  0.0000000  3
   6754   6752   6753   6755     1  0.0000000  0.6508444  3
   6754   6752   6766   6772     1  0.0000000  1.0460000  1
   6754   6752   6766   6772     1  0.0000000  0.0000000  3
   6754   6752   6766   6770     1  0.0000000  0.6508444  3
   6754   6752   6766   6771     1  0.0000000  0.6508444  3
   6754   6752   6774   6758     1  0.0000000  1.6038667  3
   6755   6753   6752   6766     1  0.0000000  0.6508444  3
   6755   6753   6752   6774     1  0.0000000  1.0460000  1
   6755   6753   6752   6774     1  0.0000000  0.0000000  3
   6755   6753   6756   6757     1  0.0000000  0.6508444  3
   6755   6753   6756   6764     1  0.0000000  1.0460000  1
   6755   6753   6756   6764     1  0.0000000  0.0000000  3
   6755   6753   6756   6760     1  0.0000000  0.6508444  3
   6755   6753   6765   6768     1  0.0000000  0.6973333  3
   6756   6753   6765   6768     1  0.0000000  1.0460000  1
   6756   6753   6765   6768     1  0.0000000  0.6694400  3
   6756   6757   6758   6761     1  0.0000000  0.6508444  3
   6756   6757   6763   6769     1  0.0000000  1.0460000  1
   6756   6757   6763   6769     1  0.0000000  0.6694400  3
   6757   6756   6764   6767     1  0.0000000  1.0460000  1
   6757   6756   6764   6767     1  0.0000000  0.6694400  3
   6758   6757   6756   6760     1  0.0000000  0.6508444  3
   6758   6757   6763   6769     1  0.0000000  1.0460000  1
   6758   6757   6763   6769     1  0.0000000  0.6694400  3
   6759   6757   6756   6764     1  0.0000000  1.0460000  1
   6759   6757   6756   6764     1  0.0000000  0.0000000  3
   6759   6757   6756   6760     1  0.0000000  0.6508444  3
   6759   6757   6758   6762     1  0.0000000  1.0460000  1
   6759   6757   6758   6762     1  0.0000000  0.0000000  3
   6759   6757   6758   6774     1  0.0000000  1.0460000  1
   6759   6757   6758   6774     1  0.0000000  0.0000000  3
   6759   6757   6758   6761     1  0.0000000  0.6508444  3
   6759   6757   6763   6769     1  0.0000000  0.6973333  3
   6760   6756   6753   6765     1  0.0000000  1.0460000  1
   6760   6756   6753   6765     1  0.0000000  0.0000000  3
   6760   6756   6757   6763     1  0.0000000  1.0460000  1
   6760   6756   6757   6763     1  0.0000000  0.0000000  3
   6760   6756   6764   6767     1  0.0000000  0.6973333  3
   6761   6758   6757   6763     1  0.0000000  0.6508444  3
   6770   6766   6752   6774     1  0.0000000  1.0460000  1
   6770   6766   6752   6774     1  0.0000000  0.0000000  3
   6770   6766   6772   6773     1  0.0000000  0.6973333  3
   6771   6766   6752   6774     1  0.0000000  1.0460000  1
   6771   6766   6752   6774     1  0.0000000  0.0000000  3
   6771   6766   6772   6773     1  0.0000000  0.6973333  3
   6775   6776   6779   6783     1  0.0000000  0.6508444  3
   6775   6776   6788   6791     1  0.0000000  1.0460000  1
   6775   6776   6788   6791     1  0.0000000  0.6694400  3
   6775   6789   6795   6796     1  0.0000000  1.0460000  1
   6775   6789   6795   6796     1  0.0000000  0.6694400  3
   6775   6797   6781   6784     1  0.0000000  1.6038667  3
   6776   6779   6780   6782     1  0.0000000  0.6508444  3
   6776   6779   6787   6790     1  0.0000000  1.0460000  1
   6776   6779   6787   6790     1  0.0000000  0.6694400  3
   6776   6775   6789   6793     1  0.0000000  0.6508444  3
   6776   6775   6789   6794     1  0.0000000  0.6508444  3
   6777   6775   6776   6779     1  0.0000000  0.6508444  3
   6777   6775   6776   6788     1  0.0000000  1.0460000  1
   6777   6775   6776   6788     1  0.0000000  0.0000000  3
   6777   6775   6776   6778     1  0.0000000  0.6508444  3
   6777   6775   6789   6795     1  0.0000000  1.0460000  1
   6777   6775   6789   6795     1  0.0000000  0.0000000  3
   6777   6775   6789   6793     1  0.0000000  0.6508444  3
   6777   6775   6789   6794     1  0.0000000  0.6508444  3
   6777   6775   6797   6781     1  0.0000000  1.6038667  3
   6778   6776   6779   6780     1  0.0000000  0.6508444  3
   6778   6776   6779   6787     1  0.0000000  1.0460000  1
   6778   6776   6779   6787     1  0.0000000  0.0000000  3
   6778   6776   6779   6783     1  0.0000000  0.6508444  3
   6778   6776   6788   6791     1  0.0000000  0.6973333  3
   6778   6776   6775   6789     1  0.0000000  0.6508444  3
   6778   6776   6775   6797     1  0.0000000  1.0460000  1
   6778   6776   6775   6797     1  0.0000000  0.0000000  3
   6779   6780   6781   6784     1  0.0000000  0.6508444  3
   6779   6780   6786   6792     1  0.0000000  1.0460000  1
   6779   6780   6786   6792     1  0.0000000  0.6694400  3
   6779   6776   6788   6791     1  0.0000000  1.0460000  1
   6779   6776   6788   6791     1  0.0000000  0.6694400  3
   6780   6779   6787   6790     1  0.0000000  1.0460000  1
   6780   6779   6787   6790     1  0.0000000  0.6694400  3
   6781   6780   6786   6792     1  0.0000000  1.0460000  1
   6781   6780   6786   6792     1  0.0000000  0.6694400  3
   6781   6780   6779   6783     1  0.0000000  0.6508444  3
   6782   6780   6781   6785     1  0.0000000  1.0460000  1
   6782   6780   6781   6785     1  0.0000000  0.0000000  3
   6782   6780   6781   6797     1  0.0000000  1.0460000  1
   6782   6780   6781   6797     1  0.0000000  0.0000000  3
   6782   6780   6781   6784     1  0.0000000  0.6508444  3
   6782   6780   6786   6792     1  0.0000000  0.6973333  3
   6782   6780   6779   6787     1  0.0000000  1.0460000  1
   6782   6780   6779   6787     1  0.0000000  0.0000000  3
   6782   6780   6779   6783     1  0.0000000  0.6508444  3
   6783   6779   6780   6786     1  0.0000000  1.0460000  1
   6783   6779   6780   6786     1  0.0000000  0.0000000  3
   6783   6779   6787   6790     1  0.0000000  0.6973333  3
   6783   6779   6776   6788     1  0.0000000  1.0460000  1
   6783   6779   6776   6788     1  0.0000000  0.0000000  3
   6784   6781   6780   6786     1  0.0000000  0.6508444  3
   6793   6789   6795   6796     1  0.0000000  0.6973333  3
   6793   6789   6775   6797     1  0.0000000  1.0460000  1
   6793   6789   6775   6797     1  0.0000000  0.0000000  3
   6794   6789   6795   6796     1  0.0000000  0.6973333  3
   6794   6789   6775   6797     1  0.0000000  1.0460000  1
   6794   6789   6775   6797     1  0.0000000  0.0000000  3
   6798   6799   6802   6806     1  0.0000000  0.6508444  3
   6798   6799   6811   6814     1  0.0000000  1.0460000  1
   6798   6799   6811   6814     1  0.0000000  0.6694400  3
   6798   6812   6818   6819     1  0.0000000  1.0460000  1
   6798   6812   6818   6819     1  0.0000000  0.6694400  3
   6798   6820   6804   6807     1  0.0000000  1.6038667  3
   6799   6798   6812   6816     1  0.0000000  0.6508444  3
   6799   6798   6812   6817     1  0.0000000  0.6508444  3
   6799   6802   6803   6805     1  0.0000000  0.6508444  3
   6799   6802   6810   6813     1  0.0000000  1.0460000  1
   6799   6802   6810   6813     1  0.0000000  0.6694400  3
   6800   6798   6799   6802     1  0.0000000  0.6508444  3
   6800   6798   6799   6811     1  0.0000000  1.0460000  1
   6800   6798   6799   6811     1  0.0000000  0.0000000  3
   6800   6798   6799   6801     1  0.0000000  0.6508444  3
   6800   6798   6812   6818     1  0.0000000  1.0460000  1
   6800   6798   6812   6818     1  0.0000000  0.0000000  3
   6800   6798   6812   6816     1  0.0000000  0.6508444  3
   6800   6798   6812   6817     1  0.0000000  0.6508444  3
   6800   6798   6820   6804     1  0.0000000  1.6038667  3
   6801   6799   6798   6812     1  0.0000000  0.6508444  3
   6801   6799   6798   6820     1  0.0000000  1.0460000  1
   6801   6799   6798   6820     1  0.0000000  0.0000000  3
   6801   6799   6802   6803     1  0.0000000  0.6508444  3
   6801   6799   6802   6810     1  0.0000000  1.0460000  1
   6801   6799   6802   6810     1  0.0000000  0.0000000  3
   6801   6799   6802   6806     1  0.0000000  0.6508444  3
   6801   6799   6811   6814     1  0.0000000  0.6973333  3
   6802   6799   6811   6814     1  0.0000000  1.0460000  1
   6802   6799   6811   6814     1  0.0000000  0.6694400  3
   6802   6803   6804   6807     1  0.0000000  0.6508444  3
   6802   6803   6809   6815     1  0.0000000  1.0460000  1
   6802   6803   6809   6815     1  0.0000000  0.6694400  3
   6803   6802   6810   6813     1  0.0000000  1.0460000  1
   6803   6802   6810   6813     1  0.0000000  0.6694400  3
   6804   6803   6802   6806     1  0.0000000  0.6508444  3
   6804   6803   6809   6815     1  0.0000000  1.0460000  1
   6804   6803   6809   6815     1  0.0000000  0.6694400  3
   6805   6803   6802   6810     1  0.0000000  1.0460000  1
   6805   6803   6802   6810     1  0.0000000  0.0000000  3
   6805   6803   6802   6806     1  0.0000000  0.6508444  3
   6805   6803   6804   6808     1  0.0000000  1.0460000  1
   6805   6803   6804   6808     1  0.0000000  0.0000000  3
   6805   6803   6804   6820     1  0.0000000  1.0460000  1
   6805   6803   6804   6820     1  0.0000000  0.0000000  3
   6805   6803   6804   6807     1  0.0000000  0.6508444  3
   6805   6803   6809   6815     1  0.0000000  0.6973333  3
   6806   6802   6799   6811     1  0.0000000  1.0460000  1
   6806   6802   6799   6811     1  0.0000000  0.0000000  3
   6806   6802   6803   6809     1  0.0000000  1.0460000  1
   6806   6802   6803   6809     1  0.0000000  0.0000000  3
   6806   6802   6810   6813     1  0.0000000  0.6973333  3
   6807   6804   6803   6809     1  0.0000000  0.6508444  3
   6816   6812   6798   6820     1  0.0000000  1.0460000  1
   6816   6812   6798   6820     1  0.0000000  0.0000000  3
   6816   6812   6818   6819     1  0.0000000  0.6973333  3
   6817   6812   6798   6820     1  0.0000000  1.0460000  1
   6817   6812   6798   6820     1  0.0000000  0.0000000  3
   6817   6812   6818   6819     1  0.0000000  0.6973333  3
   6821   6822   6825   6829     1  0.0000000  0.6508444  3
   6821   6822   6834   6837     1  0.0000000  1.0460000  1
   6821   6822   6834   6837     1  0.0000000  0.6694400  3
   6821   6835   6841   6842     1  0.0000000  1.0460000  1
   6821   6835   6841   6842     1  0.0000000  0.6694400  3
   6821   6843   6827   6830     1  0.0000000  1.6038667  3
   6822   6825   6826   6828     1  0.0000000  0.6508444  3
   6822   6825   6833   6836     1  0.0000000  1.0460000  1
   6822   6825   6833   6836     1  0.0000000  0.6694400  3
   6822   6821   6835   6839     1  0.0000000  0.6508444  3
   6822   6821   6835   6840     1  0.0000000  0.6508444  3
   6823   6821   6822   6825     1  0.0000000  0.6508444  3
   6823   6821   6822   6834     1  0.0000000  1.0460000  1
   6823   6821   6822   6834     1  0.0000000  0.0000000  3
   6823   6821   6822   6824     1  0.0000000  0.6508444  3
   6823   6821   6835   6841     1  0.0000000  1.0460000  1
   6823   6821   6835   6841     1  0.0000000  0.0000000  3
   6823   6821   6835   6839     1  0.0000000  0.6508444  3
   6823   6821   6835   6840     1  0.0000000  0.6508444  3
   6823   6821   6843   6827     1  0.0000000  1.6038667  3
   6824   6822   6825   6826     1  0.0000000  0.6508444  3
   6824   6822   6825   6833     1  0.0000000  1.0460000  1
   6824   6822   6825   6833     1  0.0000000  0.0000000  3
   6824   6822   6825   6829     1  0.0000000  0.6508444  3
   6824   6822   6834   6837     1  0.0000000  0.6973333  3
   6824   6822   6821   6835     1  0.0000000  0.6508444  3
   6824   6822   6821   6843     1  0.0000000  1.0460000  1
   6824   6822   6821   6843     1  0.0000000  0.0000000  3
   6825   6826   6827   6830     1  0.0000000  0.6508444  3
   6825   6826   6832   6838     1  0.0000000  1.0460000  1
   6825   6826   6832   6838     1  0.0000000  0.6694400  3
   6825   6822   6834   6837     1  0.0000000  1.0460000  1
   6825   6822   6834   6837     1  0.0000000  0.6694400  3
   6826   6825   6833   6836     1  0.0000000  1.0460000  1
   6826   6825   6833   6836     1  0.0000000  0.6694400  3
   6827   6826   6832   6838     1  0.0000000  1.0460000  1
   6827   6826   6832   6838     1  0.0000000  0.6694400  3
   6827   6826   6825   6829     1  0.0000000  0.6508444  3
   6828   6826   6827   6831     1  0.0000000  1.0460000  1
   6828   6826   6827   6831     1  0.0000000  0.0000000  3
   6828   6826   6827   6843     1  0.0000000  1.0460000  1
   6828   6826   6827   6843     1  0.0000000  0.0000000  3
   6828   6826   6827   6830     1  0.0000000  0.6508444  3
   6828   6826   6832   6838     1  0.0000000  0.6973333  3
   6828   6826   6825   6833     1  0.0000000  1.0460000  1
   6828   6826   6825   6833     1  0.0000000  0.0000000  3
   6828   6826   6825   6829     1  0.0000000  0.6508444  3
   6829   6825   6826   6832     1  0.0000000  1.0460000  1
   6829   6825   6826   6832     1  0.0000000  0.0000000  3
   6829   6825   6833   6836     1  0.0000000  0.6973333  3
   6829   6825   6822   6834     1  0.0000000  1.0460000  1
   6829   6825   6822   6834     1  0.0000000  0.0000000  3
   6830   6827   6826   6832     1  0.0000000  0.6508444  3
   6839   6835   6841   6842     1  0.0000000  0.6973333  3
   6839   6835   6821   6843     1  0.0000000  1.0460000  1
   6839   6835   6821   6843     1  0.0000000  0.0000000  3
   6840   6835   6841   6842     1  0.0000000  0.6973333  3
   6840   6835   6821   6843     1  0.0000000  1.0460000  1
   6840   6835   6821   6843     1  0.0000000  0.0000000  3
   6844   6845   6848   6852     1  0.0000000  0.6508444  3
   6844   6845   6857   6860     1  0.0000000  1.0460000  1
   6844   6845   6857   6860     1  0.0000000  0.6694400  3
   6844   6858   6864   6865     1  0.0000000  1.0460000  1
   6844   6858   6864   6865     1  0.0000000  0.6694400  3
   6844   6866   6850   6853     1  0.0000000  1.6038667  3
   6845   6844   6858   6862     1  0.0000000  0.6508444  3
   6845   6844   6858   6863     1  0.0000000  0.6508444  3
   6845   6848   6849   6851     1  0.0000000  0.6508444  3
   6845   6848   6856   6859     1  0.0000000  1.0460000  1
   6845   6848   6856   6859     1  0.0000000  0.6694400  3
   6846   6844   6845   6848     1  0.0000000  0.6508444  3
   6846   6844   6845   6857     1  0.0000000  1.0460000  1
   6846   6844   6845   6857     1  0.0000000  0.0000000  3
   6846   6844   6845   6847     1  0.0000000  0.6508444  3
   6846   6844   6858   6864     1  0.0000000  1.0460000  1
   6846   6844   6858   6864     1  0.0000000  0.0000000  3
   6846   6844   6858   6862     1  0.0000000  0.6508444  3
   6846   6844   6858   6863     1  0.0000000  0.6508444  3
   6846   6844   6866   6850     1  0.0000000  1.6038667  3
   6847   6845   6844   6858     1  0.0000000  0.6508444  3
   6847   6845   6844   6866     1  0.0000000  1.0460000  1
   6847   6845   6844   6866     1  0.0000000  0.0000000  3
   6847   6845   6848   6849     1  0.0000000  0.6508444  3
   6847   6845   6848   6856     1  0.0000000  1.0460000  1
   6847   6845   6848   6856     1  0.0000000  0.0000000  3
   6847   6845   6848   6852     1  0.0000000  0.6508444  3
   6847   6845   6857   6860     1  0.0000000  0.6973333  3
   6848   6845   6857   6860     1  0.0000000  1.0460000  1
   6848   6845   6857   6860     1  0.0000000  0.6694400  3
   6848   6849   6850   6853     1  0.0000000  0.6508444  3
   6848   6849   6855   6861     1  0.0000000  1.0460000  1
   6848   6849   6855   6861     1  0.0000000  0.6694400  3
   6849   6848   6856   6859     1  0.0000000  1.0460000  1
   6849   6848   6856   6859     1  0.0000000  0.6694400  3
   6850   6849   6848   6852     1  0.0000000  0.6508444  3
   6850   6849   6855   6861     1  0.0000000  1.0460000  1
   6850   6849   6855   6861     1  0.0000000  0.6694400  3
   6851   6849   6848   6856     1  0.0000000  1.0460000  1
   6851   6849   6848   6856     1  0.0000000  0.0000000  3
   6851   6849   6848   6852     1  0.0000000  0.6508444  3
   6851   6849   6850   6854     1  0.0000000  1.0460000  1
   6851   6849   6850   6854     1  0.0000000  0.0000000  3
   6851   6849   6850   6866     1  0.0000000  1.0460000  1
   6851   6849   6850   6866     1  0.0000000  0.0000000  3
   6851   6849   6850   6853     1  0.0000000  0.6508444  3
   6851   6849   6855   6861     1  0.0000000  0.6973333  3
   6852   6848   6845   6857     1  0.0000000  1.0460000  1
   6852   6848   6845   6857     1  0.0000000  0.0000000  3
   6852   6848   6849   6855     1  0.0000000  1.0460000  1
   6852   6848   6849   6855     1  0.0000000  0.0000000  3
   6852   6848   6856   6859     1  0.0000000  0.6973333  3
   6853   6850   6849   6855     1  0.0000000  0.6508444  3
   6862   6858   6844   6866     1  0.0000000  1.0460000  1
   6862   6858   6844   6866     1  0.0000000  0.0000000  3
   6862   6858   6864   6865     1  0.0000000  0.6973333  3
   6863   6858   6844   6866     1  0.0000000  1.0460000  1
   6863   6858   6844   6866     1  0.0000000  0.0000000  3
   6863   6858   6864   6865     1  0.0000000  0.6973333  3
   6867   6868   6871   6875     1  0.0000000  0.6508444  3
   6867   6868   6880   6883     1  0.0000000  1.0460000  1
   6867   6868   6880   6883     1  0.0000000  0.6694400  3
   6867   6881   6887   6888     1  0.0000000  1.0460000  1
   6867   6881   6887   6888     1  0.0000000  0.6694400  3
   6867   6889   6873   6876     1  0.0000000  1.6038667  3
   6868   6871   6872   6874     1  0.0000000  0.6508444  3
   6868   6871   6879   6882     1  0.0000000  1.0460000  1
   6868   6871   6879   6882     1  0.0000000  0.6694400  3
   6868   6867   6881   6885     1  0.0000000  0.6508444  3
   6868   6867   6881   6886     1  0.0000000  0.6508444  3
   6869   6867   6868   6871     1  0.0000000  0.6508444  3
   6869   6867   6868   6880     1  0.0000000  1.0460000  1
   6869   6867   6868   6880     1  0.0000000  0.0000000  3
   6869   6867   6868   6870     1  0.0000000  0.6508444  3
   6869   6867   6881   6887     1  0.0000000  1.0460000  1
   6869   6867   6881   6887     1  0.0000000  0.0000000  3
   6869   6867   6881   6885     1  0.0000000  0.6508444  3
   6869   6867   6881   6886     1  0.0000000  0.6508444  3
   6869   6867   6889   6873     1  0.0000000  1.6038667  3
   6870   6868   6871   6872     1  0.0000000  0.6508444  3
   6870   6868   6871   6879     1  0.0000000  1.0460000  1
   6870   6868   6871   6879     1  0.0000000  0.0000000  3
   6870   6868   6871   6875     1  0.0000000  0.6508444  3
   6870   6868   6880   6883     1  0.0000000  0.6973333  3
   6870   6868   6867   6881     1  0.0000000  0.6508444  3
   6870   6868   6867   6889     1  0.0000000  1.0460000  1
   6870   6868   6867   6889     1  0.0000000  0.0000000  3
   6871   6872   6873   6876     1  0.0000000  0.6508444  3
   6871   6872   6878   6884     1  0.0000000  1.0460000  1
   6871   6872   6878   6884     1  0.0000000  0.6694400  3
   6871   6868   6880   6883     1  0.0000000  1.0460000  1
   6871   6868   6880   6883     1  0.0000000  0.6694400  3
   6872   6871   6879   6882     1  0.0000000  1.0460000  1
   6872   6871   6879   6882     1  0.0000000  0.6694400  3
   6873   6872   6878   6884     1  0.0000000  1.0460000  1
   6873   6872   6878   6884     1  0.0000000  0.6694400  3
   6873   6872   6871   6875     1  0.0000000  0.6508444  3
   6874   6872   6873   6877     1  0.0000000  1.0460000  1
   6874   6872   6873   6877     1  0.0000000  0.0000000  3
   6874   6872   6873   6889     1  0.0000000  1.0460000  1
   6874   6872   6873   6889     1  0.0000000  0.0000000  3
   6874   6872   6873   6876     1  0.0000000  0.6508444  3
   6874   6872   6878   6884     1  0.0000000  0.6973333  3
   6874   6872   6871   6879     1  0.0000000  1.0460000  1
   6874   6872   6871   6879     1  0.0000000  0.0000000  3
   6874   6872   6871   6875     1  0.0000000  0.6508444  3
   6875   6871   6872   6878     1  0.0000000  1.0460000  1
   6875   6871   6872   6878     1  0.0000000  0.0000000  3
   6875   6871   6879   6882     1  0.0000000  0.6973333  3
   6875   6871   6868   6880     1  0.0000000  1.0460000  1
   6875   6871   6868   6880     1  0.0000000  0.0000000  3
   6876   6873   6872   6878     1  0.0000000  0.6508444  3
   6885   6881   6887   6888     1  0.0000000  0.6973333  3
   6885   6881   6867   6889     1  0.0000000  1.0460000  1
   6885   6881   6867   6889     1  0.0000000  0.0000000  3
   6886   6881   6887   6888     1  0.0000000  0.6973333  3
   6886   6881   6867   6889     1  0.0000000  1.0460000  1
   6886   6881   6867   6889     1  0.0000000  0.0000000  3
   6890   6891   6894   6898     1  0.0000000  0.6508444  3
   6890   6891   6903   6906     1  0.0000000  1.0460000  1
   6890   6891   6903   6906     1  0.0000000  0.6694400  3
   6890   6904   6910   6911     1  0.0000000  1.0460000  1
   6890   6904   6910   6911     1  0.0000000  0.6694400  3
   6890   6912   6896   6899     1  0.0000000  1.6038667  3
   6891   6890   6904   6908     1  0.0000000  0.6508444  3
   6891   6890   6904   6909     1  0.0000000  0.6508444  3
   6891   6894   6895   6897     1  0.0000000  0.6508444  3
   6891   6894   6902   6905     1  0.0000000  1.0460000  1
   6891   6894   6902   6905     1  0.0000000  0.6694400  3
   6892   6890   6891   6894     1  0.0000000  0.6508444  3
   6892   6890   6891   6903     1  0.0000000  1.0460000  1
   6892   6890   6891   6903     1  0.0000000  0.0000000  3
   6892   6890   6891   6893     1  0.0000000  0.6508444  3
   6892   6890   6904   6910     1  0.0000000  1.0460000  1
   6892   6890   6904   6910     1  0.0000000  0.0000000  3
   6892   6890   6904   6908     1  0.0000000  0.6508444  3
   6892   6890   6904   6909     1  0.0000000  0.6508444  3
   6892   6890   6912   6896     1  0.0000000  1.6038667  3
   6893   6891   6890   6904     1  0.0000000  0.6508444  3
   6893   6891   6890   6912     1  0.0000000  1.0460000  1
   6893   6891   6890   6912     1  0.0000000  0.0000000  3
   6893   6891   6894   6895     1  0.0000000  0.6508444  3
   6893   6891   6894   6902     1  0.0000000  1.0460000  1
   6893   6891   6894   6902     1  0.0000000  0.0000000  3
   6893   6891   6894   6898     1  0.0000000  0.6508444  3
   6893   6891   6903   6906     1  0.0000000  0.6973333  3
   6894   6891   6903   6906     1  0.0000000  1.0460000  1
   6894   6891   6903   6906     1  0.0000000  0.6694400  3
   6894   6895   6896   6899     1  0.0000000  0.6508444  3
   6894   6895   6901   6907     1  0.0000000  1.0460000  1
   6894   6895   6901   6907     1  0.0000000  0.6694400  3
   6895   6894   6902   6905     1  0.0000000  1.0460000  1
   6895   6894   6902   6905     1  0.0000000  0.6694400  3
   6896   6895   6894   6898     1  0.0000000  0.6508444  3
   6896   6895   6901   6907     1  0.0000000  1.0460000  1
   6896   6895   6901   6907     1  0.0000000  0.6694400  3
   6897   6895   6894   6902     1  0.0000000  1.0460000  1
   6897   6895   6894   6902     1  0.0000000  0.0000000  3
   6897   6895   6894   6898     1  0.0000000  0.6508444  3
   6897   6895   6896   6900     1  0.0000000  1.0460000  1
   6897   6895   6896   6900     1  0.0000000  0.0000000  3
   6897   6895   6896   6912     1  0.0000000  1.0460000  1
   6897   6895   6896   6912     1  0.0000000  0.0000000  3
   6897   6895   6896   6899     1  0.0000000  0.6508444  3
   6897   6895   6901   6907     1  0.0000000  0.6973333  3
   6898   6894   6891   6903     1  0.0000000  1.0460000  1
   6898   6894   6891   6903     1  0.0000000  0.0000000  3
   6898   6894   6895   6901     1  0.0000000  1.0460000  1
   6898   6894   6895   6901     1  0.0000000  0.0000000  3
   6898   6894   6902   6905     1  0.0000000  0.6973333  3
   6899   6896   6895   6901     1  0.0000000  0.6508444  3
   6908   6904   6890   6912     1  0.0000000  1.0460000  1
   6908   6904   6890   6912     1  0.0000000  0.0000000  3
   6908   6904   6910   6911     1  0.0000000  0.6973333  3
   6909   6904   6890   6912     1  0.0000000  1.0460000  1
   6909   6904   6890   6912     1  0.0000000  0.0000000  3
   6909   6904   6910   6911     1  0.0000000  0.6973333  3
   6913   6914   6917   6921     1  0.0000000  0.6508444  3
   6913   6914   6926   6929     1  0.0000000  1.0460000  1
   6913   6914   6926   6929     1  0.0000000  0.6694400  3
   6913   6927   6933   6934     1  0.0000000  1.0460000  1
   6913   6927   6933   6934     1  0.0000000  0.6694400  3
   6913   6935   6919   6922     1  0.0000000  1.6038667  3
   6914   6917   6918   6920     1  0.0000000  0.6508444  3
   6914   6917   6925   6928     1  0.0000000  1.0460000  1
   6914   6917   6925   6928     1  0.0000000  0.6694400  3
   6914   6913   6927   6931     1  0.0000000  0.6508444  3
   6914   6913   6927   6932     1  0.0000000  0.6508444  3
   6915   6913   6914   6917     1  0.0000000  0.6508444  3
   6915   6913   6914   6926     1  0.0000000  1.0460000  1
   6915   6913   6914   6926     1  0.0000000  0.0000000  3
   6915   6913   6914   6916     1  0.0000000  0.6508444  3
   6915   6913   6927   6933     1  0.0000000  1.0460000  1
   6915   6913   6927   6933     1  0.0000000  0.0000000  3
   6915   6913   6927   6931     1  0.0000000  0.6508444  3
   6915   6913   6927   6932     1  0.0000000  0.6508444  3
   6915   6913   6935   6919     1  0.0000000  1.6038667  3
   6916   6914   6917   6918     1  0.0000000  0.6508444  3
   6916   6914   6917   6925     1  0.0000000  1.0460000  1
   6916   6914   6917   6925     1  0.0000000  0.0000000  3
   6916   6914   6917   6921     1  0.0000000  0.6508444  3
   6916   6914   6926   6929     1  0.0000000  0.6973333  3
   6916   6914   6913   6927     1  0.0000000  0.6508444  3
   6916   6914   6913   6935     1  0.0000000  1.0460000  1
   6916   6914   6913   6935     1  0.0000000  0.0000000  3
   6917   6918   6919   6922     1  0.0000000  0.6508444  3
   6917   6918   6924   6930     1  0.0000000  1.0460000  1
   6917   6918   6924   6930     1  0.0000000  0.6694400  3
   6917   6914   6926   6929     1  0.0000000  1.0460000  1
   6917   6914   6926   6929     1  0.0000000  0.6694400  3
   6918   6917   6925   6928     1  0.0000000  1.0460000  1
   6918   6917   6925   6928     1  0.0000000  0.6694400  3
   6919   6918   6924   6930     1  0.0000000  1.0460000  1
   6919   6918   6924   6930     1  0.0000000  0.6694400  3
   6919   6918   6917   6921     1  0.0000000  0.6508444  3
   6920   6918   6919   6923     1  0.0000000  1.0460000  1
   6920   6918   6919   6923     1  0.0000000  0.0000000  3
   6920   6918   6919   6935     1  0.0000000  1.0460000  1
   6920   6918   6919   6935     1  0.0000000  0.0000000  3
   6920   6918   6919   6922     1  0.0000000  0.6508444  3
   6920   6918   6924   6930     1  0.0000000  0.6973333  3
   6920   6918   6917   6925     1  0.0000000  1.0460000  1
   6920   6918   6917   6925     1  0.0000000  0.0000000  3
   6920   6918   6917   6921     1  0.0000000  0.6508444  3
   6921   6917   6918   6924     1  0.0000000  1.0460000  1
   6921   6917   6918   6924     1  0.0000000  0.0000000  3
   6921   6917   6925   6928     1  0.0000000  0.6973333  3
   6921   6917   6914   6926     1  0.0000000  1.0460000  1
   6921   6917   6914   6926     1  0.0000000  0.0000000  3
   6922   6919   6918   6924     1  0.0000000  0.6508444  3
   6931   6927   6933   6934     1  0.0000000  0.6973333  3
   6931   6927   6913   6935     1  0.0000000  1.0460000  1
   6931   6927   6913   6935     1  0.0000000  0.0000000  3
   6932   6927   6933   6934     1  0.0000000  0.6973333  3
   6932   6927   6913   6935     1  0.0000000  1.0460000  1
   6932   6927   6913   6935     1  0.0000000  0.0000000  3
   6936   6937   6940   6944     1  0.0000000  0.6508444  3
   6936   6937   6949   6952     1  0.0000000  1.0460000  1
   6936   6937   6949   6952     1  0.0000000  0.6694400  3
   6936   6950   6956   6957     1  0.0000000  1.0460000  1
   6936   6950   6956   6957     1  0.0000000  0.6694400  3
   6936   6958   6942   6945     1  0.0000000  1.6038667  3
   6937   6936   6950   6954     1  0.0000000  0.6508444  3
   6937   6936   6950   6955     1  0.0000000  0.6508444  3
   6937   6940   6941   6943     1  0.0000000  0.6508444  3
   6937   6940   6948   6951     1  0.0000000  1.0460000  1
   6937   6940   6948   6951     1  0.0000000  0.6694400  3
   6938   6936   6937   6940     1  0.0000000  0.6508444  3
   6938   6936   6937   6949     1  0.0000000  1.0460000  1
   6938   6936   6937   6949     1  0.0000000  0.0000000  3
   6938   6936   6937   6939     1  0.0000000  0.6508444  3
   6938   6936   6950   6956     1  0.0000000  1.0460000  1
   6938   6936   6950   6956     1  0.0000000  0.0000000  3
   6938   6936   6950   6954     1  0.0000000  0.6508444  3
   6938   6936   6950   6955     1  0.0000000  0.6508444  3
   6938   6936   6958   6942     1  0.0000000  1.6038667  3
   6939   6937   6936   6950     1  0.0000000  0.6508444  3
   6939   6937   6936   6958     1  0.0000000  1.0460000  1
   6939   6937   6936   6958     1  0.0000000  0.0000000  3
   6939   6937   6940   6941     1  0.0000000  0.6508444  3
   6939   6937   6940   6948     1  0.0000000  1.0460000  1
   6939   6937   6940   6948     1  0.0000000  0.0000000  3
   6939   6937   6940   6944     1  0.0000000  0.6508444  3
   6939   6937   6949   6952     1  0.0000000  0.6973333  3
   6940   6937   6949   6952     1  0.0000000  1.0460000  1
   6940   6937   6949   6952     1  0.0000000  0.6694400  3
   6940   6941   6942   6945     1  0.0000000  0.6508444  3
   6940   6941   6947   6953     1  0.0000000  1.0460000  1
   6940   6941   6947   6953     1  0.0000000  0.6694400  3
   6941   6940   6948   6951     1  0.0000000  1.0460000  1
   6941   6940   6948   6951     1  0.0000000  0.6694400  3
   6942   6941   6940   6944     1  0.0000000  0.6508444  3
   6942   6941   6947   6953     1  0.0000000  1.0460000  1
   6942   6941   6947   6953     1  0.0000000  0.6694400  3
   6943   6941   6940   6948     1  0.0000000  1.0460000  1
   6943   6941   6940   6948     1  0.0000000  0.0000000  3
   6943   6941   6940   6944     1  0.0000000  0.6508444  3
   6943   6941   6942   6946     1  0.0000000  1.0460000  1
   6943   6941   6942   6946     1  0.0000000  0.0000000  3
   6943   6941   6942   6958     1  0.0000000  1.0460000  1
   6943   6941   6942   6958     1  0.0000000  0.0000000  3
   6943   6941   6942   6945     1  0.0000000  0.6508444  3
   6943   6941   6947   6953     1  0.0000000  0.6973333  3
   6944   6940   6937   6949     1  0.0000000  1.0460000  1
   6944   6940   6937   6949     1  0.0000000  0.0000000  3
   6944   6940   6941   6947     1  0.0000000  1.0460000  1
   6944   6940   6941   6947     1  0.0000000  0.0000000  3
   6944   6940   6948   6951     1  0.0000000  0.6973333  3
   6945   6942   6941   6947     1  0.0000000  0.6508444  3
   6954   6950   6936   6958     1  0.0000000  1.0460000  1
   6954   6950   6936   6958     1  0.0000000  0.0000000  3
   6954   6950   6956   6957     1  0.0000000  0.6973333  3
   6955   6950   6936   6958     1  0.0000000  1.0460000  1
   6955   6950   6936   6958     1  0.0000000  0.0000000  3
   6955   6950   6956   6957     1  0.0000000  0.6973333  3
   6959   6960   6963   6967     1  0.0000000  0.6508444  3
   6959   6960   6972   6975     1  0.0000000  1.0460000  1
   6959   6960   6972   6975     1  0.0000000  0.6694400  3
   6959   6973   6979   6980     1  0.0000000  1.0460000  1
   6959   6973   6979   6980     1  0.0000000  0.6694400  3
   6959   6981   6965   6968     1  0.0000000  1.6038667  3
   6960   6963   6964   6966     1  0.0000000  0.6508444  3
   6960   6963   6971   6974     1  0.0000000  1.0460000  1
   6960   6963   6971   6974     1  0.0000000  0.6694400  3
   6960   6959   6973   6977     1  0.0000000  0.6508444  3
   6960   6959   6973   6978     1  0.0000000  0.6508444  3
   6961   6959   6960   6963     1  0.0000000  0.6508444  3
   6961   6959   6960   6972     1  0.0000000  1.0460000  1
   6961   6959   6960   6972     1  0.0000000  0.0000000  3
   6961   6959   6960   6962     1  0.0000000  0.6508444  3
   6961   6959   6973   6979     1  0.0000000  1.0460000  1
   6961   6959   6973   6979     1  0.0000000  0.0000000  3
   6961   6959   6973   6977     1  0.0000000  0.6508444  3
   6961   6959   6973   6978     1  0.0000000  0.6508444  3
   6961   6959   6981   6965     1  0.0000000  1.6038667  3
   6962   6960   6963   6964     1  0.0000000  0.6508444  3
   6962   6960   6963   6971     1  0.0000000  1.0460000  1
   6962   6960   6963   6971     1  0.0000000  0.0000000  3
   6962   6960   6963   6967     1  0.0000000  0.6508444  3
   6962   6960   6972   6975     1  0.0000000  0.6973333  3
   6962   6960   6959   6973     1  0.0000000  0.6508444  3
   6962   6960   6959   6981     1  0.0000000  1.0460000  1
   6962   6960   6959   6981     1  0.0000000  0.0000000  3
   6963   6964   6965   6968     1  0.0000000  0.6508444  3
   6963   6964   6970   6976     1  0.0000000  1.0460000  1
   6963   6964   6970   6976     1  0.0000000  0.6694400  3
   6963   6960   6972   6975     1  0.0000000  1.0460000  1
   6963   6960   6972   6975     1  0.0000000  0.6694400  3
   6964   6963   6971   6974     1  0.0000000  1.0460000  1
   6964   6963   6971   6974     1  0.0000000  0.6694400  3
   6965   6964   6970   6976     1  0.0000000  1.0460000  1
   6965   6964   6970   6976     1  0.0000000  0.6694400  3
   6965   6964   6963   6967     1  0.0000000  0.6508444  3
   6966   6964   6965   6969     1  0.0000000  1.0460000  1
   6966   6964   6965   6969     1  0.0000000  0.0000000  3
   6966   6964   6965   6981     1  0.0000000  1.0460000  1
   6966   6964   6965   6981     1  0.0000000  0.0000000  3
   6966   6964   6965   6968     1  0.0000000  0.6508444  3
   6966   6964   6970   6976     1  0.0000000  0.6973333  3
   6966   6964   6963   6971     1  0.0000000  1.0460000  1
   6966   6964   6963   6971     1  0.0000000  0.0000000  3
   6966   6964   6963   6967     1  0.0000000  0.6508444  3
   6967   6963   6964   6970     1  0.0000000  1.0460000  1
   6967   6963   6964   6970     1  0.0000000  0.0000000  3
   6967   6963   6971   6974     1  0.0000000  0.6973333  3
   6967   6963   6960   6972     1  0.0000000  1.0460000  1
   6967   6963   6960   6972     1  0.0000000  0.0000000  3
   6968   6965   6964   6970     1  0.0000000  0.6508444  3
   6977   6973   6979   6980     1  0.0000000  0.6973333  3
   6977   6973   6959   6981     1  0.0000000  1.0460000  1
   6977   6973   6959   6981     1  0.0000000  0.0000000  3
   6978   6973   6979   6980     1  0.0000000  0.6973333  3
   6978   6973   6959   6981     1  0.0000000  1.0460000  1
   6978   6973   6959   6981     1  0.0000000  0.0000000  3
   6982   6983   6986   6990     1  0.0000000  0.6508444  3
   6982   6983   6995   6998     1  0.0000000  1.0460000  1
   6982   6983   6995   6998     1  0.0000000  0.6694400  3
   6982   6996   7002   7003     1  0.0000000  1.0460000  1
   6982   6996   7002   7003     1  0.0000000  0.6694400  3
   6982   7004   6988   6991     1  0.0000000  1.6038667  3
   6983   6982   6996   7000     1  0.0000000  0.6508444  3
   6983   6982   6996   7001     1  0.0000000  0.6508444  3
   6983   6986   6987   6989     1  0.0000000  0.6508444  3
   6983   6986   6994   6997     1  0.0000000  1.0460000  1
   6983   6986   6994   6997     1  0.0000000  0.6694400  3
   6984   6982   6983   6986     1  0.0000000  0.6508444  3
   6984   6982   6983   6995     1  0.0000000  1.0460000  1
   6984   6982   6983   6995     1  0.0000000  0.0000000  3
   6984   6982   6983   6985     1  0.0000000  0.6508444  3
   6984   6982   6996   7002     1  0.0000000  1.0460000  1
   6984   6982   6996   7002     1  0.0000000  0.0000000  3
   6984   6982   6996   7000     1  0.0000000  0.6508444  3
   6984   6982   6996   7001     1  0.0000000  0.6508444  3
   6984   6982   7004   6988     1  0.0000000  1.6038667  3
   6985   6983   6982   6996     1  0.0000000  0.6508444  3
   6985   6983   6982   7004     1  0.0000000  1.0460000  1
   6985   6983   6982   7004     1  0.0000000  0.0000000  3
   6985   6983   6986   6987     1  0.0000000  0.6508444  3
   6985   6983   6986   6994     1  0.0000000  1.0460000  1
   6985   6983   6986   6994     1  0.0000000  0.0000000  3
   6985   6983   6986   6990     1  0.0000000  0.6508444  3
   6985   6983   6995   6998     1  0.0000000  0.6973333  3
   6986   6983   6995   6998     1  0.0000000  1.0460000  1
   6986   6983   6995   6998     1  0.0000000  0.6694400  3
   6986   6987   6988   6991     1  0.0000000  0.6508444  3
   6986   6987   6993   6999     1  0.0000000  1.0460000  1
   6986   6987   6993   6999     1  0.0000000  0.6694400  3
   6987   6986   6994   6997     1  0.0000000  1.0460000  1
   6987   6986   6994   6997     1  0.0000000  0.6694400  3
   6988   6987   6986   6990     1  0.0000000  0.6508444  3
   6988   6987   6993   6999     1  0.0000000  1.0460000  1
   6988   6987   6993   6999     1  0.0000000  0.6694400  3
   6989   6987   6986   6994     1  0.0000000  1.0460000  1
   6989   6987   6986   6994     1  0.0000000  0.0000000  3
   6989   6987   6986   6990     1  0.0000000  0.6508444  3
   6989   6987   6988   6992     1  0.0000000  1.0460000  1
   6989   6987   6988   6992     1  0.0000000  0.0000000  3
   6989   6987   6988   7004     1  0.0000000  1.0460000  1
   6989   6987   6988   7004     1  0.0000000  0.0000000  3
   6989   6987   6988   6991     1  0.0000000  0.6508444  3
   6989   6987   6993   6999     1  0.0000000  0.6973333  3
   6990   6986   6983   6995     1  0.0000000  1.0460000  1
   6990   6986   6983   6995     1  0.0000000  0.0000000  3
   6990   6986   6987   6993     1  0.0000000  1.0460000  1
   6990   6986   6987   6993     1  0.0000000  0.0000000  3
   6990   6986   6994   6997     1  0.0000000  0.6973333  3
   6991   6988   6987   6993     1  0.0000000  0.6508444  3
   7000   6996   6982   7004     1  0.0000000  1.0460000  1
   7000   6996   6982   7004     1  0.0000000  0.0000000  3
   7000   6996   7002   7003     1  0.0000000  0.6973333  3
   7001   6996   6982   7004     1  0.0000000  1.0460000  1
   7001   6996   6982   7004     1  0.0000000  0.0000000  3
   7001   6996   7002   7003     1  0.0000000  0.6973333  3
   7005   7006   7009   7013     1  0.0000000  0.6508444  3
   7005   7006   7018   7021     1  0.0000000  1.0460000  1
   7005   7006   7018   7021     1  0.0000000  0.6694400  3
   7005   7019   7025   7026     1  0.0000000  1.0460000  1
   7005   7019   7025   7026     1  0.0000000  0.6694400  3
   7005   7027   7011   7014     1  0.0000000  1.6038667  3
   7006   7009   7010   7012     1  0.0000000  0.6508444  3
   7006   7009   7017   7020     1  0.0000000  1.0460000  1
   7006   7009   7017   7020     1  0.0000000  0.6694400  3
   7006   7005   7019   7023     1  0.0000000  0.6508444  3
   7006   7005   7019   7024     1  0.0000000  0.6508444  3
   7007   7005   7006   7009     1  0.0000000  0.6508444  3
   7007   7005   7006   7018     1  0.0000000  1.0460000  1
   7007   7005   7006   7018     1  0.0000000  0.0000000  3
   7007   7005   7006   7008     1  0.0000000  0.6508444  3
   7007   7005   7019   7025     1  0.0000000  1.0460000  1
   7007   7005   7019   7025     1  0.0000000  0.0000000  3
   7007   7005   7019   7023     1  0.0000000  0.6508444  3
   7007   7005   7019   7024     1  0.0000000  0.6508444  3
   7007   7005   7027   7011     1  0.0000000  1.6038667  3
   7008   7006   7009   7010     1  0.0000000  0.6508444  3
   7008   7006   7009   7017     1  0.0000000  1.0460000  1
   7008   7006   7009   7017     1  0.0000000  0.0000000  3
   7008   7006   7009   7013     1  0.0000000  0.6508444  3
   7008   7006   7018   7021     1  0.0000000  0.6973333  3
   7008   7006   7005   7019     1  0.0000000  0.6508444  3
   7008   7006   7005   7027     1  0.0000000  1.0460000  1
   7008   7006   7005   7027     1  0.0000000  0.0000000  3
   7009   7010   7011   7014     1  0.0000000  0.6508444  3
   7009   7010   7016   7022     1  0.0000000  1.0460000  1
   7009   7010   7016   7022     1  0.0000000  0.6694400  3
   7009   7006   7018   7021     1  0.0000000  1.0460000  1
   7009   7006   7018   7021     1  0.0000000  0.6694400  3
   7010   7009   7017   7020     1  0.0000000  1.0460000  1
   7010   7009   7017   7020     1  0.0000000  0.6694400  3
   7011   7010   7016   7022     1  0.0000000  1.0460000  1
   7011   7010   7016   7022     1  0.0000000  0.6694400  3
   7011   7010   7009   7013     1  0.0000000  0.6508444  3
   7012   7010   7011   7015     1  0.0000000  1.0460000  1
   7012   7010   7011   7015     1  0.0000000  0.0000000  3
   7012   7010   7011   7027     1  0.0000000  1.0460000  1
   7012   7010   7011   7027     1  0.0000000  0.0000000  3
   7012   7010   7011   7014     1  0.0000000  0.6508444  3
   7012   7010   7016   7022     1  0.0000000  0.6973333  3
   7012   7010   7009   7017     1  0.0000000  1.0460000  1
   7012   7010   7009   7017     1  0.0000000  0.0000000  3
   7012   7010   7009   7013     1  0.0000000  0.6508444  3
   7013   7009   7010   7016     1  0.0000000  1.0460000  1
   7013   7009   7010   7016     1  0.0000000  0.0000000  3
   7013   7009   7017   7020     1  0.0000000  0.6973333  3
   7013   7009   7006   7018     1  0.0000000  1.0460000  1
   7013   7009   7006   7018     1  0.0000000  0.0000000  3
   7014   7011   7010   7016     1  0.0000000  0.6508444  3
   7023   7019   7025   7026     1  0.0000000  0.6973333  3
   7023   7019   7005   7027     1  0.0000000  1.0460000  1
   7023   7019   7005   7027     1  0.0000000  0.0000000  3
   7024   7019   7025   7026     1  0.0000000  0.6973333  3
   7024   7019   7005   7027     1  0.0000000  1.0460000  1
   7024   7019   7005   7027     1  0.0000000  0.0000000  3
   7028   7029   7032   7036     1  0.0000000  0.6508444  3
   7028   7029   7041   7044     1  0.0000000  1.0460000  1
   7028   7029   7041   7044     1  0.0000000  0.6694400  3
   7028   7042   7048   7049     1  0.0000000  1.0460000  1
   7028   7042   7048   7049     1  0.0000000  0.6694400  3
   7028   7050   7034   7037     1  0.0000000  1.6038667  3
   7029   7028   7042   7046     1  0.0000000  0.6508444  3
   7029   7028   7042   7047     1  0.0000000  0.6508444  3
   7029   7032   7033   7035     1  0.0000000  0.6508444  3
   7029   7032   7040   7043     1  0.0000000  1.0460000  1
   7029   7032   7040   7043     1  0.0000000  0.6694400  3
   7030   7028   7029   7032     1  0.0000000  0.6508444  3
   7030   7028   7029   7041     1  0.0000000  1.0460000  1
   7030   7028   7029   7041     1  0.0000000  0.0000000  3
   7030   7028   7029   7031     1  0.0000000  0.6508444  3
   7030   7028   7042   7048     1  0.0000000  1.0460000  1
   7030   7028   7042   7048     1  0.0000000  0.0000000  3
   7030   7028   7042   7046     1  0.0000000  0.6508444  3
   7030   7028   7042   7047     1  0.0000000  0.6508444  3
   7030   7028   7050   7034     1  0.0000000  1.6038667  3
   7031   7029   7028   7042     1  0.0000000  0.6508444  3
   7031   7029   7028   7050     1  0.0000000  1.0460000  1
   7031   7029   7028   7050     1  0.0000000  0.0000000  3
   7031   7029   7032   7033     1  0.0000000  0.6508444  3
   7031   7029   7032   7040     1  0.0000000  1.0460000  1
   7031   7029   7032   7040     1  0.0000000  0.0000000  3
   7031   7029   7032   7036     1  0.0000000  0.6508444  3
   7031   7029   7041   7044     1  0.0000000  0.6973333  3
   7032   7029   7041   7044     1  0.0000000  1.0460000  1
   7032   7029   7041   7044     1  0.0000000  0.6694400  3
   7032   7033   7034   7037     1  0.0000000  0.6508444  3
   7032   7033   7039   7045     1  0.0000000  1.0460000  1
   7032   7033   7039   7045     1  0.0000000  0.6694400  3
   7033   7032   7040   7043     1  0.0000000  1.0460000  1
   7033   7032   7040   7043     1  0.0000000  0.6694400  3
   7034   7033   7032   7036     1  0.0000000  0.6508444  3
   7034   7033   7039   7045     1  0.0000000  1.0460000  1
   7034   7033   7039   7045     1  0.0000000  0.6694400  3
   7035   7033   7032   7040     1  0.0000000  1.0460000  1
   7035   7033   7032   7040     1  0.0000000  0.0000000  3
   7035   7033   7032   7036     1  0.0000000  0.6508444  3
   7035   7033   7034   7038     1  0.0000000  1.0460000  1
   7035   7033   7034   7038     1  0.0000000  0.0000000  3
   7035   7033   7034   7050     1  0.0000000  1.0460000  1
   7035   7033   7034   7050     1  0.0000000  0.0000000  3
   7035   7033   7034   7037     1  0.0000000  0.6508444  3
   7035   7033   7039   7045     1  0.0000000  0.6973333  3
   7036   7032   7029   7041     1  0.0000000  1.0460000  1
   7036   7032   7029   7041     1  0.0000000  0.0000000  3
   7036   7032   7033   7039     1  0.0000000  1.0460000  1
   7036   7032   7033   7039     1  0.0000000  0.0000000  3
   7036   7032   7040   7043     1  0.0000000  0.6973333  3
   7037   7034   7033   7039     1  0.0000000  0.6508444  3
   7046   7042   7028   7050     1  0.0000000  1.0460000  1
   7046   7042   7028   7050     1  0.0000000  0.0000000  3
   7046   7042   7048   7049     1  0.0000000  0.6973333  3
   7047   7042   7028   7050     1  0.0000000  1.0460000  1
   7047   7042   7028   7050     1  0.0000000  0.0000000  3
   7047   7042   7048   7049     1  0.0000000  0.6973333  3
   7051   7052   7055   7059     1  0.0000000  0.6508444  3
   7051   7052   7064   7067     1  0.0000000  1.0460000  1
   7051   7052   7064   7067     1  0.0000000  0.6694400  3
   7051   7065   7071   7072     1  0.0000000  1.0460000  1
   7051   7065   7071   7072     1  0.0000000  0.6694400  3
   7051   7073   7057   7060     1  0.0000000  1.6038667  3
   7052   7055   7056   7058     1  0.0000000  0.6508444  3
   7052   7055   7063   7066     1  0.0000000  1.0460000  1
   7052   7055   7063   7066     1  0.0000000  0.6694400  3
   7052   7051   7065   7069     1  0.0000000  0.6508444  3
   7052   7051   7065   7070     1  0.0000000  0.6508444  3
   7053   7051   7052   7055     1  0.0000000  0.6508444  3
   7053   7051   7052   7064     1  0.0000000  1.0460000  1
   7053   7051   7052   7064     1  0.0000000  0.0000000  3
   7053   7051   7052   7054     1  0.0000000  0.6508444  3
   7053   7051   7065   7071     1  0.0000000  1.0460000  1
   7053   7051   7065   7071     1  0.0000000  0.0000000  3
   7053   7051   7065   7069     1  0.0000000  0.6508444  3
   7053   7051   7065   7070     1  0.0000000  0.6508444  3
   7053   7051   7073   7057     1  0.0000000  1.6038667  3
   7054   7052   7055   7056     1  0.0000000  0.6508444  3
   7054   7052   7055   7063     1  0.0000000  1.0460000  1
   7054   7052   7055   7063     1  0.0000000  0.0000000  3
   7054   7052   7055   7059     1  0.0000000  0.6508444  3
   7054   7052   7064   7067     1  0.0000000  0.6973333  3
   7054   7052   7051   7065     1  0.0000000  0.6508444  3
   7054   7052   7051   7073     1  0.0000000  1.0460000  1
   7054   7052   7051   7073     1  0.0000000  0.0000000  3
   7055   7056   7057   7060     1  0.0000000  0.6508444  3
   7055   7056   7062   7068     1  0.0000000  1.0460000  1
   7055   7056   7062   7068     1  0.0000000  0.6694400  3
   7055   7052   7064   7067     1  0.0000000  1.0460000  1
   7055   7052   7064   7067     1  0.0000000  0.6694400  3
   7056   7055   7063   7066     1  0.0000000  1.0460000  1
   7056   7055   7063   7066     1  0.0000000  0.6694400  3
   7057   7056   7062   7068     1  0.0000000  1.0460000  1
   7057   7056   7062   7068     1  0.0000000  0.6694400  3
   7057   7056   7055   7059     1  0.0000000  0.6508444  3
   7058   7056   7057   7061     1  0.0000000  1.0460000  1
   7058   7056   7057   7061     1  0.0000000  0.0000000  3
   7058   7056   7057   7073     1  0.0000000  1.0460000  1
   7058   7056   7057   7073     1  0.0000000  0.0000000  3
   7058   7056   7057   7060     1  0.0000000  0.6508444  3
   7058   7056   7062   7068     1  0.0000000  0.6973333  3
   7058   7056   7055   7063     1  0.0000000  1.0460000  1
   7058   7056   7055   7063     1  0.0000000  0.0000000  3
   7058   7056   7055   7059     1  0.0000000  0.6508444  3
   7059   7055   7056   7062     1  0.0000000  1.0460000  1
   7059   7055   7056   7062     1  0.0000000  0.0000000  3
   7059   7055   7063   7066     1  0.0000000  0.6973333  3
   7059   7055   7052   7064     1  0.0000000  1.0460000  1
   7059   7055   7052   7064     1  0.0000000  0.0000000  3
   7060   7057   7056   7062     1  0.0000000  0.6508444  3
   7069   7065   7071   7072     1  0.0000000  0.6973333  3
   7069   7065   7051   7073     1  0.0000000  1.0460000  1
   7069   7065   7051   7073     1  0.0000000  0.0000000  3
   7070   7065   7071   7072     1  0.0000000  0.6973333  3
   7070   7065   7051   7073     1  0.0000000  1.0460000  1
   7070   7065   7051   7073     1  0.0000000  0.0000000  3
   7074   7075   7078   7082     1  0.0000000  0.6508444  3
   7074   7075   7087   7090     1  0.0000000  1.0460000  1
   7074   7075   7087   7090     1  0.0000000  0.6694400  3
   7074   7088   7094   7095     1  0.0000000  1.0460000  1
   7074   7088   7094   7095     1  0.0000000  0.6694400  3
   7074   7096   7080   7083     1  0.0000000  1.6038667  3
   7075   7074   7088   7092     1  0.0000000  0.6508444  3
   7075   7074   7088   7093     1  0.0000000  0.6508444  3
   7075   7078   7079   7081     1  0.0000000  0.6508444  3
   7075   7078   7086   7089     1  0.0000000  1.0460000  1
   7075   7078   7086   7089     1  0.0000000  0.6694400  3
   7076   7074   7075   7078     1  0.0000000  0.6508444  3
   7076   7074   7075   7087     1  0.0000000  1.0460000  1
   7076   7074   7075   7087     1  0.0000000  0.0000000  3
   7076   7074   7075   7077     1  0.0000000  0.6508444  3
   7076   7074   7088   7094     1  0.0000000  1.0460000  1
   7076   7074   7088   7094     1  0.0000000  0.0000000  3
   7076   7074   7088   7092     1  0.0000000  0.6508444  3
   7076   7074   7088   7093     1  0.0000000  0.6508444  3
   7076   7074   7096   7080     1  0.0000000  1.6038667  3
   7077   7075   7074   7088     1  0.0000000  0.6508444  3
   7077   7075   7074   7096     1  0.0000000  1.0460000  1
   7077   7075   7074   7096     1  0.0000000  0.0000000  3
   7077   7075   7078   7079     1  0.0000000  0.6508444  3
   7077   7075   7078   7086     1  0.0000000  1.0460000  1
   7077   7075   7078   7086     1  0.0000000  0.0000000  3
   7077   7075   7078   7082     1  0.0000000  0.6508444  3
   7077   7075   7087   7090     1  0.0000000  0.6973333  3
   7078   7075   7087   7090     1  0.0000000  1.0460000  1
   7078   7075   7087   7090     1  0.0000000  0.6694400  3
   7078   7079   7080   7083     1  0.0000000  0.6508444  3
   7078   7079   7085   7091     1  0.0000000  1.0460000  1
   7078   7079   7085   7091     1  0.0000000  0.6694400  3
   7079   7078   7086   7089     1  0.0000000  1.0460000  1
   7079   7078   7086   7089     1  0.0000000  0.6694400  3
   7080   7079   7078   7082     1  0.0000000  0.6508444  3
   7080   7079   7085   7091     1  0.0000000  1.0460000  1
   7080   7079   7085   7091     1  0.0000000  0.6694400  3
   7081   7079   7078   7086     1  0.0000000  1.0460000  1
   7081   7079   7078   7086     1  0.0000000  0.0000000  3
   7081   7079   7078   7082     1  0.0000000  0.6508444  3
   7081   7079   7080   7084     1  0.0000000  1.0460000  1
   7081   7079   7080   7084     1  0.0000000  0.0000000  3
   7081   7079   7080   7096     1  0.0000000  1.0460000  1
   7081   7079   7080   7096     1  0.0000000  0.0000000  3
   7081   7079   7080   7083     1  0.0000000  0.6508444  3
   7081   7079   7085   7091     1  0.0000000  0.6973333  3
   7082   7078   7075   7087     1  0.0000000  1.0460000  1
   7082   7078   7075   7087     1  0.0000000  0.0000000  3
   7082   7078   7079   7085     1  0.0000000  1.0460000  1
   7082   7078   7079   7085     1  0.0000000  0.0000000  3
   7082   7078   7086   7089     1  0.0000000  0.6973333  3
   7083   7080   7079   7085     1  0.0000000  0.6508444  3
   7092   7088   7074   7096     1  0.0000000  1.0460000  1
   7092   7088   7074   7096     1  0.0000000  0.0000000  3
   7092   7088   7094   7095     1  0.0000000  0.6973333  3
   7093   7088   7074   7096     1  0.0000000  1.0460000  1
   7093   7088   7074   7096     1  0.0000000  0.0000000  3
   7093   7088   7094   7095     1  0.0000000  0.6973333  3
   7097   7098   7101   7105     1  0.0000000  0.6508444  3
   7097   7098   7110   7113     1  0.0000000  1.0460000  1
   7097   7098   7110   7113     1  0.0000000  0.6694400  3
   7097   7111   7117   7118     1  0.0000000  1.0460000  1
   7097   7111   7117   7118     1  0.0000000  0.6694400  3
   7097   7119   7103   7106     1  0.0000000  1.6038667  3
   7098   7101   7102   7104     1  0.0000000  0.6508444  3
   7098   7101   7109   7112     1  0.0000000  1.0460000  1
   7098   7101   7109   7112     1  0.0000000  0.6694400  3
   7098   7097   7111   7115     1  0.0000000  0.6508444  3
   7098   7097   7111   7116     1  0.0000000  0.6508444  3
   7099   7097   7098   7101     1  0.0000000  0.6508444  3
   7099   7097   7098   7110     1  0.0000000  1.0460000  1
   7099   7097   7098   7110     1  0.0000000  0.0000000  3
   7099   7097   7098   7100     1  0.0000000  0.6508444  3
   7099   7097   7111   7117     1  0.0000000  1.0460000  1
   7099   7097   7111   7117     1  0.0000000  0.0000000  3
   7099   7097   7111   7115     1  0.0000000  0.6508444  3
   7099   7097   7111   7116     1  0.0000000  0.6508444  3
   7099   7097   7119   7103     1  0.0000000  1.6038667  3
   7100   7098   7101   7102     1  0.0000000  0.6508444  3
   7100   7098   7101   7109     1  0.0000000  1.0460000  1
   7100   7098   7101   7109     1  0.0000000  0.0000000  3
   7100   7098   7101   7105     1  0.0000000  0.6508444  3
   7100   7098   7110   7113     1  0.0000000  0.6973333  3
   7100   7098   7097   7111     1  0.0000000  0.6508444  3
   7100   7098   7097   7119     1  0.0000000  1.0460000  1
   7100   7098   7097   7119     1  0.0000000  0.0000000  3
   7101   7102   7103   7106     1  0.0000000  0.6508444  3
   7101   7102   7108   7114     1  0.0000000  1.0460000  1
   7101   7102   7108   7114     1  0.0000000  0.6694400  3
   7101   7098   7110   7113     1  0.0000000  1.0460000  1
   7101   7098   7110   7113     1  0.0000000  0.6694400  3
   7102   7101   7109   7112     1  0.0000000  1.0460000  1
   7102   7101   7109   7112     1  0.0000000  0.6694400  3
   7103   7102   7108   7114     1  0.0000000  1.0460000  1
   7103   7102   7108   7114     1  0.0000000  0.6694400  3
   7103   7102   7101   7105     1  0.0000000  0.6508444  3
   7104   7102   7103   7107     1  0.0000000  1.0460000  1
   7104   7102   7103   7107     1  0.0000000  0.0000000  3
   7104   7102   7103   7119     1  0.0000000  1.0460000  1
   7104   7102   7103   7119     1  0.0000000  0.0000000  3
   7104   7102   7103   7106     1  0.0000000  0.6508444  3
   7104   7102   7108   7114     1  0.0000000  0.6973333  3
   7104   7102   7101   7109     1  0.0000000  1.0460000  1
   7104   7102   7101   7109     1  0.0000000  0.0000000  3
   7104   7102   7101   7105     1  0.0000000  0.6508444  3
   7105   7101   7102   7108     1  0.0000000  1.0460000  1
   7105   7101   7102   7108     1  0.0000000  0.0000000  3
   7105   7101   7109   7112     1  0.0000000  0.6973333  3
   7105   7101   7098   7110     1  0.0000000  1.0460000  1
   7105   7101   7098   7110     1  0.0000000  0.0000000  3
   7106   7103   7102   7108     1  0.0000000  0.6508444  3
   7115   7111   7117   7118     1  0.0000000  0.6973333  3
   7115   7111   7097   7119     1  0.0000000  1.0460000  1
   7115   7111   7097   7119     1  0.0000000  0.0000000  3
   7116   7111   7117   7118     1  0.0000000  0.6973333  3
   7116   7111   7097   7119     1  0.0000000  1.0460000  1
   7116   7111   7097   7119     1  0.0000000  0.0000000  3
   7120   7121   7124   7128     1  0.0000000  0.6508444  3
   7120   7121   7133   7136     1  0.0000000  1.0460000  1
   7120   7121   7133   7136     1  0.0000000  0.6694400  3
   7120   7134   7140   7141     1  0.0000000  1.0460000  1
   7120   7134   7140   7141     1  0.0000000  0.6694400  3
   7120   7142   7126   7129     1  0.0000000  1.6038667  3
   7121   7120   7134   7138     1  0.0000000  0.6508444  3
   7121   7120   7134   7139     1  0.0000000  0.6508444  3
   7121   7124   7125   7127     1  0.0000000  0.6508444  3
   7121   7124   7132   7135     1  0.0000000  1.0460000  1
   7121   7124   7132   7135     1  0.0000000  0.6694400  3
   7122   7120   7121   7124     1  0.0000000  0.6508444  3
   7122   7120   7121   7133     1  0.0000000  1.0460000  1
   7122   7120   7121   7133     1  0.0000000  0.0000000  3
   7122   7120   7121   7123     1  0.0000000  0.6508444  3
   7122   7120   7134   7140     1  0.0000000  1.0460000  1
   7122   7120   7134   7140     1  0.0000000  0.0000000  3
   7122   7120   7134   7138     1  0.0000000  0.6508444  3
   7122   7120   7134   7139     1  0.0000000  0.6508444  3
   7122   7120   7142   7126     1  0.0000000  1.6038667  3
   7123   7121   7120   7134     1  0.0000000  0.6508444  3
   7123   7121   7120   7142     1  0.0000000  1.0460000  1
   7123   7121   7120   7142     1  0.0000000  0.0000000  3
   7123   7121   7124   7125     1  0.0000000  0.6508444  3
   7123   7121   7124   7132     1  0.0000000  1.0460000  1
   7123   7121   7124   7132     1  0.0000000  0.0000000  3
   7123   7121   7124   7128     1  0.0000000  0.6508444  3
   7123   7121   7133   7136     1  0.0000000  0.6973333  3
   7124   7121   7133   7136     1  0.0000000  1.0460000  1
   7124   7121   7133   7136     1  0.0000000  0.6694400  3
   7124   7125   7126   7129     1  0.0000000  0.6508444  3
   7124   7125   7131   7137     1  0.0000000  1.0460000  1
   7124   7125   7131   7137     1  0.0000000  0.6694400  3
   7125   7124   7132   7135     1  0.0000000  1.0460000  1
   7125   7124   7132   7135     1  0.0000000  0.6694400  3
   7126   7125   7124   7128     1  0.0000000  0.6508444  3
   7126   7125   7131   7137     1  0.0000000  1.0460000  1
   7126   7125   7131   7137     1  0.0000000  0.6694400  3
   7127   7125   7124   7132     1  0.0000000  1.0460000  1
   7127   7125   7124   7132     1  0.0000000  0.0000000  3
   7127   7125   7124   7128     1  0.0000000  0.6508444  3
   7127   7125   7126   7130     1  0.0000000  1.0460000  1
   7127   7125   7126   7130     1  0.0000000  0.0000000  3
   7127   7125   7126   7142     1  0.0000000  1.0460000  1
   7127   7125   7126   7142     1  0.0000000  0.0000000  3
   7127   7125   7126   7129     1  0.0000000  0.6508444  3
   7127   7125   7131   7137     1  0.0000000  0.6973333  3
   7128   7124   7121   7133     1  0.0000000  1.0460000  1
   7128   7124   7121   7133     1  0.0000000  0.0000000  3
   7128   7124   7125   7131     1  0.0000000  1.0460000  1
   7128   7124   7125   7131     1  0.0000000  0.0000000  3
   7128   7124   7132   7135     1  0.0000000  0.6973333  3
   7129   7126   7125   7131     1  0.0000000  0.6508444  3
   7138   7134   7120   7142     1  0.0000000  1.0460000  1
   7138   7134   7120   7142     1  0.0000000  0.0000000  3
   7138   7134   7140   7141     1  0.0000000  0.6973333  3
   7139   7134   7120   7142     1  0.0000000  1.0460000  1
   7139   7134   7120   7142     1  0.0000000  0.0000000  3
   7139   7134   7140   7141     1  0.0000000  0.6973333  3
   7143   7144   7147   7151     1  0.0000000  0.6508444  3
   7143   7144   7156   7159     1  0.0000000  1.0460000  1
   7143   7144   7156   7159     1  0.0000000  0.6694400  3
   7143   7157   7163   7164     1  0.0000000  1.0460000  1
   7143   7157   7163   7164     1  0.0000000  0.6694400  3
   7143   7165   7149   7152     1  0.0000000  1.6038667  3
   7144   7147   7148   7150     1  0.0000000  0.6508444  3
   7144   7147   7155   7158     1  0.0000000  1.0460000  1
   7144   7147   7155   7158     1  0.0000000  0.6694400  3
   7144   7143   7157   7161     1  0.0000000  0.6508444  3
   7144   7143   7157   7162     1  0.0000000  0.6508444  3
   7145   7143   7144   7147     1  0.0000000  0.6508444  3
   7145   7143   7144   7156     1  0.0000000  1.0460000  1
   7145   7143   7144   7156     1  0.0000000  0.0000000  3
   7145   7143   7144   7146     1  0.0000000  0.6508444  3
   7145   7143   7157   7163     1  0.0000000  1.0460000  1
   7145   7143   7157   7163     1  0.0000000  0.0000000  3
   7145   7143   7157   7161     1  0.0000000  0.6508444  3
   7145   7143   7157   7162     1  0.0000000  0.6508444  3
   7145   7143   7165   7149     1  0.0000000  1.6038667  3
   7146   7144   7147   7148     1  0.0000000  0.6508444  3
   7146   7144   7147   7155     1  0.0000000  1.0460000  1
   7146   7144   7147   7155     1  0.0000000  0.0000000  3
   7146   7144   7147   7151     1  0.0000000  0.6508444  3
   7146   7144   7156   7159     1  0.0000000  0.6973333  3
   7146   7144   7143   7157     1  0.0000000  0.6508444  3
   7146   7144   7143   7165     1  0.0000000  1.0460000  1
   7146   7144   7143   7165     1  0.0000000  0.0000000  3
   7147   7148   7149   7152     1  0.0000000  0.6508444  3
   7147   7148   7154   7160     1  0.0000000  1.0460000  1
   7147   7148   7154   7160     1  0.0000000  0.6694400  3
   7147   7144   7156   7159     1  0.0000000  1.0460000  1
   7147   7144   7156   7159     1  0.0000000  0.6694400  3
   7148   7147   7155   7158     1  0.0000000  1.0460000  1
   7148   7147   7155   7158     1  0.0000000  0.6694400  3
   7149   7148   7154   7160     1  0.0000000  1.0460000  1
   7149   7148   7154   7160     1  0.0000000  0.6694400  3
   7149   7148   7147   7151     1  0.0000000  0.6508444  3
   7150   7148   7149   7153     1  0.0000000  1.0460000  1
   7150   7148   7149   7153     1  0.0000000  0.0000000  3
   7150   7148   7149   7165     1  0.0000000  1.0460000  1
   7150   7148   7149   7165     1  0.0000000  0.0000000  3
   7150   7148   7149   7152     1  0.0000000  0.6508444  3
   7150   7148   7154   7160     1  0.0000000  0.6973333  3
   7150   7148   7147   7155     1  0.0000000  1.0460000  1
   7150   7148   7147   7155     1  0.0000000  0.0000000  3
   7150   7148   7147   7151     1  0.0000000  0.6508444  3
   7151   7147   7148   7154     1  0.0000000  1.0460000  1
   7151   7147   7148   7154     1  0.0000000  0.0000000  3
   7151   7147   7155   7158     1  0.0000000  0.6973333  3
   7151   7147   7144   7156     1  0.0000000  1.0460000  1
   7151   7147   7144   7156     1  0.0000000  0.0000000  3
   7152   7149   7148   7154     1  0.0000000  0.6508444  3
   7161   7157   7163   7164     1  0.0000000  0.6973333  3
   7161   7157   7143   7165     1  0.0000000  1.0460000  1
   7161   7157   7143   7165     1  0.0000000  0.0000000  3
   7162   7157   7163   7164     1  0.0000000  0.6973333  3
   7162   7157   7143   7165     1  0.0000000  1.0460000  1
   7162   7157   7143   7165     1  0.0000000  0.0000000  3
   7166   7167   7170   7174     1  0.0000000  0.6508444  3
   7166   7167   7179   7182     1  0.0000000  1.0460000  1
   7166   7167   7179   7182     1  0.0000000  0.6694400  3
   7166   7180   7186   7187     1  0.0000000  1.0460000  1
   7166   7180   7186   7187     1  0.0000000  0.6694400  3
   7166   7188   7172   7175     1  0.0000000  1.6038667  3
   7167   7166   7180   7184     1  0.0000000  0.6508444  3
   7167   7166   7180   7185     1  0.0000000  0.6508444  3
   7167   7170   7171   7173     1  0.0000000  0.6508444  3
   7167   7170   7178   7181     1  0.0000000  1.0460000  1
   7167   7170   7178   7181     1  0.0000000  0.6694400  3
   7168   7166   7167   7170     1  0.0000000  0.6508444  3
   7168   7166   7167   7179     1  0.0000000  1.0460000  1
   7168   7166   7167   7179     1  0.0000000  0.0000000  3
   7168   7166   7167   7169     1  0.0000000  0.6508444  3
   7168   7166   7180   7186     1  0.0000000  1.0460000  1
   7168   7166   7180   7186     1  0.0000000  0.0000000  3
   7168   7166   7180   7184     1  0.0000000  0.6508444  3
   7168   7166   7180   7185     1  0.0000000  0.6508444  3
   7168   7166   7188   7172     1  0.0000000  1.6038667  3
   7169   7167   7166   7180     1  0.0000000  0.6508444  3
   7169   7167   7166   7188     1  0.0000000  1.0460000  1
   7169   7167   7166   7188     1  0.0000000  0.0000000  3
   7169   7167   7170   7171     1  0.0000000  0.6508444  3
   7169   7167   7170   7178     1  0.0000000  1.0460000  1
   7169   7167   7170   7178     1  0.0000000  0.0000000  3
   7169   7167   7170   7174     1  0.0000000  0.6508444  3
   7169   7167   7179   7182     1  0.0000000  0.6973333  3
   7170   7167   7179   7182     1  0.0000000  1.0460000  1
   7170   7167   7179   7182     1  0.0000000  0.6694400  3
   7170   7171   7172   7175     1  0.0000000  0.6508444  3
   7170   7171   7177   7183     1  0.0000000  1.0460000  1
   7170   7171   7177   7183     1  0.0000000  0.6694400  3
   7171   7170   7178   7181     1  0.0000000  1.0460000  1
   7171   7170   7178   7181     1  0.0000000  0.6694400  3
   7172   7171   7170   7174     1  0.0000000  0.6508444  3
   7172   7171   7177   7183     1  0.0000000  1.0460000  1
   7172   7171   7177   7183     1  0.0000000  0.6694400  3
   7173   7171   7170   7178     1  0.0000000  1.0460000  1
   7173   7171   7170   7178     1  0.0000000  0.0000000  3
   7173   7171   7170   7174     1  0.0000000  0.6508444  3
   7173   7171   7172   7176     1  0.0000000  1.0460000  1
   7173   7171   7172   7176     1  0.0000000  0.0000000  3
   7173   7171   7172   7188     1  0.0000000  1.0460000  1
   7173   7171   7172   7188     1  0.0000000  0.0000000  3
   7173   7171   7172   7175     1  0.0000000  0.6508444  3
   7173   7171   7177   7183     1  0.0000000  0.6973333  3
   7174   7170   7167   7179     1  0.0000000  1.0460000  1
   7174   7170   7167   7179     1  0.0000000  0.0000000  3
   7174   7170   7171   7177     1  0.0000000  1.0460000  1
   7174   7170   7171   7177     1  0.0000000  0.0000000  3
   7174   7170   7178   7181     1  0.0000000  0.6973333  3
   7175   7172   7171   7177     1  0.0000000  0.6508444  3
   7184   7180   7166   7188     1  0.0000000  1.0460000  1
   7184   7180   7166   7188     1  0.0000000  0.0000000  3
   7184   7180   7186   7187     1  0.0000000  0.6973333  3
   7185   7180   7166   7188     1  0.0000000  1.0460000  1
   7185   7180   7166   7188     1  0.0000000  0.0000000  3
   7185   7180   7186   7187     1  0.0000000  0.6973333  3
   7189   7190   7193   7197     1  0.0000000  0.6508444  3
   7189   7190   7202   7205     1  0.0000000  1.0460000  1
   7189   7190   7202   7205     1  0.0000000  0.6694400  3
   7189   7203   7209   7210     1  0.0000000  1.0460000  1
   7189   7203   7209   7210     1  0.0000000  0.6694400  3
   7189   7211   7195   7198     1  0.0000000  1.6038667  3
   7190   7193   7194   7196     1  0.0000000  0.6508444  3
   7190   7193   7201   7204     1  0.0000000  1.0460000  1
   7190   7193   7201   7204     1  0.0000000  0.6694400  3
   7190   7189   7203   7207     1  0.0000000  0.6508444  3
   7190   7189   7203   7208     1  0.0000000  0.6508444  3
   7191   7189   7190   7193     1  0.0000000  0.6508444  3
   7191   7189   7190   7202     1  0.0000000  1.0460000  1
   7191   7189   7190   7202     1  0.0000000  0.0000000  3
   7191   7189   7190   7192     1  0.0000000  0.6508444  3
   7191   7189   7203   7209     1  0.0000000  1.0460000  1
   7191   7189   7203   7209     1  0.0000000  0.0000000  3
   7191   7189   7203   7207     1  0.0000000  0.6508444  3
   7191   7189   7203   7208     1  0.0000000  0.6508444  3
   7191   7189   7211   7195     1  0.0000000  1.6038667  3
   7192   7190   7193   7194     1  0.0000000  0.6508444  3
   7192   7190   7193   7201     1  0.0000000  1.0460000  1
   7192   7190   7193   7201     1  0.0000000  0.0000000  3
   7192   7190   7193   7197     1  0.0000000  0.6508444  3
   7192   7190   7202   7205     1  0.0000000  0.6973333  3
   7192   7190   7189   7203     1  0.0000000  0.6508444  3
   7192   7190   7189   7211     1  0.0000000  1.0460000  1
   7192   7190   7189   7211     1  0.0000000  0.0000000  3
   7193   7194   7195   7198     1  0.0000000  0.6508444  3
   7193   7194   7200   7206     1  0.0000000  1.0460000  1
   7193   7194   7200   7206     1  0.0000000  0.6694400  3
   7193   7190   7202   7205     1  0.0000000  1.0460000  1
   7193   7190   7202   7205     1  0.0000000  0.6694400  3
   7194   7193   7201   7204     1  0.0000000  1.0460000  1
   7194   7193   7201   7204     1  0.0000000  0.6694400  3
   7195   7194   7200   7206     1  0.0000000  1.0460000  1
   7195   7194   7200   7206     1  0.0000000  0.6694400  3
   7195   7194   7193   7197     1  0.0000000  0.6508444  3
   7196   7194   7195   7199     1  0.0000000  1.0460000  1
   7196   7194   7195   7199     1  0.0000000  0.0000000  3
   7196   7194   7195   7211     1  0.0000000  1.0460000  1
   7196   7194   7195   7211     1  0.0000000  0.0000000  3
   7196   7194   7195   7198     1  0.0000000  0.6508444  3
   7196   7194   7200   7206     1  0.0000000  0.6973333  3
   7196   7194   7193   7201     1  0.0000000  1.0460000  1
   7196   7194   7193   7201     1  0.0000000  0.0000000  3
   7196   7194   7193   7197     1  0.0000000  0.6508444  3
   7197   7193   7194   7200     1  0.0000000  1.0460000  1
   7197   7193   7194   7200     1  0.0000000  0.0000000  3
   7197   7193   7201   7204     1  0.0000000  0.6973333  3
   7197   7193   7190   7202     1  0.0000000  1.0460000  1
   7197   7193   7190   7202     1  0.0000000  0.0000000  3
   7198   7195   7194   7200     1  0.0000000  0.6508444  3
   7207   7203   7209   7210     1  0.0000000  0.6973333  3
   7207   7203   7189   7211     1  0.0000000  1.0460000  1
   7207   7203   7189   7211     1  0.0000000  0.0000000  3
   7208   7203   7209   7210     1  0.0000000  0.6973333  3
   7208   7203   7189   7211     1  0.0000000  1.0460000  1
   7208   7203   7189   7211     1  0.0000000  0.0000000  3
   7212   7213   7216   7220     1  0.0000000  0.6508444  3
   7212   7213   7225   7228     1  0.0000000  1.0460000  1
   7212   7213   7225   7228     1  0.0000000  0.6694400  3
   7212   7226   7232   7233     1  0.0000000  1.0460000  1
   7212   7226   7232   7233     1  0.0000000  0.6694400  3
   7212   7234   7218   7221     1  0.0000000  1.6038667  3
   7213   7212   7226   7230     1  0.0000000  0.6508444  3
   7213   7212   7226   7231     1  0.0000000  0.6508444  3
   7213   7216   7217   7219     1  0.0000000  0.6508444  3
   7213   7216   7224   7227     1  0.0000000  1.0460000  1
   7213   7216   7224   7227     1  0.0000000  0.6694400  3
   7214   7212   7213   7216     1  0.0000000  0.6508444  3
   7214   7212   7213   7225     1  0.0000000  1.0460000  1
   7214   7212   7213   7225     1  0.0000000  0.0000000  3
   7214   7212   7213   7215     1  0.0000000  0.6508444  3
   7214   7212   7226   7232     1  0.0000000  1.0460000  1
   7214   7212   7226   7232     1  0.0000000  0.0000000  3
   7214   7212   7226   7230     1  0.0000000  0.6508444  3
   7214   7212   7226   7231     1  0.0000000  0.6508444  3
   7214   7212   7234   7218     1  0.0000000  1.6038667  3
   7215   7213   7212   7226     1  0.0000000  0.6508444  3
   7215   7213   7212   7234     1  0.0000000  1.0460000  1
   7215   7213   7212   7234     1  0.0000000  0.0000000  3
   7215   7213   7216   7217     1  0.0000000  0.6508444  3
   7215   7213   7216   7224     1  0.0000000  1.0460000  1
   7215   7213   7216   7224     1  0.0000000  0.0000000  3
   7215   7213   7216   7220     1  0.0000000  0.6508444  3
   7215   7213   7225   7228     1  0.0000000  0.6973333  3
   7216   7213   7225   7228     1  0.0000000  1.0460000  1
   7216   7213   7225   7228     1  0.0000000  0.6694400  3
   7216   7217   7218   7221     1  0.0000000  0.6508444  3
   7216   7217   7223   7229     1  0.0000000  1.0460000  1
   7216   7217   7223   7229     1  0.0000000  0.6694400  3
   7217   7216   7224   7227     1  0.0000000  1.0460000  1
   7217   7216   7224   7227     1  0.0000000  0.6694400  3
   7218   7217   7216   7220     1  0.0000000  0.6508444  3
   7218   7217   7223   7229     1  0.0000000  1.0460000  1
   7218   7217   7223   7229     1  0.0000000  0.6694400  3
   7219   7217   7216   7224     1  0.0000000  1.0460000  1
   7219   7217   7216   7224     1  0.0000000  0.0000000  3
   7219   7217   7216   7220     1  0.0000000  0.6508444  3
   7219   7217   7218   7222     1  0.0000000  1.0460000  1
   7219   7217   7218   7222     1  0.0000000  0.0000000  3
   7219   7217   7218   7234     1  0.0000000  1.0460000  1
   7219   7217   7218   7234     1  0.0000000  0.0000000  3
   7219   7217   7218   7221     1  0.0000000  0.6508444  3
   7219   7217   7223   7229     1  0.0000000  0.6973333  3
   7220   7216   7213   7225     1  0.0000000  1.0460000  1
   7220   7216   7213   7225     1  0.0000000  0.0000000  3
   7220   7216   7217   7223     1  0.0000000  1.0460000  1
   7220   7216   7217   7223     1  0.0000000  0.0000000  3
   7220   7216   7224   7227     1  0.0000000  0.6973333  3
   7221   7218   7217   7223     1  0.0000000  0.6508444  3
   7230   7226   7212   7234     1  0.0000000  1.0460000  1
   7230   7226   7212   7234     1  0.0000000  0.0000000  3
   7230   7226   7232   7233     1  0.0000000  0.6973333  3
   7231   7226   7212   7234     1  0.0000000  1.0460000  1
   7231   7226   7212   7234     1  0.0000000  0.0000000  3
   7231   7226   7232   7233     1  0.0000000  0.6973333  3
   7235   7236   7239   7243     1  0.0000000  0.6508444  3
   7235   7236   7248   7251     1  0.0000000  1.0460000  1
   7235   7236   7248   7251     1  0.0000000  0.6694400  3
   7235   7249   7255   7256     1  0.0000000  1.0460000  1
   7235   7249   7255   7256     1  0.0000000  0.6694400  3
   7235   7257   7241   7244     1  0.0000000  1.6038667  3
   7236   7239   7240   7242     1  0.0000000  0.6508444  3
   7236   7239   7247   7250     1  0.0000000  1.0460000  1
   7236   7239   7247   7250     1  0.0000000  0.6694400  3
   7236   7235   7249   7253     1  0.0000000  0.6508444  3
   7236   7235   7249   7254     1  0.0000000  0.6508444  3
   7237   7235   7236   7239     1  0.0000000  0.6508444  3
   7237   7235   7236   7248     1  0.0000000  1.0460000  1
   7237   7235   7236   7248     1  0.0000000  0.0000000  3
   7237   7235   7236   7238     1  0.0000000  0.6508444  3
   7237   7235   7249   7255     1  0.0000000  1.0460000  1
   7237   7235   7249   7255     1  0.0000000  0.0000000  3
   7237   7235   7249   7253     1  0.0000000  0.6508444  3
   7237   7235   7249   7254     1  0.0000000  0.6508444  3
   7237   7235   7257   7241     1  0.0000000  1.6038667  3
   7238   7236   7239   7240     1  0.0000000  0.6508444  3
   7238   7236   7239   7247     1  0.0000000  1.0460000  1
   7238   7236   7239   7247     1  0.0000000  0.0000000  3
   7238   7236   7239   7243     1  0.0000000  0.6508444  3
   7238   7236   7248   7251     1  0.0000000  0.6973333  3
   7238   7236   7235   7249     1  0.0000000  0.6508444  3
   7238   7236   7235   7257     1  0.0000000  1.0460000  1
   7238   7236   7235   7257     1  0.0000000  0.0000000  3
   7239   7240   7241   7244     1  0.0000000  0.6508444  3
   7239   7240   7246   7252     1  0.0000000  1.0460000  1
   7239   7240   7246   7252     1  0.0000000  0.6694400  3
   7239   7236   7248   7251     1  0.0000000  1.0460000  1
   7239   7236   7248   7251     1  0.0000000  0.6694400  3
   7240   7239   7247   7250     1  0.0000000  1.0460000  1
   7240   7239   7247   7250     1  0.0000000  0.6694400  3
   7241   7240   7246   7252     1  0.0000000  1.0460000  1
   7241   7240   7246   7252     1  0.0000000  0.6694400  3
   7241   7240   7239   7243     1  0.0000000  0.6508444  3
   7242   7240   7241   7245     1  0.0000000  1.0460000  1
   7242   7240   7241   7245     1  0.0000000  0.0000000  3
   7242   7240   7241   7257     1  0.0000000  1.0460000  1
   7242   7240   7241   7257     1  0.0000000  0.0000000  3
   7242   7240   7241   7244     1  0.0000000  0.6508444  3
   7242   7240   7246   7252     1  0.0000000  0.6973333  3
   7242   7240   7239   7247     1  0.0000000  1.0460000  1
   7242   7240   7239   7247     1  0.0000000  0.0000000  3
   7242   7240   7239   7243     1  0.0000000  0.6508444  3
   7243   7239   7240   7246     1  0.0000000  1.0460000  1
   7243   7239   7240   7246     1  0.0000000  0.0000000  3
   7243   7239   7247   7250     1  0.0000000  0.6973333  3
   7243   7239   7236   7248     1  0.0000000  1.0460000  1
   7243   7239   7236   7248     1  0.0000000  0.0000000  3
   7244   7241   7240   7246     1  0.0000000  0.6508444  3
   7253   7249   7255   7256     1  0.0000000  0.6973333  3
   7253   7249   7235   7257     1  0.0000000  1.0460000  1
   7253   7249   7235   7257     1  0.0000000  0.0000000  3
   7254   7249   7255   7256     1  0.0000000  0.6973333  3
   7254   7249   7235   7257     1  0.0000000  1.0460000  1
   7254   7249   7235   7257     1  0.0000000  0.0000000  3
   7258   7259   7262   7266     1  0.0000000  0.6508444  3
   7258   7259   7271   7274     1  0.0000000  1.0460000  1
   7258   7259   7271   7274     1  0.0000000  0.6694400  3
   7258   7272   7278   7279     1  0.0000000  1.0460000  1
   7258   7272   7278   7279     1  0.0000000  0.6694400  3
   7258   7280   7264   7267     1  0.0000000  1.6038667  3
   7259   7258   7272   7276     1  0.0000000  0.6508444  3
   7259   7258   7272   7277     1  0.0000000  0.6508444  3
   7259   7262   7263   7265     1  0.0000000  0.6508444  3
   7259   7262   7270   7273     1  0.0000000  1.0460000  1
   7259   7262   7270   7273     1  0.0000000  0.6694400  3
   7260   7258   7259   7262     1  0.0000000  0.6508444  3
   7260   7258   7259   7271     1  0.0000000  1.0460000  1
   7260   7258   7259   7271     1  0.0000000  0.0000000  3
   7260   7258   7259   7261     1  0.0000000  0.6508444  3
   7260   7258   7272   7278     1  0.0000000  1.0460000  1
   7260   7258   7272   7278     1  0.0000000  0.0000000  3
   7260   7258   7272   7276     1  0.0000000  0.6508444  3
   7260   7258   7272   7277     1  0.0000000  0.6508444  3
   7260   7258   7280   7264     1  0.0000000  1.6038667  3
   7261   7259   7258   7272     1  0.0000000  0.6508444  3
   7261   7259   7258   7280     1  0.0000000  1.0460000  1
   7261   7259   7258   7280     1  0.0000000  0.0000000  3
   7261   7259   7262   7263     1  0.0000000  0.6508444  3
   7261   7259   7262   7270     1  0.0000000  1.0460000  1
   7261   7259   7262   7270     1  0.0000000  0.0000000  3
   7261   7259   7262   7266     1  0.0000000  0.6508444  3
   7261   7259   7271   7274     1  0.0000000  0.6973333  3
   7262   7259   7271   7274     1  0.0000000  1.0460000  1
   7262   7259   7271   7274     1  0.0000000  0.6694400  3
   7262   7263   7264   7267     1  0.0000000  0.6508444  3
   7262   7263   7269   7275     1  0.0000000  1.0460000  1
   7262   7263   7269   7275     1  0.0000000  0.6694400  3
   7263   7262   7270   7273     1  0.0000000  1.0460000  1
   7263   7262   7270   7273     1  0.0000000  0.6694400  3
   7264   7263   7262   7266     1  0.0000000  0.6508444  3
   7264   7263   7269   7275     1  0.0000000  1.0460000  1
   7264   7263   7269   7275     1  0.0000000  0.6694400  3
   7265   7263   7262   7270     1  0.0000000  1.0460000  1
   7265   7263   7262   7270     1  0.0000000  0.0000000  3
   7265   7263   7262   7266     1  0.0000000  0.6508444  3
   7265   7263   7264   7268     1  0.0000000  1.0460000  1
   7265   7263   7264   7268     1  0.0000000  0.0000000  3
   7265   7263   7264   7280     1  0.0000000  1.0460000  1
   7265   7263   7264   7280     1  0.0000000  0.0000000  3
   7265   7263   7264   7267     1  0.0000000  0.6508444  3
   7265   7263   7269   7275     1  0.0000000  0.6973333  3
   7266   7262   7259   7271     1  0.0000000  1.0460000  1
   7266   7262   7259   7271     1  0.0000000  0.0000000  3
   7266   7262   7263   7269     1  0.0000000  1.0460000  1
   7266   7262   7263   7269     1  0.0000000  0.0000000  3
   7266   7262   7270   7273     1  0.0000000  0.6973333  3
   7267   7264   7263   7269     1  0.0000000  0.6508444  3
   7276   7272   7258   7280     1  0.0000000  1.0460000  1
   7276   7272   7258   7280     1  0.0000000  0.0000000  3
   7276   7272   7278   7279     1  0.0000000  0.6973333  3
   7277   7272   7258   7280     1  0.0000000  1.0460000  1
   7277   7272   7258   7280     1  0.0000000  0.0000000  3
   7277   7272   7278   7279     1  0.0000000  0.6973333  3
   7281   7282   7285   7289     1  0.0000000  0.6508444  3
   7281   7282   7294   7297     1  0.0000000  1.0460000  1
   7281   7282   7294   7297     1  0.0000000  0.6694400  3
   7281   7295   7301   7302     1  0.0000000  1.0460000  1
   7281   7295   7301   7302     1  0.0000000  0.6694400  3
   7281   7303   7287   7290     1  0.0000000  1.6038667  3
   7282   7285   7286   7288     1  0.0000000  0.6508444  3
   7282   7285   7293   7296     1  0.0000000  1.0460000  1
   7282   7285   7293   7296     1  0.0000000  0.6694400  3
   7282   7281   7295   7299     1  0.0000000  0.6508444  3
   7282   7281   7295   7300     1  0.0000000  0.6508444  3
   7283   7281   7282   7285     1  0.0000000  0.6508444  3
   7283   7281   7282   7294     1  0.0000000  1.0460000  1
   7283   7281   7282   7294     1  0.0000000  0.0000000  3
   7283   7281   7282   7284     1  0.0000000  0.6508444  3
   7283   7281   7295   7301     1  0.0000000  1.0460000  1
   7283   7281   7295   7301     1  0.0000000  0.0000000  3
   7283   7281   7295   7299     1  0.0000000  0.6508444  3
   7283   7281   7295   7300     1  0.0000000  0.6508444  3
   7283   7281   7303   7287     1  0.0000000  1.6038667  3
   7284   7282   7285   7286     1  0.0000000  0.6508444  3
   7284   7282   7285   7293     1  0.0000000  1.0460000  1
   7284   7282   7285   7293     1  0.0000000  0.0000000  3
   7284   7282   7285   7289     1  0.0000000  0.6508444  3
   7284   7282   7294   7297     1  0.0000000  0.6973333  3
   7284   7282   7281   7295     1  0.0000000  0.6508444  3
   7284   7282   7281   7303     1  0.0000000  1.0460000  1
   7284   7282   7281   7303     1  0.0000000  0.0000000  3
   7285   7286   7287   7290     1  0.0000000  0.6508444  3
   7285   7286   7292   7298     1  0.0000000  1.0460000  1
   7285   7286   7292   7298     1  0.0000000  0.6694400  3
   7285   7282   7294   7297     1  0.0000000  1.0460000  1
   7285   7282   7294   7297     1  0.0000000  0.6694400  3
   7286   7285   7293   7296     1  0.0000000  1.0460000  1
   7286   7285   7293   7296     1  0.0000000  0.6694400  3
   7287   7286   7292   7298     1  0.0000000  1.0460000  1
   7287   7286   7292   7298     1  0.0000000  0.6694400  3
   7287   7286   7285   7289     1  0.0000000  0.6508444  3
   7288   7286   7287   7291     1  0.0000000  1.0460000  1
   7288   7286   7287   7291     1  0.0000000  0.0000000  3
   7288   7286   7287   7303     1  0.0000000  1.0460000  1
   7288   7286   7287   7303     1  0.0000000  0.0000000  3
   7288   7286   7287   7290     1  0.0000000  0.6508444  3
   7288   7286   7292   7298     1  0.0000000  0.6973333  3
   7288   7286   7285   7293     1  0.0000000  1.0460000  1
   7288   7286   7285   7293     1  0.0000000  0.0000000  3
   7288   7286   7285   7289     1  0.0000000  0.6508444  3
   7289   7285   7286   7292     1  0.0000000  1.0460000  1
   7289   7285   7286   7292     1  0.0000000  0.0000000  3
   7289   7285   7293   7296     1  0.0000000  0.6973333  3
   7289   7285   7282   7294     1  0.0000000  1.0460000  1
   7289   7285   7282   7294     1  0.0000000  0.0000000  3
   7290   7287   7286   7292     1  0.0000000  0.6508444  3
   7299   7295   7301   7302     1  0.0000000  0.6973333  3
   7299   7295   7281   7303     1  0.0000000  1.0460000  1
   7299   7295   7281   7303     1  0.0000000  0.0000000  3
   7300   7295   7301   7302     1  0.0000000  0.6973333  3
   7300   7295   7281   7303     1  0.0000000  1.0460000  1
   7300   7295   7281   7303     1  0.0000000  0.0000000  3
   7304   7305   7308   7312     1  0.0000000  0.6508444  3
   7304   7305   7317   7320     1  0.0000000  1.0460000  1
   7304   7305   7317   7320     1  0.0000000  0.6694400  3
   7304   7318   7324   7325     1  0.0000000  1.0460000  1
   7304   7318   7324   7325     1  0.0000000  0.6694400  3
   7304   7326   7310   7313     1  0.0000000  1.6038667  3
   7305   7304   7318   7322     1  0.0000000  0.6508444  3
   7305   7304   7318   7323     1  0.0000000  0.6508444  3
   7305   7308   7309   7311     1  0.0000000  0.6508444  3
   7305   7308   7316   7319     1  0.0000000  1.0460000  1
   7305   7308   7316   7319     1  0.0000000  0.6694400  3
   7306   7304   7305   7308     1  0.0000000  0.6508444  3
   7306   7304   7305   7317     1  0.0000000  1.0460000  1
   7306   7304   7305   7317     1  0.0000000  0.0000000  3
   7306   7304   7305   7307     1  0.0000000  0.6508444  3
   7306   7304   7318   7324     1  0.0000000  1.0460000  1
   7306   7304   7318   7324     1  0.0000000  0.0000000  3
   7306   7304   7318   7322     1  0.0000000  0.6508444  3
   7306   7304   7318   7323     1  0.0000000  0.6508444  3
   7306   7304   7326   7310     1  0.0000000  1.6038667  3
   7307   7305   7304   7318     1  0.0000000  0.6508444  3
   7307   7305   7304   7326     1  0.0000000  1.0460000  1
   7307   7305   7304   7326     1  0.0000000  0.0000000  3
   7307   7305   7308   7309     1  0.0000000  0.6508444  3
   7307   7305   7308   7316     1  0.0000000  1.0460000  1
   7307   7305   7308   7316     1  0.0000000  0.0000000  3
   7307   7305   7308   7312     1  0.0000000  0.6508444  3
   7307   7305   7317   7320     1  0.0000000  0.6973333  3
   7308   7305   7317   7320     1  0.0000000  1.0460000  1
   7308   7305   7317   7320     1  0.0000000  0.6694400  3
   7308   7309   7310   7313     1  0.0000000  0.6508444  3
   7308   7309   7315   7321     1  0.0000000  1.0460000  1
   7308   7309   7315   7321     1  0.0000000  0.6694400  3
   7309   7308   7316   7319     1  0.0000000  1.0460000  1
   7309   7308   7316   7319     1  0.0000000  0.6694400  3
   7310   7309   7308   7312     1  0.0000000  0.6508444  3
   7310   7309   7315   7321     1  0.0000000  1.0460000  1
   7310   7309   7315   7321     1  0.0000000  0.6694400  3
   7311   7309   7308   7316     1  0.0000000  1.0460000  1
   7311   7309   7308   7316     1  0.0000000  0.0000000  3
   7311   7309   7308   7312     1  0.0000000  0.6508444  3
   7311   7309   7310   7314     1  0.0000000  1.0460000  1
   7311   7309   7310   7314     1  0.0000000  0.0000000  3
   7311   7309   7310   7326     1  0.0000000  1.0460000  1
   7311   7309   7310   7326     1  0.0000000  0.0000000  3
   7311   7309   7310   7313     1  0.0000000  0.6508444  3
   7311   7309   7315   7321     1  0.0000000  0.6973333  3
   7312   7308   7305   7317     1  0.0000000  1.0460000  1
   7312   7308   7305   7317     1  0.0000000  0.0000000  3
   7312   7308   7309   7315     1  0.0000000  1.0460000  1
   7312   7308   7309   7315     1  0.0000000  0.0000000  3
   7312   7308   7316   7319     1  0.0000000  0.6973333  3
   7313   7310   7309   7315     1  0.0000000  0.6508444  3
   7322   7318   7304   7326     1  0.0000000  1.0460000  1
   7322   7318   7304   7326     1  0.0000000  0.0000000  3
   7322   7318   7324   7325     1  0.0000000  0.6973333  3
   7323   7318   7304   7326     1  0.0000000  1.0460000  1
   7323   7318   7304   7326     1  0.0000000  0.0000000  3
   7323   7318   7324   7325     1  0.0000000  0.6973333  3
   7327   7328   7331   7335     1  0.0000000  0.6508444  3
   7327   7328   7340   7343     1  0.0000000  1.0460000  1
   7327   7328   7340   7343     1  0.0000000  0.6694400  3
   7327   7341   7347   7348     1  0.0000000  1.0460000  1
   7327   7341   7347   7348     1  0.0000000  0.6694400  3
   7327   7349   7333   7336     1  0.0000000  1.6038667  3
   7328   7331   7332   7334     1  0.0000000  0.6508444  3
   7328   7331   7339   7342     1  0.0000000  1.0460000  1
   7328   7331   7339   7342     1  0.0000000  0.6694400  3
   7328   7327   7341   7345     1  0.0000000  0.6508444  3
   7328   7327   7341   7346     1  0.0000000  0.6508444  3
   7329   7327   7328   7331     1  0.0000000  0.6508444  3
   7329   7327   7328   7340     1  0.0000000  1.0460000  1
   7329   7327   7328   7340     1  0.0000000  0.0000000  3
   7329   7327   7328   7330     1  0.0000000  0.6508444  3
   7329   7327   7341   7347     1  0.0000000  1.0460000  1
   7329   7327   7341   7347     1  0.0000000  0.0000000  3
   7329   7327   7341   7345     1  0.0000000  0.6508444  3
   7329   7327   7341   7346     1  0.0000000  0.6508444  3
   7329   7327   7349   7333     1  0.0000000  1.6038667  3
   7330   7328   7331   7332     1  0.0000000  0.6508444  3
   7330   7328   7331   7339     1  0.0000000  1.0460000  1
   7330   7328   7331   7339     1  0.0000000  0.0000000  3
   7330   7328   7331   7335     1  0.0000000  0.6508444  3
   7330   7328   7340   7343     1  0.0000000  0.6973333  3
   7330   7328   7327   7341     1  0.0000000  0.6508444  3
   7330   7328   7327   7349     1  0.0000000  1.0460000  1
   7330   7328   7327   7349     1  0.0000000  0.0000000  3
   7331   7332   7333   7336     1  0.0000000  0.6508444  3
   7331   7332   7338   7344     1  0.0000000  1.0460000  1
   7331   7332   7338   7344     1  0.0000000  0.6694400  3
   7331   7328   7340   7343     1  0.0000000  1.0460000  1
   7331   7328   7340   7343     1  0.0000000  0.6694400  3
   7332   7331   7339   7342     1  0.0000000  1.0460000  1
   7332   7331   7339   7342     1  0.0000000  0.6694400  3
   7333   7332   7338   7344     1  0.0000000  1.0460000  1
   7333   7332   7338   7344     1  0.0000000  0.6694400  3
   7333   7332   7331   7335     1  0.0000000  0.6508444  3
   7334   7332   7333   7337     1  0.0000000  1.0460000  1
   7334   7332   7333   7337     1  0.0000000  0.0000000  3
   7334   7332   7333   7349     1  0.0000000  1.0460000  1
   7334   7332   7333   7349     1  0.0000000  0.0000000  3
   7334   7332   7333   7336     1  0.0000000  0.6508444  3
   7334   7332   7338   7344     1  0.0000000  0.6973333  3
   7334   7332   7331   7339     1  0.0000000  1.0460000  1
   7334   7332   7331   7339     1  0.0000000  0.0000000  3
   7334   7332   7331   7335     1  0.0000000  0.6508444  3
   7335   7331   7332   7338     1  0.0000000  1.0460000  1
   7335   7331   7332   7338     1  0.0000000  0.0000000  3
   7335   7331   7339   7342     1  0.0000000  0.6973333  3
   7335   7331   7328   7340     1  0.0000000  1.0460000  1
   7335   7331   7328   7340     1  0.0000000  0.0000000  3
   7336   7333   7332   7338     1  0.0000000  0.6508444  3
   7345   7341   7347   7348     1  0.0000000  0.6973333  3
   7345   7341   7327   7349     1  0.0000000  1.0460000  1
   7345   7341   7327   7349     1  0.0000000  0.0000000  3
   7346   7341   7347   7348     1  0.0000000  0.6973333  3
   7346   7341   7327   7349     1  0.0000000  1.0460000  1
   7346   7341   7327   7349     1  0.0000000  0.0000000  3
   7350   7351   7354   7358     1  0.0000000  0.6508444  3
   7350   7351   7363   7366     1  0.0000000  1.0460000  1
   7350   7351   7363   7366     1  0.0000000  0.6694400  3
   7350   7364   7370   7371     1  0.0000000  1.0460000  1
   7350   7364   7370   7371     1  0.0000000  0.6694400  3
   7350   7372   7356   7359     1  0.0000000  1.6038667  3
   7351   7350   7364   7368     1  0.0000000  0.6508444  3
   7351   7350   7364   7369     1  0.0000000  0.6508444  3
   7351   7354   7355   7357     1  0.0000000  0.6508444  3
   7351   7354   7362   7365     1  0.0000000  1.0460000  1
   7351   7354   7362   7365     1  0.0000000  0.6694400  3
   7352   7350   7351   7354     1  0.0000000  0.6508444  3
   7352   7350   7351   7363     1  0.0000000  1.0460000  1
   7352   7350   7351   7363     1  0.0000000  0.0000000  3
   7352   7350   7351   7353     1  0.0000000  0.6508444  3
   7352   7350   7364   7370     1  0.0000000  1.0460000  1
   7352   7350   7364   7370     1  0.0000000  0.0000000  3
   7352   7350   7364   7368     1  0.0000000  0.6508444  3
   7352   7350   7364   7369     1  0.0000000  0.6508444  3
   7352   7350   7372   7356     1  0.0000000  1.6038667  3
   7353   7351   7350   7364     1  0.0000000  0.6508444  3
   7353   7351   7350   7372     1  0.0000000  1.0460000  1
   7353   7351   7350   7372     1  0.0000000  0.0000000  3
   7353   7351   7354   7355     1  0.0000000  0.6508444  3
   7353   7351   7354   7362     1  0.0000000  1.0460000  1
   7353   7351   7354   7362     1  0.0000000  0.0000000  3
   7353   7351   7354   7358     1  0.0000000  0.6508444  3
   7353   7351   7363   7366     1  0.0000000  0.6973333  3
   7354   7351   7363   7366     1  0.0000000  1.0460000  1
   7354   7351   7363   7366     1  0.0000000  0.6694400  3
   7354   7355   7356   7359     1  0.0000000  0.6508444  3
   7354   7355   7361   7367     1  0.0000000  1.0460000  1
   7354   7355   7361   7367     1  0.0000000  0.6694400  3
   7355   7354   7362   7365     1  0.0000000  1.0460000  1
   7355   7354   7362   7365     1  0.0000000  0.6694400  3
   7356   7355   7354   7358     1  0.0000000  0.6508444  3
   7356   7355   7361   7367     1  0.0000000  1.0460000  1
   7356   7355   7361   7367     1  0.0000000  0.6694400  3
   7357   7355   7354   7362     1  0.0000000  1.0460000  1
   7357   7355   7354   7362     1  0.0000000  0.0000000  3
   7357   7355   7354   7358     1  0.0000000  0.6508444  3
   7357   7355   7356   7360     1  0.0000000  1.0460000  1
   7357   7355   7356   7360     1  0.0000000  0.0000000  3
   7357   7355   7356   7372     1  0.0000000  1.0460000  1
   7357   7355   7356   7372     1  0.0000000  0.0000000  3
   7357   7355   7356   7359     1  0.0000000  0.6508444  3
   7357   7355   7361   7367     1  0.0000000  0.6973333  3
   7358   7354   7351   7363     1  0.0000000  1.0460000  1
   7358   7354   7351   7363     1  0.0000000  0.0000000  3
   7358   7354   7355   7361     1  0.0000000  1.0460000  1
   7358   7354   7355   7361     1  0.0000000  0.0000000  3
   7358   7354   7362   7365     1  0.0000000  0.6973333  3
   7359   7356   7355   7361     1  0.0000000  0.6508444  3
   7368   7364   7350   7372     1  0.0000000  1.0460000  1
   7368   7364   7350   7372     1  0.0000000  0.0000000  3
   7368   7364   7370   7371     1  0.0000000  0.6973333  3
   7369   7364   7350   7372     1  0.0000000  1.0460000  1
   7369   7364   7350   7372     1  0.0000000  0.0000000  3
   7369   7364   7370   7371     1  0.0000000  0.6973333  3
   7373   7374   7377   7381     1  0.0000000  0.6508444  3
   7373   7374   7386   7389     1  0.0000000  1.0460000  1
   7373   7374   7386   7389     1  0.0000000  0.6694400  3
   7373   7387   7393   7394     1  0.0000000  1.0460000  1
   7373   7387   7393   7394     1  0.0000000  0.6694400  3
   7373   7395   7379   7382     1  0.0000000  1.6038667  3
   7374   7377   7378   7380     1  0.0000000  0.6508444  3
   7374   7377   7385   7388     1  0.0000000  1.0460000  1
   7374   7377   7385   7388     1  0.0000000  0.6694400  3
   7374   7373   7387   7391     1  0.0000000  0.6508444  3
   7374   7373   7387   7392     1  0.0000000  0.6508444  3
   7375   7373   7374   7377     1  0.0000000  0.6508444  3
   7375   7373   7374   7386     1  0.0000000  1.0460000  1
   7375   7373   7374   7386     1  0.0000000  0.0000000  3
   7375   7373   7374   7376     1  0.0000000  0.6508444  3
   7375   7373   7387   7393     1  0.0000000  1.0460000  1
   7375   7373   7387   7393     1  0.0000000  0.0000000  3
   7375   7373   7387   7391     1  0.0000000  0.6508444  3
   7375   7373   7387   7392     1  0.0000000  0.6508444  3
   7375   7373   7395   7379     1  0.0000000  1.6038667  3
   7376   7374   7377   7378     1  0.0000000  0.6508444  3
   7376   7374   7377   7385     1  0.0000000  1.0460000  1
   7376   7374   7377   7385     1  0.0000000  0.0000000  3
   7376   7374   7377   7381     1  0.0000000  0.6508444  3
   7376   7374   7386   7389     1  0.0000000  0.6973333  3
   7376   7374   7373   7387     1  0.0000000  0.6508444  3
   7376   7374   7373   7395     1  0.0000000  1.0460000  1
   7376   7374   7373   7395     1  0.0000000  0.0000000  3
   7377   7378   7379   7382     1  0.0000000  0.6508444  3
   7377   7378   7384   7390     1  0.0000000  1.0460000  1
   7377   7378   7384   7390     1  0.0000000  0.6694400  3
   7377   7374   7386   7389     1  0.0000000  1.0460000  1
   7377   7374   7386   7389     1  0.0000000  0.6694400  3
   7378   7377   7385   7388     1  0.0000000  1.0460000  1
   7378   7377   7385   7388     1  0.0000000  0.6694400  3
   7379   7378   7384   7390     1  0.0000000  1.0460000  1
   7379   7378   7384   7390     1  0.0000000  0.6694400  3
   7379   7378   7377   7381     1  0.0000000  0.6508444  3
   7380   7378   7379   7383     1  0.0000000  1.0460000  1
   7380   7378   7379   7383     1  0.0000000  0.0000000  3
   7380   7378   7379   7395     1  0.0000000  1.0460000  1
   7380   7378   7379   7395     1  0.0000000  0.0000000  3
   7380   7378   7379   7382     1  0.0000000  0.6508444  3
   7380   7378   7384   7390     1  0.0000000  0.6973333  3
   7380   7378   7377   7385     1  0.0000000  1.0460000  1
   7380   7378   7377   7385     1  0.0000000  0.0000000  3
   7380   7378   7377   7381     1  0.0000000  0.6508444  3
   7381   7377   7378   7384     1  0.0000000  1.0460000  1
   7381   7377   7378   7384     1  0.0000000  0.0000000  3
   7381   7377   7385   7388     1  0.0000000  0.6973333  3
   7381   7377   7374   7386     1  0.0000000  1.0460000  1
   7381   7377   7374   7386     1  0.0000000  0.0000000  3
   7382   7379   7378   7384     1  0.0000000  0.6508444  3
   7391   7387   7393   7394     1  0.0000000  0.6973333  3
   7391   7387   7373   7395     1  0.0000000  1.0460000  1
   7391   7387   7373   7395     1  0.0000000  0.0000000  3
   7392   7387   7393   7394     1  0.0000000  0.6973333  3
   7392   7387   7373   7395     1  0.0000000  1.0460000  1
   7392   7387   7373   7395     1  0.0000000  0.0000000  3
   7396   7397   7400   7404     1  0.0000000  0.6508444  3
   7396   7397   7409   7412     1  0.0000000  1.0460000  1
   7396   7397   7409   7412     1  0.0000000  0.6694400  3
   7396   7410   7416   7417     1  0.0000000  1.0460000  1
   7396   7410   7416   7417     1  0.0000000  0.6694400  3
   7396   7418   7402   7405     1  0.0000000  1.6038667  3
   7397   7396   7410   7414     1  0.0000000  0.6508444  3
   7397   7396   7410   7415     1  0.0000000  0.6508444  3
   7397   7400   7401   7403     1  0.0000000  0.6508444  3
   7397   7400   7408   7411     1  0.0000000  1.0460000  1
   7397   7400   7408   7411     1  0.0000000  0.6694400  3
   7398   7396   7397   7400     1  0.0000000  0.6508444  3
   7398   7396   7397   7409     1  0.0000000  1.0460000  1
   7398   7396   7397   7409     1  0.0000000  0.0000000  3
   7398   7396   7397   7399     1  0.0000000  0.6508444  3
   7398   7396   7410   7416     1  0.0000000  1.0460000  1
   7398   7396   7410   7416     1  0.0000000  0.0000000  3
   7398   7396   7410   7414     1  0.0000000  0.6508444  3
   7398   7396   7410   7415     1  0.0000000  0.6508444  3
   7398   7396   7418   7402     1  0.0000000  1.6038667  3
   7399   7397   7396   7410     1  0.0000000  0.6508444  3
   7399   7397   7396   7418     1  0.0000000  1.0460000  1
   7399   7397   7396   7418     1  0.0000000  0.0000000  3
   7399   7397   7400   7401     1  0.0000000  0.6508444  3
   7399   7397   7400   7408     1  0.0000000  1.0460000  1
   7399   7397   7400   7408     1  0.0000000  0.0000000  3
   7399   7397   7400   7404     1  0.0000000  0.6508444  3
   7399   7397   7409   7412     1  0.0000000  0.6973333  3
   7400   7397   7409   7412     1  0.0000000  1.0460000  1
   7400   7397   7409   7412     1  0.0000000  0.6694400  3
   7400   7401   7402   7405     1  0.0000000  0.6508444  3
   7400   7401   7407   7413     1  0.0000000  1.0460000  1
   7400   7401   7407   7413     1  0.0000000  0.6694400  3
   7401   7400   7408   7411     1  0.0000000  1.0460000  1
   7401   7400   7408   7411     1  0.0000000  0.6694400  3
   7402   7401   7400   7404     1  0.0000000  0.6508444  3
   7402   7401   7407   7413     1  0.0000000  1.0460000  1
   7402   7401   7407   7413     1  0.0000000  0.6694400  3
   7403   7401   7400   7408     1  0.0000000  1.0460000  1
   7403   7401   7400   7408     1  0.0000000  0.0000000  3
   7403   7401   7400   7404     1  0.0000000  0.6508444  3
   7403   7401   7402   7406     1  0.0000000  1.0460000  1
   7403   7401   7402   7406     1  0.0000000  0.0000000  3
   7403   7401   7402   7418     1  0.0000000  1.0460000  1
   7403   7401   7402   7418     1  0.0000000  0.0000000  3
   7403   7401   7402   7405     1  0.0000000  0.6508444  3
   7403   7401   7407   7413     1  0.0000000  0.6973333  3
   7404   7400   7397   7409     1  0.0000000  1.0460000  1
   7404   7400   7397   7409     1  0.0000000  0.0000000  3
   7404   7400   7401   7407     1  0.0000000  1.0460000  1
   7404   7400   7401   7407     1  0.0000000  0.0000000  3
   7404   7400   7408   7411     1  0.0000000  0.6973333  3
   7405   7402   7401   7407     1  0.0000000  0.6508444  3
   7414   7410   7396   7418     1  0.0000000  1.0460000  1
   7414   7410   7396   7418     1  0.0000000  0.0000000  3
   7414   7410   7416   7417     1  0.0000000  0.6973333  3
   7415   7410   7396   7418     1  0.0000000  1.0460000  1
   7415   7410   7396   7418     1  0.0000000  0.0000000  3
   7415   7410   7416   7417     1  0.0000000  0.6973333  3
   7419   7420   7423   7427     1  0.0000000  0.6508444  3
   7419   7420   7432   7435     1  0.0000000  1.0460000  1
   7419   7420   7432   7435     1  0.0000000  0.6694400  3
   7419   7433   7439   7440     1  0.0000000  1.0460000  1
   7419   7433   7439   7440     1  0.0000000  0.6694400  3
   7419   7441   7425   7428     1  0.0000000  1.6038667  3
   7420   7423   7424   7426     1  0.0000000  0.6508444  3
   7420   7423   7431   7434     1  0.0000000  1.0460000  1
   7420   7423   7431   7434     1  0.0000000  0.6694400  3
   7420   7419   7433   7437     1  0.0000000  0.6508444  3
   7420   7419   7433   7438     1  0.0000000  0.6508444  3
   7421   7419   7420   7423     1  0.0000000  0.6508444  3
   7421   7419   7420   7432     1  0.0000000  1.0460000  1
   7421   7419   7420   7432     1  0.0000000  0.0000000  3
   7421   7419   7420   7422     1  0.0000000  0.6508444  3
   7421   7419   7433   7439     1  0.0000000  1.0460000  1
   7421   7419   7433   7439     1  0.0000000  0.0000000  3
   7421   7419   7433   7437     1  0.0000000  0.6508444  3
   7421   7419   7433   7438     1  0.0000000  0.6508444  3
   7421   7419   7441   7425     1  0.0000000  1.6038667  3
   7422   7420   7423   7424     1  0.0000000  0.6508444  3
   7422   7420   7423   7431     1  0.0000000  1.0460000  1
   7422   7420   7423   7431     1  0.0000000  0.0000000  3
   7422   7420   7423   7427     1  0.0000000  0.6508444  3
   7422   7420   7432   7435     1  0.0000000  0.6973333  3
   7422   7420   7419   7433     1  0.0000000  0.6508444  3
   7422   7420   7419   7441     1  0.0000000  1.0460000  1
   7422   7420   7419   7441     1  0.0000000  0.0000000  3
   7423   7424   7425   7428     1  0.0000000  0.6508444  3
   7423   7424   7430   7436     1  0.0000000  1.0460000  1
   7423   7424   7430   7436     1  0.0000000  0.6694400  3
   7423   7420   7432   7435     1  0.0000000  1.0460000  1
   7423   7420   7432   7435     1  0.0000000  0.6694400  3
   7424   7423   7431   7434     1  0.0000000  1.0460000  1
   7424   7423   7431   7434     1  0.0000000  0.6694400  3
   7425   7424   7430   7436     1  0.0000000  1.0460000  1
   7425   7424   7430   7436     1  0.0000000  0.6694400  3
   7425   7424   7423   7427     1  0.0000000  0.6508444  3
   7426   7424   7425   7429     1  0.0000000  1.0460000  1
   7426   7424   7425   7429     1  0.0000000  0.0000000  3
   7426   7424   7425   7441     1  0.0000000  1.0460000  1
   7426   7424   7425   7441     1  0.0000000  0.0000000  3
   7426   7424   7425   7428     1  0.0000000  0.6508444  3
   7426   7424   7430   7436     1  0.0000000  0.6973333  3
   7426   7424   7423   7431     1  0.0000000  1.0460000  1
   7426   7424   7423   7431     1  0.0000000  0.0000000  3
   7426   7424   7423   7427     1  0.0000000  0.6508444  3
   7427   7423   7424   7430     1  0.0000000  1.0460000  1
   7427   7423   7424   7430     1  0.0000000  0.0000000  3
   7427   7423   7431   7434     1  0.0000000  0.6973333  3
   7427   7423   7420   7432     1  0.0000000  1.0460000  1
   7427   7423   7420   7432     1  0.0000000  0.0000000  3
   7428   7425   7424   7430     1  0.0000000  0.6508444  3
   7437   7433   7439   7440     1  0.0000000  0.6973333  3
   7437   7433   7419   7441     1  0.0000000  1.0460000  1
   7437   7433   7419   7441     1  0.0000000  0.0000000  3
   7438   7433   7439   7440     1  0.0000000  0.6973333  3
   7438   7433   7419   7441     1  0.0000000  1.0460000  1
   7438   7433   7419   7441     1  0.0000000  0.0000000  3
   7442   7443   7446   7450     1  0.0000000  0.6508444  3
   7442   7443   7455   7458     1  0.0000000  1.0460000  1
   7442   7443   7455   7458     1  0.0000000  0.6694400  3
   7442   7456   7462   7463     1  0.0000000  1.0460000  1
   7442   7456   7462   7463     1  0.0000000  0.6694400  3
   7442   7464   7448   7451     1  0.0000000  1.6038667  3
   7443   7442   7456   7460     1  0.0000000  0.6508444  3
   7443   7442   7456   7461     1  0.0000000  0.6508444  3
   7443   7446   7447   7449     1  0.0000000  0.6508444  3
   7443   7446   7454   7457     1  0.0000000  1.0460000  1
   7443   7446   7454   7457     1  0.0000000  0.6694400  3
   7444   7442   7443   7446     1  0.0000000  0.6508444  3
   7444   7442   7443   7455     1  0.0000000  1.0460000  1
   7444   7442   7443   7455     1  0.0000000  0.0000000  3
   7444   7442   7443   7445     1  0.0000000  0.6508444  3
   7444   7442   7456   7462     1  0.0000000  1.0460000  1
   7444   7442   7456   7462     1  0.0000000  0.0000000  3
   7444   7442   7456   7460     1  0.0000000  0.6508444  3
   7444   7442   7456   7461     1  0.0000000  0.6508444  3
   7444   7442   7464   7448     1  0.0000000  1.6038667  3
   7445   7443   7442   7456     1  0.0000000  0.6508444  3
   7445   7443   7442   7464     1  0.0000000  1.0460000  1
   7445   7443   7442   7464     1  0.0000000  0.0000000  3
   7445   7443   7446   7447     1  0.0000000  0.6508444  3
   7445   7443   7446   7454     1  0.0000000  1.0460000  1
   7445   7443   7446   7454     1  0.0000000  0.0000000  3
   7445   7443   7446   7450     1  0.0000000  0.6508444  3
   7445   7443   7455   7458     1  0.0000000  0.6973333  3
   7446   7443   7455   7458     1  0.0000000  1.0460000  1
   7446   7443   7455   7458     1  0.0000000  0.6694400  3
   7446   7447   7448   7451     1  0.0000000  0.6508444  3
   7446   7447   7453   7459     1  0.0000000  1.0460000  1
   7446   7447   7453   7459     1  0.0000000  0.6694400  3
   7447   7446   7454   7457     1  0.0000000  1.0460000  1
   7447   7446   7454   7457     1  0.0000000  0.6694400  3
   7448   7447   7446   7450     1  0.0000000  0.6508444  3
   7448   7447   7453   7459     1  0.0000000  1.0460000  1
   7448   7447   7453   7459     1  0.0000000  0.6694400  3
   7449   7447   7446   7454     1  0.0000000  1.0460000  1
   7449   7447   7446   7454     1  0.0000000  0.0000000  3
   7449   7447   7446   7450     1  0.0000000  0.6508444  3
   7449   7447   7448   7452     1  0.0000000  1.0460000  1
   7449   7447   7448   7452     1  0.0000000  0.0000000  3
   7449   7447   7448   7464     1  0.0000000  1.0460000  1
   7449   7447   7448   7464     1  0.0000000  0.0000000  3
   7449   7447   7448   7451     1  0.0000000  0.6508444  3
   7449   7447   7453   7459     1  0.0000000  0.6973333  3
   7450   7446   7443   7455     1  0.0000000  1.0460000  1
   7450   7446   7443   7455     1  0.0000000  0.0000000  3
   7450   7446   7447   7453     1  0.0000000  1.0460000  1
   7450   7446   7447   7453     1  0.0000000  0.0000000  3
   7450   7446   7454   7457     1  0.0000000  0.6973333  3
   7451   7448   7447   7453     1  0.0000000  0.6508444  3
   7460   7456   7442   7464     1  0.0000000  1.0460000  1
   7460   7456   7442   7464     1  0.0000000  0.0000000  3
   7460   7456   7462   7463     1  0.0000000  0.6973333  3
   7461   7456   7442   7464     1  0.0000000  1.0460000  1
   7461   7456   7442   7464     1  0.0000000  0.0000000  3
   7461   7456   7462   7463     1  0.0000000  0.6973333  3
   7465   7466   7469   7473     1  0.0000000  0.6508444  3
   7465   7466   7478   7481     1  0.0000000  1.0460000  1
   7465   7466   7478   7481     1  0.0000000  0.6694400  3
   7465   7479   7485   7486     1  0.0000000  1.0460000  1
   7465   7479   7485   7486     1  0.0000000  0.6694400  3
   7465   7487   7471   7474     1  0.0000000  1.6038667  3
   7466   7469   7470   7472     1  0.0000000  0.6508444  3
   7466   7469   7477   7480     1  0.0000000  1.0460000  1
   7466   7469   7477   7480     1  0.0000000  0.6694400  3
   7466   7465   7479   7483     1  0.0000000  0.6508444  3
   7466   7465   7479   7484     1  0.0000000  0.6508444  3
   7467   7465   7466   7469     1  0.0000000  0.6508444  3
   7467   7465   7466   7478     1  0.0000000  1.0460000  1
   7467   7465   7466   7478     1  0.0000000  0.0000000  3
   7467   7465   7466   7468     1  0.0000000  0.6508444  3
   7467   7465   7479   7485     1  0.0000000  1.0460000  1
   7467   7465   7479   7485     1  0.0000000  0.0000000  3
   7467   7465   7479   7483     1  0.0000000  0.6508444  3
   7467   7465   7479   7484     1  0.0000000  0.6508444  3
   7467   7465   7487   7471     1  0.0000000  1.6038667  3
   7468   7466   7469   7470     1  0.0000000  0.6508444  3
   7468   7466   7469   7477     1  0.0000000  1.0460000  1
   7468   7466   7469   7477     1  0.0000000  0.0000000  3
   7468   7466   7469   7473     1  0.0000000  0.6508444  3
   7468   7466   7478   7481     1  0.0000000  0.6973333  3
   7468   7466   7465   7479     1  0.0000000  0.6508444  3
   7468   7466   7465   7487     1  0.0000000  1.0460000  1
   7468   7466   7465   7487     1  0.0000000  0.0000000  3
   7469   7470   7471   7474     1  0.0000000  0.6508444  3
   7469   7470   7476   7482     1  0.0000000  1.0460000  1
   7469   7470   7476   7482     1  0.0000000  0.6694400  3
   7469   7466   7478   7481     1  0.0000000  1.0460000  1
   7469   7466   7478   7481     1  0.0000000  0.6694400  3
   7470   7469   7477   7480     1  0.0000000  1.0460000  1
   7470   7469   7477   7480     1  0.0000000  0.6694400  3
   7471   7470   7476   7482     1  0.0000000  1.0460000  1
   7471   7470   7476   7482     1  0.0000000  0.6694400  3
   7471   7470   7469   7473     1  0.0000000  0.6508444  3
   7472   7470   7471   7475     1  0.0000000  1.0460000  1
   7472   7470   7471   7475     1  0.0000000  0.0000000  3
   7472   7470   7471   7487     1  0.0000000  1.0460000  1
   7472   7470   7471   7487     1  0.0000000  0.0000000  3
   7472   7470   7471   7474     1  0.0000000  0.6508444  3
   7472   7470   7476   7482     1  0.0000000  0.6973333  3
   7472   7470   7469   7477     1  0.0000000  1.0460000  1
   7472   7470   7469   7477     1  0.0000000  0.0000000  3
   7472   7470   7469   7473     1  0.0000000  0.6508444  3
   7473   7469   7470   7476     1  0.0000000  1.0460000  1
   7473   7469   7470   7476     1  0.0000000  0.0000000  3
   7473   7469   7477   7480     1  0.0000000  0.6973333  3
   7473   7469   7466   7478     1  0.0000000  1.0460000  1
   7473   7469   7466   7478     1  0.0000000  0.0000000  3
   7474   7471   7470   7476     1  0.0000000  0.6508444  3
   7483   7479   7485   7486     1  0.0000000  0.6973333  3
   7483   7479   7465   7487     1  0.0000000  1.0460000  1
   7483   7479   7465   7487     1  0.0000000  0.0000000  3
   7484   7479   7485   7486     1  0.0000000  0.6973333  3
   7484   7479   7465   7487     1  0.0000000  1.0460000  1
   7484   7479   7465   7487     1  0.0000000  0.0000000  3
   7488   7489   7492   7496     1  0.0000000  0.6508444  3
   7488   7489   7501   7504     1  0.0000000  1.0460000  1
   7488   7489   7501   7504     1  0.0000000  0.6694400  3
   7488   7502   7508   7509     1  0.0000000  1.0460000  1
   7488   7502   7508   7509     1  0.0000000  0.6694400  3
   7488   7510   7494   7497     1  0.0000000  1.6038667  3
   7489   7488   7502   7506     1  0.0000000  0.6508444  3
   7489   7488   7502   7507     1  0.0000000  0.6508444  3
   7489   7492   7493   7495     1  0.0000000  0.6508444  3
   7489   7492   7500   7503     1  0.0000000  1.0460000  1
   7489   7492   7500   7503     1  0.0000000  0.6694400  3
   7490   7488   7489   7492     1  0.0000000  0.6508444  3
   7490   7488   7489   7501     1  0.0000000  1.0460000  1
   7490   7488   7489   7501     1  0.0000000  0.0000000  3
   7490   7488   7489   7491     1  0.0000000  0.6508444  3
   7490   7488   7502   7508     1  0.0000000  1.0460000  1
   7490   7488   7502   7508     1  0.0000000  0.0000000  3
   7490   7488   7502   7506     1  0.0000000  0.6508444  3
   7490   7488   7502   7507     1  0.0000000  0.6508444  3
   7490   7488   7510   7494     1  0.0000000  1.6038667  3
   7491   7489   7488   7502     1  0.0000000  0.6508444  3
   7491   7489   7488   7510     1  0.0000000  1.0460000  1
   7491   7489   7488   7510     1  0.0000000  0.0000000  3
   7491   7489   7492   7493     1  0.0000000  0.6508444  3
   7491   7489   7492   7500     1  0.0000000  1.0460000  1
   7491   7489   7492   7500     1  0.0000000  0.0000000  3
   7491   7489   7492   7496     1  0.0000000  0.6508444  3
   7491   7489   7501   7504     1  0.0000000  0.6973333  3
   7492   7489   7501   7504     1  0.0000000  1.0460000  1
   7492   7489   7501   7504     1  0.0000000  0.6694400  3
   7492   7493   7494   7497     1  0.0000000  0.6508444  3
   7492   7493   7499   7505     1  0.0000000  1.0460000  1
   7492   7493   7499   7505     1  0.0000000  0.6694400  3
   7493   7492   7500   7503     1  0.0000000  1.0460000  1
   7493   7492   7500   7503     1  0.0000000  0.6694400  3
   7494   7493   7492   7496     1  0.0000000  0.6508444  3
   7494   7493   7499   7505     1  0.0000000  1.0460000  1
   7494   7493   7499   7505     1  0.0000000  0.6694400  3
   7495   7493   7492   7500     1  0.0000000  1.0460000  1
   7495   7493   7492   7500     1  0.0000000  0.0000000  3
   7495   7493   7492   7496     1  0.0000000  0.6508444  3
   7495   7493   7494   7498     1  0.0000000  1.0460000  1
   7495   7493   7494   7498     1  0.0000000  0.0000000  3
   7495   7493   7494   7510     1  0.0000000  1.0460000  1
   7495   7493   7494   7510     1  0.0000000  0.0000000  3
   7495   7493   7494   7497     1  0.0000000  0.6508444  3
   7495   7493   7499   7505     1  0.0000000  0.6973333  3
   7496   7492   7489   7501     1  0.0000000  1.0460000  1
   7496   7492   7489   7501     1  0.0000000  0.0000000  3
   7496   7492   7493   7499     1  0.0000000  1.0460000  1
   7496   7492   7493   7499     1  0.0000000  0.0000000  3
   7496   7492   7500   7503     1  0.0000000  0.6973333  3
   7497   7494   7493   7499     1  0.0000000  0.6508444  3
   7506   7502   7488   7510     1  0.0000000  1.0460000  1
   7506   7502   7488   7510     1  0.0000000  0.0000000  3
   7506   7502   7508   7509     1  0.0000000  0.6973333  3
   7507   7502   7488   7510     1  0.0000000  1.0460000  1
   7507   7502   7488   7510     1  0.0000000  0.0000000  3
   7507   7502   7508   7509     1  0.0000000  0.6973333  3
   7511   7512   7515   7519     1  0.0000000  0.6508444  3
   7511   7512   7524   7527     1  0.0000000  1.0460000  1
   7511   7512   7524   7527     1  0.0000000  0.6694400  3
   7511   7525   7531   7532     1  0.0000000  1.0460000  1
   7511   7525   7531   7532     1  0.0000000  0.6694400  3
   7511   7533   7517   7520     1  0.0000000  1.6038667  3
   7512   7515   7516   7518     1  0.0000000  0.6508444  3
   7512   7515   7523   7526     1  0.0000000  1.0460000  1
   7512   7515   7523   7526     1  0.0000000  0.6694400  3
   7512   7511   7525   7529     1  0.0000000  0.6508444  3
   7512   7511   7525   7530     1  0.0000000  0.6508444  3
   7513   7511   7512   7515     1  0.0000000  0.6508444  3
   7513   7511   7512   7524     1  0.0000000  1.0460000  1
   7513   7511   7512   7524     1  0.0000000  0.0000000  3
   7513   7511   7512   7514     1  0.0000000  0.6508444  3
   7513   7511   7525   7531     1  0.0000000  1.0460000  1
   7513   7511   7525   7531     1  0.0000000  0.0000000  3
   7513   7511   7525   7529     1  0.0000000  0.6508444  3
   7513   7511   7525   7530     1  0.0000000  0.6508444  3
   7513   7511   7533   7517     1  0.0000000  1.6038667  3
   7514   7512   7515   7516     1  0.0000000  0.6508444  3
   7514   7512   7515   7523     1  0.0000000  1.0460000  1
   7514   7512   7515   7523     1  0.0000000  0.0000000  3
   7514   7512   7515   7519     1  0.0000000  0.6508444  3
   7514   7512   7524   7527     1  0.0000000  0.6973333  3
   7514   7512   7511   7525     1  0.0000000  0.6508444  3
   7514   7512   7511   7533     1  0.0000000  1.0460000  1
   7514   7512   7511   7533     1  0.0000000  0.0000000  3
   7515   7516   7517   7520     1  0.0000000  0.6508444  3
   7515   7516   7522   7528     1  0.0000000  1.0460000  1
   7515   7516   7522   7528     1  0.0000000  0.6694400  3
   7515   7512   7524   7527     1  0.0000000  1.0460000  1
   7515   7512   7524   7527     1  0.0000000  0.6694400  3
   7516   7515   7523   7526     1  0.0000000  1.0460000  1
   7516   7515   7523   7526     1  0.0000000  0.6694400  3
   7517   7516   7522   7528     1  0.0000000  1.0460000  1
   7517   7516   7522   7528     1  0.0000000  0.6694400  3
   7517   7516   7515   7519     1  0.0000000  0.6508444  3
   7518   7516   7517   7521     1  0.0000000  1.0460000  1
   7518   7516   7517   7521     1  0.0000000  0.0000000  3
   7518   7516   7517   7533     1  0.0000000  1.0460000  1
   7518   7516   7517   7533     1  0.0000000  0.0000000  3
   7518   7516   7517   7520     1  0.0000000  0.6508444  3
   7518   7516   7522   7528     1  0.0000000  0.6973333  3
   7518   7516   7515   7523     1  0.0000000  1.0460000  1
   7518   7516   7515   7523     1  0.0000000  0.0000000  3
   7518   7516   7515   7519     1  0.0000000  0.6508444  3
   7519   7515   7516   7522     1  0.0000000  1.0460000  1
   7519   7515   7516   7522     1  0.0000000  0.0000000  3
   7519   7515   7523   7526     1  0.0000000  0.6973333  3
   7519   7515   7512   7524     1  0.0000000  1.0460000  1
   7519   7515   7512   7524     1  0.0000000  0.0000000  3
   7520   7517   7516   7522     1  0.0000000  0.6508444  3
   7529   7525   7531   7532     1  0.0000000  0.6973333  3
   7529   7525   7511   7533     1  0.0000000  1.0460000  1
   7529   7525   7511   7533     1  0.0000000  0.0000000  3
   7530   7525   7531   7532     1  0.0000000  0.6973333  3
   7530   7525   7511   7533     1  0.0000000  1.0460000  1
   7530   7525   7511   7533     1  0.0000000  0.0000000  3
   7534   7535   7538   7542     1  0.0000000  0.6508444  3
   7534   7535   7547   7550     1  0.0000000  1.0460000  1
   7534   7535   7547   7550     1  0.0000000  0.6694400  3
   7534   7548   7554   7555     1  0.0000000  1.0460000  1
   7534   7548   7554   7555     1  0.0000000  0.6694400  3
   7534   7556   7540   7543     1  0.0000000  1.6038667  3
   7535   7534   7548   7552     1  0.0000000  0.6508444  3
   7535   7534   7548   7553     1  0.0000000  0.6508444  3
   7535   7538   7539   7541     1  0.0000000  0.6508444  3
   7535   7538   7546   7549     1  0.0000000  1.0460000  1
   7535   7538   7546   7549     1  0.0000000  0.6694400  3
   7536   7534   7535   7538     1  0.0000000  0.6508444  3
   7536   7534   7535   7547     1  0.0000000  1.0460000  1
   7536   7534   7535   7547     1  0.0000000  0.0000000  3
   7536   7534   7535   7537     1  0.0000000  0.6508444  3
   7536   7534   7548   7554     1  0.0000000  1.0460000  1
   7536   7534   7548   7554     1  0.0000000  0.0000000  3
   7536   7534   7548   7552     1  0.0000000  0.6508444  3
   7536   7534   7548   7553     1  0.0000000  0.6508444  3
   7536   7534   7556   7540     1  0.0000000  1.6038667  3
   7537   7535   7534   7548     1  0.0000000  0.6508444  3
   7537   7535   7534   7556     1  0.0000000  1.0460000  1
   7537   7535   7534   7556     1  0.0000000  0.0000000  3
   7537   7535   7538   7539     1  0.0000000  0.6508444  3
   7537   7535   7538   7546     1  0.0000000  1.0460000  1
   7537   7535   7538   7546     1  0.0000000  0.0000000  3
   7537   7535   7538   7542     1  0.0000000  0.6508444  3
   7537   7535   7547   7550     1  0.0000000  0.6973333  3
   7538   7535   7547   7550     1  0.0000000  1.0460000  1
   7538   7535   7547   7550     1  0.0000000  0.6694400  3
   7538   7539   7540   7543     1  0.0000000  0.6508444  3
   7538   7539   7545   7551     1  0.0000000  1.0460000  1
   7538   7539   7545   7551     1  0.0000000  0.6694400  3
   7539   7538   7546   7549     1  0.0000000  1.0460000  1
   7539   7538   7546   7549     1  0.0000000  0.6694400  3
   7540   7539   7538   7542     1  0.0000000  0.6508444  3
   7540   7539   7545   7551     1  0.0000000  1.0460000  1
   7540   7539   7545   7551     1  0.0000000  0.6694400  3
   7541   7539   7538   7546     1  0.0000000  1.0460000  1
   7541   7539   7538   7546     1  0.0000000  0.0000000  3
   7541   7539   7538   7542     1  0.0000000  0.6508444  3
   7541   7539   7540   7544     1  0.0000000  1.0460000  1
   7541   7539   7540   7544     1  0.0000000  0.0000000  3
   7541   7539   7540   7556     1  0.0000000  1.0460000  1
   7541   7539   7540   7556     1  0.0000000  0.0000000  3
   7541   7539   7540   7543     1  0.0000000  0.6508444  3
   7541   7539   7545   7551     1  0.0000000  0.6973333  3
   7542   7538   7535   7547     1  0.0000000  1.0460000  1
   7542   7538   7535   7547     1  0.0000000  0.0000000  3
   7542   7538   7539   7545     1  0.0000000  1.0460000  1
   7542   7538   7539   7545     1  0.0000000  0.0000000  3
   7542   7538   7546   7549     1  0.0000000  0.6973333  3
   7543   7540   7539   7545     1  0.0000000  0.6508444  3
   7552   7548   7534   7556     1  0.0000000  1.0460000  1
   7552   7548   7534   7556     1  0.0000000  0.0000000  3
   7552   7548   7554   7555     1  0.0000000  0.6973333  3
   7553   7548   7534   7556     1  0.0000000  1.0460000  1
   7553   7548   7534   7556     1  0.0000000  0.0000000  3
   7553   7548   7554   7555     1  0.0000000  0.6973333  3
   7557   7558   7561   7565     1  0.0000000  0.6508444  3
   7557   7558   7570   7573     1  0.0000000  1.0460000  1
   7557   7558   7570   7573     1  0.0000000  0.6694400  3
   7557   7571   7577   7578     1  0.0000000  1.0460000  1
   7557   7571   7577   7578     1  0.0000000  0.6694400  3
   7557   7579   7563   7566     1  0.0000000  1.6038667  3
   7558   7561   7562   7564     1  0.0000000  0.6508444  3
   7558   7561   7569   7572     1  0.0000000  1.0460000  1
   7558   7561   7569   7572     1  0.0000000  0.6694400  3
   7558   7557   7571   7575     1  0.0000000  0.6508444  3
   7558   7557   7571   7576     1  0.0000000  0.6508444  3
   7559   7557   7558   7561     1  0.0000000  0.6508444  3
   7559   7557   7558   7570     1  0.0000000  1.0460000  1
   7559   7557   7558   7570     1  0.0000000  0.0000000  3
   7559   7557   7558   7560     1  0.0000000  0.6508444  3
   7559   7557   7571   7577     1  0.0000000  1.0460000  1
   7559   7557   7571   7577     1  0.0000000  0.0000000  3
   7559   7557   7571   7575     1  0.0000000  0.6508444  3
   7559   7557   7571   7576     1  0.0000000  0.6508444  3
   7559   7557   7579   7563     1  0.0000000  1.6038667  3
   7560   7558   7561   7562     1  0.0000000  0.6508444  3
   7560   7558   7561   7569     1  0.0000000  1.0460000  1
   7560   7558   7561   7569     1  0.0000000  0.0000000  3
   7560   7558   7561   7565     1  0.0000000  0.6508444  3
   7560   7558   7570   7573     1  0.0000000  0.6973333  3
   7560   7558   7557   7571     1  0.0000000  0.6508444  3
   7560   7558   7557   7579     1  0.0000000  1.0460000  1
   7560   7558   7557   7579     1  0.0000000  0.0000000  3
   7561   7562   7563   7566     1  0.0000000  0.6508444  3
   7561   7562   7568   7574     1  0.0000000  1.0460000  1
   7561   7562   7568   7574     1  0.0000000  0.6694400  3
   7561   7558   7570   7573     1  0.0000000  1.0460000  1
   7561   7558   7570   7573     1  0.0000000  0.6694400  3
   7562   7561   7569   7572     1  0.0000000  1.0460000  1
   7562   7561   7569   7572     1  0.0000000  0.6694400  3
   7563   7562   7568   7574     1  0.0000000  1.0460000  1
   7563   7562   7568   7574     1  0.0000000  0.6694400  3
   7563   7562   7561   7565     1  0.0000000  0.6508444  3
   7564   7562   7563   7567     1  0.0000000  1.0460000  1
   7564   7562   7563   7567     1  0.0000000  0.0000000  3
   7564   7562   7563   7579     1  0.0000000  1.0460000  1
   7564   7562   7563   7579     1  0.0000000  0.0000000  3
   7564   7562   7563   7566     1  0.0000000  0.6508444  3
   7564   7562   7568   7574     1  0.0000000  0.6973333  3
   7564   7562   7561   7569     1  0.0000000  1.0460000  1
   7564   7562   7561   7569     1  0.0000000  0.0000000  3
   7564   7562   7561   7565     1  0.0000000  0.6508444  3
   7565   7561   7562   7568     1  0.0000000  1.0460000  1
   7565   7561   7562   7568     1  0.0000000  0.0000000  3
   7565   7561   7569   7572     1  0.0000000  0.6973333  3
   7565   7561   7558   7570     1  0.0000000  1.0460000  1
   7565   7561   7558   7570     1  0.0000000  0.0000000  3
   7566   7563   7562   7568     1  0.0000000  0.6508444  3
   7575   7571   7577   7578     1  0.0000000  0.6973333  3
   7575   7571   7557   7579     1  0.0000000  1.0460000  1
   7575   7571   7557   7579     1  0.0000000  0.0000000  3
   7576   7571   7577   7578     1  0.0000000  0.6973333  3
   7576   7571   7557   7579     1  0.0000000  1.0460000  1
   7576   7571   7557   7579     1  0.0000000  0.0000000  3
   7580   7581   7584   7588     1  0.0000000  0.6508444  3
   7580   7581   7593   7596     1  0.0000000  1.0460000  1
   7580   7581   7593   7596     1  0.0000000  0.6694400  3
   7580   7594   7600   7601     1  0.0000000  1.0460000  1
   7580   7594   7600   7601     1  0.0000000  0.6694400  3
   7580   7602   7586   7589     1  0.0000000  1.6038667  3
   7581   7580   7594   7598     1  0.0000000  0.6508444  3
   7581   7580   7594   7599     1  0.0000000  0.6508444  3
   7581   7584   7585   7587     1  0.0000000  0.6508444  3
   7581   7584   7592   7595     1  0.0000000  1.0460000  1
   7581   7584   7592   7595     1  0.0000000  0.6694400  3
   7582   7580   7581   7584     1  0.0000000  0.6508444  3
   7582   7580   7581   7593     1  0.0000000  1.0460000  1
   7582   7580   7581   7593     1  0.0000000  0.0000000  3
   7582   7580   7581   7583     1  0.0000000  0.6508444  3
   7582   7580   7594   7600     1  0.0000000  1.0460000  1
   7582   7580   7594   7600     1  0.0000000  0.0000000  3
   7582   7580   7594   7598     1  0.0000000  0.6508444  3
   7582   7580   7594   7599     1  0.0000000  0.6508444  3
   7582   7580   7602   7586     1  0.0000000  1.6038667  3
   7583   7581   7580   7594     1  0.0000000  0.6508444  3
   7583   7581   7580   7602     1  0.0000000  1.0460000  1
   7583   7581   7580   7602     1  0.0000000  0.0000000  3
   7583   7581   7584   7585     1  0.0000000  0.6508444  3
   7583   7581   7584   7592     1  0.0000000  1.0460000  1
   7583   7581   7584   7592     1  0.0000000  0.0000000  3
   7583   7581   7584   7588     1  0.0000000  0.6508444  3
   7583   7581   7593   7596     1  0.0000000  0.6973333  3
   7584   7581   7593   7596     1  0.0000000  1.0460000  1
   7584   7581   7593   7596     1  0.0000000  0.6694400  3
   7584   7585   7586   7589     1  0.0000000  0.6508444  3
   7584   7585   7591   7597     1  0.0000000  1.0460000  1
   7584   7585   7591   7597     1  0.0000000  0.6694400  3
   7585   7584   7592   7595     1  0.0000000  1.0460000  1
   7585   7584   7592   7595     1  0.0000000  0.6694400  3
   7586   7585   7584   7588     1  0.0000000  0.6508444  3
   7586   7585   7591   7597     1  0.0000000  1.0460000  1
   7586   7585   7591   7597     1  0.0000000  0.6694400  3
   7587   7585   7584   7592     1  0.0000000  1.0460000  1
   7587   7585   7584   7592     1  0.0000000  0.0000000  3
   7587   7585   7584   7588     1  0.0000000  0.6508444  3
   7587   7585   7586   7590     1  0.0000000  1.0460000  1
   7587   7585   7586   7590     1  0.0000000  0.0000000  3
   7587   7585   7586   7602     1  0.0000000  1.0460000  1
   7587   7585   7586   7602     1  0.0000000  0.0000000  3
   7587   7585   7586   7589     1  0.0000000  0.6508444  3
   7587   7585   7591   7597     1  0.0000000  0.6973333  3
   7588   7584   7581   7593     1  0.0000000  1.0460000  1
   7588   7584   7581   7593     1  0.0000000  0.0000000  3
   7588   7584   7585   7591     1  0.0000000  1.0460000  1
   7588   7584   7585   7591     1  0.0000000  0.0000000  3
   7588   7584   7592   7595     1  0.0000000  0.6973333  3
   7589   7586   7585   7591     1  0.0000000  0.6508444  3
   7598   7594   7580   7602     1  0.0000000  1.0460000  1
   7598   7594   7580   7602     1  0.0000000  0.0000000  3
   7598   7594   7600   7601     1  0.0000000  0.6973333  3
   7599   7594   7580   7602     1  0.0000000  1.0460000  1
   7599   7594   7580   7602     1  0.0000000  0.0000000  3
   7599   7594   7600   7601     1  0.0000000  0.6973333  3
   7603   7604   7607   7611     1  0.0000000  0.6508444  3
   7603   7604   7616   7619     1  0.0000000  1.0460000  1
   7603   7604   7616   7619     1  0.0000000  0.6694400  3
   7603   7617   7623   7624     1  0.0000000  1.0460000  1
   7603   7617   7623   7624     1  0.0000000  0.6694400  3
   7603   7625   7609   7612     1  0.0000000  1.6038667  3
   7604   7607   7608   7610     1  0.0000000  0.6508444  3
   7604   7607   7615   7618     1  0.0000000  1.0460000  1
   7604   7607   7615   7618     1  0.0000000  0.6694400  3
   7604   7603   7617   7621     1  0.0000000  0.6508444  3
   7604   7603   7617   7622     1  0.0000000  0.6508444  3
   7605   7603   7604   7607     1  0.0000000  0.6508444  3
   7605   7603   7604   7616     1  0.0000000  1.0460000  1
   7605   7603   7604   7616     1  0.0000000  0.0000000  3
   7605   7603   7604   7606     1  0.0000000  0.6508444  3
   7605   7603   7617   7623     1  0.0000000  1.0460000  1
   7605   7603   7617   7623     1  0.0000000  0.0000000  3
   7605   7603   7617   7621     1  0.0000000  0.6508444  3
   7605   7603   7617   7622     1  0.0000000  0.6508444  3
   7605   7603   7625   7609     1  0.0000000  1.6038667  3
   7606   7604   7607   7608     1  0.0000000  0.6508444  3
   7606   7604   7607   7615     1  0.0000000  1.0460000  1
   7606   7604   7607   7615     1  0.0000000  0.0000000  3
   7606   7604   7607   7611     1  0.0000000  0.6508444  3
   7606   7604   7616   7619     1  0.0000000  0.6973333  3
   7606   7604   7603   7617     1  0.0000000  0.6508444  3
   7606   7604   7603   7625     1  0.0000000  1.0460000  1
   7606   7604   7603   7625     1  0.0000000  0.0000000  3
   7607   7608   7609   7612     1  0.0000000  0.6508444  3
   7607   7608   7614   7620     1  0.0000000  1.0460000  1
   7607   7608   7614   7620     1  0.0000000  0.6694400  3
   7607   7604   7616   7619     1  0.0000000  1.0460000  1
   7607   7604   7616   7619     1  0.0000000  0.6694400  3
   7608   7607   7615   7618     1  0.0000000  1.0460000  1
   7608   7607   7615   7618     1  0.0000000  0.6694400  3
   7609   7608   7614   7620     1  0.0000000  1.0460000  1
   7609   7608   7614   7620     1  0.0000000  0.6694400  3
   7609   7608   7607   7611     1  0.0000000  0.6508444  3
   7610   7608   7609   7613     1  0.0000000  1.0460000  1
   7610   7608   7609   7613     1  0.0000000  0.0000000  3
   7610   7608   7609   7625     1  0.0000000  1.0460000  1
   7610   7608   7609   7625     1  0.0000000  0.0000000  3
   7610   7608   7609   7612     1  0.0000000  0.6508444  3
   7610   7608   7614   7620     1  0.0000000  0.6973333  3
   7610   7608   7607   7615     1  0.0000000  1.0460000  1
   7610   7608   7607   7615     1  0.0000000  0.0000000  3
   7610   7608   7607   7611     1  0.0000000  0.6508444  3
   7611   7607   7608   7614     1  0.0000000  1.0460000  1
   7611   7607   7608   7614     1  0.0000000  0.0000000  3
   7611   7607   7615   7618     1  0.0000000  0.6973333  3
   7611   7607   7604   7616     1  0.0000000  1.0460000  1
   7611   7607   7604   7616     1  0.0000000  0.0000000  3
   7612   7609   7608   7614     1  0.0000000  0.6508444  3
   7621   7617   7623   7624     1  0.0000000  0.6973333  3
   7621   7617   7603   7625     1  0.0000000  1.0460000  1
   7621   7617   7603   7625     1  0.0000000  0.0000000  3
   7622   7617   7623   7624     1  0.0000000  0.6973333  3
   7622   7617   7603   7625     1  0.0000000  1.0460000  1
   7622   7617   7603   7625     1  0.0000000  0.0000000  3
   7626   7627   7630   7634     1  0.0000000  0.6508444  3
   7626   7627   7639   7642     1  0.0000000  1.0460000  1
   7626   7627   7639   7642     1  0.0000000  0.6694400  3
   7626   7640   7646   7647     1  0.0000000  1.0460000  1
   7626   7640   7646   7647     1  0.0000000  0.6694400  3
   7626   7648   7632   7635     1  0.0000000  1.6038667  3
   7627   7626   7640   7644     1  0.0000000  0.6508444  3
   7627   7626   7640   7645     1  0.0000000  0.6508444  3
   7627   7630   7631   7633     1  0.0000000  0.6508444  3
   7627   7630   7638   7641     1  0.0000000  1.0460000  1
   7627   7630   7638   7641     1  0.0000000  0.6694400  3
   7628   7626   7627   7630     1  0.0000000  0.6508444  3
   7628   7626   7627   7639     1  0.0000000  1.0460000  1
   7628   7626   7627   7639     1  0.0000000  0.0000000  3
   7628   7626   7627   7629     1  0.0000000  0.6508444  3
   7628   7626   7640   7646     1  0.0000000  1.0460000  1
   7628   7626   7640   7646     1  0.0000000  0.0000000  3
   7628   7626   7640   7644     1  0.0000000  0.6508444  3
   7628   7626   7640   7645     1  0.0000000  0.6508444  3
   7628   7626   7648   7632     1  0.0000000  1.6038667  3
   7629   7627   7626   7640     1  0.0000000  0.6508444  3
   7629   7627   7626   7648     1  0.0000000  1.0460000  1
   7629   7627   7626   7648     1  0.0000000  0.0000000  3
   7629   7627   7630   7631     1  0.0000000  0.6508444  3
   7629   7627   7630   7638     1  0.0000000  1.0460000  1
   7629   7627   7630   7638     1  0.0000000  0.0000000  3
   7629   7627   7630   7634     1  0.0000000  0.6508444  3
   7629   7627   7639   7642     1  0.0000000  0.6973333  3
   7630   7627   7639   7642     1  0.0000000  1.0460000  1
   7630   7627   7639   7642     1  0.0000000  0.6694400  3
   7630   7631   7632   7635     1  0.0000000  0.6508444  3
   7630   7631   7637   7643     1  0.0000000  1.0460000  1
   7630   7631   7637   7643     1  0.0000000  0.6694400  3
   7631   7630   7638   7641     1  0.0000000  1.0460000  1
   7631   7630   7638   7641     1  0.0000000  0.6694400  3
   7632   7631   7630   7634     1  0.0000000  0.6508444  3
   7632   7631   7637   7643     1  0.0000000  1.0460000  1
   7632   7631   7637   7643     1  0.0000000  0.6694400  3
   7633   7631   7630   7638     1  0.0000000  1.0460000  1
   7633   7631   7630   7638     1  0.0000000  0.0000000  3
   7633   7631   7630   7634     1  0.0000000  0.6508444  3
   7633   7631   7632   7636     1  0.0000000  1.0460000  1
   7633   7631   7632   7636     1  0.0000000  0.0000000  3
   7633   7631   7632   7648     1  0.0000000  1.0460000  1
   7633   7631   7632   7648     1  0.0000000  0.0000000  3
   7633   7631   7632   7635     1  0.0000000  0.6508444  3
   7633   7631   7637   7643     1  0.0000000  0.6973333  3
   7634   7630   7627   7639     1  0.0000000  1.0460000  1
   7634   7630   7627   7639     1  0.0000000  0.0000000  3
   7634   7630   7631   7637     1  0.0000000  1.0460000  1
   7634   7630   7631   7637     1  0.0000000  0.0000000  3
   7634   7630   7638   7641     1  0.0000000  0.6973333  3
   7635   7632   7631   7637     1  0.0000000  0.6508444  3
   7644   7640   7626   7648     1  0.0000000  1.0460000  1
   7644   7640   7626   7648     1  0.0000000  0.0000000  3
   7644   7640   7646   7647     1  0.0000000  0.6973333  3
   7645   7640   7626   7648     1  0.0000000  1.0460000  1
   7645   7640   7626   7648     1  0.0000000  0.0000000  3
   7645   7640   7646   7647     1  0.0000000  0.6973333  3
   7649   7650   7653   7657     1  0.0000000  0.6508444  3
   7649   7650   7662   7665     1  0.0000000  1.0460000  1
   7649   7650   7662   7665     1  0.0000000  0.6694400  3
   7649   7663   7669   7670     1  0.0000000  1.0460000  1
   7649   7663   7669   7670     1  0.0000000  0.6694400  3
   7649   7671   7655   7658     1  0.0000000  1.6038667  3
   7650   7653   7654   7656     1  0.0000000  0.6508444  3
   7650   7653   7661   7664     1  0.0000000  1.0460000  1
   7650   7653   7661   7664     1  0.0000000  0.6694400  3
   7650   7649   7663   7667     1  0.0000000  0.6508444  3
   7650   7649   7663   7668     1  0.0000000  0.6508444  3
   7651   7649   7650   7653     1  0.0000000  0.6508444  3
   7651   7649   7650   7662     1  0.0000000  1.0460000  1
   7651   7649   7650   7662     1  0.0000000  0.0000000  3
   7651   7649   7650   7652     1  0.0000000  0.6508444  3
   7651   7649   7663   7669     1  0.0000000  1.0460000  1
   7651   7649   7663   7669     1  0.0000000  0.0000000  3
   7651   7649   7663   7667     1  0.0000000  0.6508444  3
   7651   7649   7663   7668     1  0.0000000  0.6508444  3
   7651   7649   7671   7655     1  0.0000000  1.6038667  3
   7652   7650   7653   7654     1  0.0000000  0.6508444  3
   7652   7650   7653   7661     1  0.0000000  1.0460000  1
   7652   7650   7653   7661     1  0.0000000  0.0000000  3
   7652   7650   7653   7657     1  0.0000000  0.6508444  3
   7652   7650   7662   7665     1  0.0000000  0.6973333  3
   7652   7650   7649   7663     1  0.0000000  0.6508444  3
   7652   7650   7649   7671     1  0.0000000  1.0460000  1
   7652   7650   7649   7671     1  0.0000000  0.0000000  3
   7653   7654   7655   7658     1  0.0000000  0.6508444  3
   7653   7654   7660   7666     1  0.0000000  1.0460000  1
   7653   7654   7660   7666     1  0.0000000  0.6694400  3
   7653   7650   7662   7665     1  0.0000000  1.0460000  1
   7653   7650   7662   7665     1  0.0000000  0.6694400  3
   7654   7653   7661   7664     1  0.0000000  1.0460000  1
   7654   7653   7661   7664     1  0.0000000  0.6694400  3
   7655   7654   7660   7666     1  0.0000000  1.0460000  1
   7655   7654   7660   7666     1  0.0000000  0.6694400  3
   7655   7654   7653   7657     1  0.0000000  0.6508444  3
   7656   7654   7655   7659     1  0.0000000  1.0460000  1
   7656   7654   7655   7659     1  0.0000000  0.0000000  3
   7656   7654   7655   7671     1  0.0000000  1.0460000  1
   7656   7654   7655   7671     1  0.0000000  0.0000000  3
   7656   7654   7655   7658     1  0.0000000  0.6508444  3
   7656   7654   7660   7666     1  0.0000000  0.6973333  3
   7656   7654   7653   7661     1  0.0000000  1.0460000  1
   7656   7654   7653   7661     1  0.0000000  0.0000000  3
   7656   7654   7653   7657     1  0.0000000  0.6508444  3
   7657   7653   7654   7660     1  0.0000000  1.0460000  1
   7657   7653   7654   7660     1  0.0000000  0.0000000  3
   7657   7653   7661   7664     1  0.0000000  0.6973333  3
   7657   7653   7650   7662     1  0.0000000  1.0460000  1
   7657   7653   7650   7662     1  0.0000000  0.0000000  3
   7658   7655   7654   7660     1  0.0000000  0.6508444  3
   7667   7663   7669   7670     1  0.0000000  0.6973333  3
   7667   7663   7649   7671     1  0.0000000  1.0460000  1
   7667   7663   7649   7671     1  0.0000000  0.0000000  3
   7668   7663   7669   7670     1  0.0000000  0.6973333  3
   7668   7663   7649   7671     1  0.0000000  1.0460000  1
   7668   7663   7649   7671     1  0.0000000  0.0000000  3
   7672   7673   7676   7680     1  0.0000000  0.6508444  3
   7672   7673   7685   7688     1  0.0000000  1.0460000  1
   7672   7673   7685   7688     1  0.0000000  0.6694400  3
   7672   7686   7692   7693     1  0.0000000  1.0460000  1
   7672   7686   7692   7693     1  0.0000000  0.6694400  3
   7672   7694   7678   7681     1  0.0000000  1.6038667  3
   7673   7672   7686   7690     1  0.0000000  0.6508444  3
   7673   7672   7686   7691     1  0.0000000  0.6508444  3
   7673   7676   7677   7679     1  0.0000000  0.6508444  3
   7673   7676   7684   7687     1  0.0000000  1.0460000  1
   7673   7676   7684   7687     1  0.0000000  0.6694400  3
   7674   7672   7673   7676     1  0.0000000  0.6508444  3
   7674   7672   7673   7685     1  0.0000000  1.0460000  1
   7674   7672   7673   7685     1  0.0000000  0.0000000  3
   7674   7672   7673   7675     1  0.0000000  0.6508444  3
   7674   7672   7686   7692     1  0.0000000  1.0460000  1
   7674   7672   7686   7692     1  0.0000000  0.0000000  3
   7674   7672   7686   7690     1  0.0000000  0.6508444  3
   7674   7672   7686   7691     1  0.0000000  0.6508444  3
   7674   7672   7694   7678     1  0.0000000  1.6038667  3
   7675   7673   7672   7686     1  0.0000000  0.6508444  3
   7675   7673   7672   7694     1  0.0000000  1.0460000  1
   7675   7673   7672   7694     1  0.0000000  0.0000000  3
   7675   7673   7676   7677     1  0.0000000  0.6508444  3
   7675   7673   7676   7684     1  0.0000000  1.0460000  1
   7675   7673   7676   7684     1  0.0000000  0.0000000  3
   7675   7673   7676   7680     1  0.0000000  0.6508444  3
   7675   7673   7685   7688     1  0.0000000  0.6973333  3
   7676   7673   7685   7688     1  0.0000000  1.0460000  1
   7676   7673   7685   7688     1  0.0000000  0.6694400  3
   7676   7677   7678   7681     1  0.0000000  0.6508444  3
   7676   7677   7683   7689     1  0.0000000  1.0460000  1
   7676   7677   7683   7689     1  0.0000000  0.6694400  3
   7677   7676   7684   7687     1  0.0000000  1.0460000  1
   7677   7676   7684   7687     1  0.0000000  0.6694400  3
   7678   7677   7676   7680     1  0.0000000  0.6508444  3
   7678   7677   7683   7689     1  0.0000000  1.0460000  1
   7678   7677   7683   7689     1  0.0000000  0.6694400  3
   7679   7677   7676   7684     1  0.0000000  1.0460000  1
   7679   7677   7676   7684     1  0.0000000  0.0000000  3
   7679   7677   7676   7680     1  0.0000000  0.6508444  3
   7679   7677   7678   7682     1  0.0000000  1.0460000  1
   7679   7677   7678   7682     1  0.0000000  0.0000000  3
   7679   7677   7678   7694     1  0.0000000  1.0460000  1
   7679   7677   7678   7694     1  0.0000000  0.0000000  3
   7679   7677   7678   7681     1  0.0000000  0.6508444  3
   7679   7677   7683   7689     1  0.0000000  0.6973333  3
   7680   7676   7673   7685     1  0.0000000  1.0460000  1
   7680   7676   7673   7685     1  0.0000000  0.0000000  3
   7680   7676   7677   7683     1  0.0000000  1.0460000  1
   7680   7676   7677   7683     1  0.0000000  0.0000000  3
   7680   7676   7684   7687     1  0.0000000  0.6973333  3
   7681   7678   7677   7683     1  0.0000000  0.6508444  3
   7690   7686   7672   7694     1  0.0000000  1.0460000  1
   7690   7686   7672   7694     1  0.0000000  0.0000000  3
   7690   7686   7692   7693     1  0.0000000  0.6973333  3
   7691   7686   7672   7694     1  0.0000000  1.0460000  1
   7691   7686   7672   7694     1  0.0000000  0.0000000  3
   7691   7686   7692   7693     1  0.0000000  0.6973333  3
   7695   7696   7699   7703     1  0.0000000  0.6508444  3
   7695   7696   7708   7711     1  0.0000000  1.0460000  1
   7695   7696   7708   7711     1  0.0000000  0.6694400  3
   7695   7709   7715   7716     1  0.0000000  1.0460000  1
   7695   7709   7715   7716     1  0.0000000  0.6694400  3
   7695   7717   7701   7704     1  0.0000000  1.6038667  3
   7696   7699   7700   7702     1  0.0000000  0.6508444  3
   7696   7699   7707   7710     1  0.0000000  1.0460000  1
   7696   7699   7707   7710     1  0.0000000  0.6694400  3
   7696   7695   7709   7713     1  0.0000000  0.6508444  3
   7696   7695   7709   7714     1  0.0000000  0.6508444  3
   7697   7695   7696   7699     1  0.0000000  0.6508444  3
   7697   7695   7696   7708     1  0.0000000  1.0460000  1
   7697   7695   7696   7708     1  0.0000000  0.0000000  3
   7697   7695   7696   7698     1  0.0000000  0.6508444  3
   7697   7695   7709   7715     1  0.0000000  1.0460000  1
   7697   7695   7709   7715     1  0.0000000  0.0000000  3
   7697   7695   7709   7713     1  0.0000000  0.6508444  3
   7697   7695   7709   7714     1  0.0000000  0.6508444  3
   7697   7695   7717   7701     1  0.0000000  1.6038667  3
   7698   7696   7699   7700     1  0.0000000  0.6508444  3
   7698   7696   7699   7707     1  0.0000000  1.0460000  1
   7698   7696   7699   7707     1  0.0000000  0.0000000  3
   7698   7696   7699   7703     1  0.0000000  0.6508444  3
   7698   7696   7708   7711     1  0.0000000  0.6973333  3
   7698   7696   7695   7709     1  0.0000000  0.6508444  3
   7698   7696   7695   7717     1  0.0000000  1.0460000  1
   7698   7696   7695   7717     1  0.0000000  0.0000000  3
   7699   7700   7701   7704     1  0.0000000  0.6508444  3
   7699   7700   7706   7712     1  0.0000000  1.0460000  1
   7699   7700   7706   7712     1  0.0000000  0.6694400  3
   7699   7696   7708   7711     1  0.0000000  1.0460000  1
   7699   7696   7708   7711     1  0.0000000  0.6694400  3
   7700   7699   7707   7710     1  0.0000000  1.0460000  1
   7700   7699   7707   7710     1  0.0000000  0.6694400  3
   7701   7700   7706   7712     1  0.0000000  1.0460000  1
   7701   7700   7706   7712     1  0.0000000  0.6694400  3
   7701   7700   7699   7703     1  0.0000000  0.6508444  3
   7702   7700   7701   7705     1  0.0000000  1.0460000  1
   7702   7700   7701   7705     1  0.0000000  0.0000000  3
   7702   7700   7701   7717     1  0.0000000  1.0460000  1
   7702   7700   7701   7717     1  0.0000000  0.0000000  3
   7702   7700   7701   7704     1  0.0000000  0.6508444  3
   7702   7700   7706   7712     1  0.0000000  0.6973333  3
   7702   7700   7699   7707     1  0.0000000  1.0460000  1
   7702   7700   7699   7707     1  0.0000000  0.0000000  3
   7702   7700   7699   7703     1  0.0000000  0.6508444  3
   7703   7699   7700   7706     1  0.0000000  1.0460000  1
   7703   7699   7700   7706     1  0.0000000  0.0000000  3
   7703   7699   7707   7710     1  0.0000000  0.6973333  3
   7703   7699   7696   7708     1  0.0000000  1.0460000  1
   7703   7699   7696   7708     1  0.0000000  0.0000000  3
   7704   7701   7700   7706     1  0.0000000  0.6508444  3
   7713   7709   7715   7716     1  0.0000000  0.6973333  3
   7713   7709   7695   7717     1  0.0000000  1.0460000  1
   7713   7709   7695   7717     1  0.0000000  0.0000000  3
   7714   7709   7715   7716     1  0.0000000  0.6973333  3
   7714   7709   7695   7717     1  0.0000000  1.0460000  1
   7714   7709   7695   7717     1  0.0000000  0.0000000  3
   7718   7719   7722   7726     1  0.0000000  0.6508444  3
   7718   7719   7731   7734     1  0.0000000  1.0460000  1
   7718   7719   7731   7734     1  0.0000000  0.6694400  3
   7718   7732   7738   7739     1  0.0000000  1.0460000  1
   7718   7732   7738   7739     1  0.0000000  0.6694400  3
   7718   7740   7724   7727     1  0.0000000  1.6038667  3
   7719   7718   7732   7736     1  0.0000000  0.6508444  3
   7719   7718   7732   7737     1  0.0000000  0.6508444  3
   7719   7722   7723   7725     1  0.0000000  0.6508444  3
   7719   7722   7730   7733     1  0.0000000  1.0460000  1
   7719   7722   7730   7733     1  0.0000000  0.6694400  3
   7720   7718   7719   7722     1  0.0000000  0.6508444  3
   7720   7718   7719   7731     1  0.0000000  1.0460000  1
   7720   7718   7719   7731     1  0.0000000  0.0000000  3
   7720   7718   7719   7721     1  0.0000000  0.6508444  3
   7720   7718   7732   7738     1  0.0000000  1.0460000  1
   7720   7718   7732   7738     1  0.0000000  0.0000000  3
   7720   7718   7732   7736     1  0.0000000  0.6508444  3
   7720   7718   7732   7737     1  0.0000000  0.6508444  3
   7720   7718   7740   7724     1  0.0000000  1.6038667  3
   7721   7719   7718   7732     1  0.0000000  0.6508444  3
   7721   7719   7718   7740     1  0.0000000  1.0460000  1
   7721   7719   7718   7740     1  0.0000000  0.0000000  3
   7721   7719   7722   7723     1  0.0000000  0.6508444  3
   7721   7719   7722   7730     1  0.0000000  1.0460000  1
   7721   7719   7722   7730     1  0.0000000  0.0000000  3
   7721   7719   7722   7726     1  0.0000000  0.6508444  3
   7721   7719   7731   7734     1  0.0000000  0.6973333  3
   7722   7719   7731   7734     1  0.0000000  1.0460000  1
   7722   7719   7731   7734     1  0.0000000  0.6694400  3
   7722   7723   7724   7727     1  0.0000000  0.6508444  3
   7722   7723   7729   7735     1  0.0000000  1.0460000  1
   7722   7723   7729   7735     1  0.0000000  0.6694400  3
   7723   7722   7730   7733     1  0.0000000  1.0460000  1
   7723   7722   7730   7733     1  0.0000000  0.6694400  3
   7724   7723   7722   7726     1  0.0000000  0.6508444  3
   7724   7723   7729   7735     1  0.0000000  1.0460000  1
   7724   7723   7729   7735     1  0.0000000  0.6694400  3
   7725   7723   7722   7730     1  0.0000000  1.0460000  1
   7725   7723   7722   7730     1  0.0000000  0.0000000  3
   7725   7723   7722   7726     1  0.0000000  0.6508444  3
   7725   7723   7724   7728     1  0.0000000  1.0460000  1
   7725   7723   7724   7728     1  0.0000000  0.0000000  3
   7725   7723   7724   7740     1  0.0000000  1.0460000  1
   7725   7723   7724   7740     1  0.0000000  0.0000000  3
   7725   7723   7724   7727     1  0.0000000  0.6508444  3
   7725   7723   7729   7735     1  0.0000000  0.6973333  3
   7726   7722   7719   7731     1  0.0000000  1.0460000  1
   7726   7722   7719   7731     1  0.0000000  0.0000000  3
   7726   7722   7723   7729     1  0.0000000  1.0460000  1
   7726   7722   7723   7729     1  0.0000000  0.0000000  3
   7726   7722   7730   7733     1  0.0000000  0.6973333  3
   7727   7724   7723   7729     1  0.0000000  0.6508444  3
   7736   7732   7718   7740     1  0.0000000  1.0460000  1
   7736   7732   7718   7740     1  0.0000000  0.0000000  3
   7736   7732   7738   7739     1  0.0000000  0.6973333  3
   7737   7732   7718   7740     1  0.0000000  1.0460000  1
   7737   7732   7718   7740     1  0.0000000  0.0000000  3
   7737   7732   7738   7739     1  0.0000000  0.6973333  3
   7741   7742   7745   7749     1  0.0000000  0.6508444  3
   7741   7742   7754   7757     1  0.0000000  1.0460000  1
   7741   7742   7754   7757     1  0.0000000  0.6694400  3
   7741   7755   7761   7762     1  0.0000000  1.0460000  1
   7741   7755   7761   7762     1  0.0000000  0.6694400  3
   7741   7763   7747   7750     1  0.0000000  1.6038667  3
   7742   7745   7746   7748     1  0.0000000  0.6508444  3
   7742   7745   7753   7756     1  0.0000000  1.0460000  1
   7742   7745   7753   7756     1  0.0000000  0.6694400  3
   7742   7741   7755   7759     1  0.0000000  0.6508444  3
   7742   7741   7755   7760     1  0.0000000  0.6508444  3
   7743   7741   7742   7745     1  0.0000000  0.6508444  3
   7743   7741   7742   7754     1  0.0000000  1.0460000  1
   7743   7741   7742   7754     1  0.0000000  0.0000000  3
   7743   7741   7742   7744     1  0.0000000  0.6508444  3
   7743   7741   7755   7761     1  0.0000000  1.0460000  1
   7743   7741   7755   7761     1  0.0000000  0.0000000  3
   7743   7741   7755   7759     1  0.0000000  0.6508444  3
   7743   7741   7755   7760     1  0.0000000  0.6508444  3
   7743   7741   7763   7747     1  0.0000000  1.6038667  3
   7744   7742   7745   7746     1  0.0000000  0.6508444  3
   7744   7742   7745   7753     1  0.0000000  1.0460000  1
   7744   7742   7745   7753     1  0.0000000  0.0000000  3
   7744   7742   7745   7749     1  0.0000000  0.6508444  3
   7744   7742   7754   7757     1  0.0000000  0.6973333  3
   7744   7742   7741   7755     1  0.0000000  0.6508444  3
   7744   7742   7741   7763     1  0.0000000  1.0460000  1
   7744   7742   7741   7763     1  0.0000000  0.0000000  3
   7745   7746   7747   7750     1  0.0000000  0.6508444  3
   7745   7746   7752   7758     1  0.0000000  1.0460000  1
   7745   7746   7752   7758     1  0.0000000  0.6694400  3
   7745   7742   7754   7757     1  0.0000000  1.0460000  1
   7745   7742   7754   7757     1  0.0000000  0.6694400  3
   7746   7745   7753   7756     1  0.0000000  1.0460000  1
   7746   7745   7753   7756     1  0.0000000  0.6694400  3
   7747   7746   7752   7758     1  0.0000000  1.0460000  1
   7747   7746   7752   7758     1  0.0000000  0.6694400  3
   7747   7746   7745   7749     1  0.0000000  0.6508444  3
   7748   7746   7747   7751     1  0.0000000  1.0460000  1
   7748   7746   7747   7751     1  0.0000000  0.0000000  3
   7748   7746   7747   7763     1  0.0000000  1.0460000  1
   7748   7746   7747   7763     1  0.0000000  0.0000000  3
   7748   7746   7747   7750     1  0.0000000  0.6508444  3
   7748   7746   7752   7758     1  0.0000000  0.6973333  3
   7748   7746   7745   7753     1  0.0000000  1.0460000  1
   7748   7746   7745   7753     1  0.0000000  0.0000000  3
   7748   7746   7745   7749     1  0.0000000  0.6508444  3
   7749   7745   7746   7752     1  0.0000000  1.0460000  1
   7749   7745   7746   7752     1  0.0000000  0.0000000  3
   7749   7745   7753   7756     1  0.0000000  0.6973333  3
   7749   7745   7742   7754     1  0.0000000  1.0460000  1
   7749   7745   7742   7754     1  0.0000000  0.0000000  3
   7750   7747   7746   7752     1  0.0000000  0.6508444  3
   7759   7755   7761   7762     1  0.0000000  0.6973333  3
   7759   7755   7741   7763     1  0.0000000  1.0460000  1
   7759   7755   7741   7763     1  0.0000000  0.0000000  3
   7760   7755   7761   7762     1  0.0000000  0.6973333  3
   7760   7755   7741   7763     1  0.0000000  1.0460000  1
   7760   7755   7741   7763     1  0.0000000  0.0000000  3
   7764   7765   7768   7772     1  0.0000000  0.6508444  3
   7764   7765   7777   7780     1  0.0000000  1.0460000  1
   7764   7765   7777   7780     1  0.0000000  0.6694400  3
   7764   7778   7784   7785     1  0.0000000  1.0460000  1
   7764   7778   7784   7785     1  0.0000000  0.6694400  3
   7764   7786   7770   7773     1  0.0000000  1.6038667  3
   7765   7764   7778   7782     1  0.0000000  0.6508444  3
   7765   7764   7778   7783     1  0.0000000  0.6508444  3
   7765   7768   7769   7771     1  0.0000000  0.6508444  3
   7765   7768   7776   7779     1  0.0000000  1.0460000  1
   7765   7768   7776   7779     1  0.0000000  0.6694400  3
   7766   7764   7765   7768     1  0.0000000  0.6508444  3
   7766   7764   7765   7777     1  0.0000000  1.0460000  1
   7766   7764   7765   7777     1  0.0000000  0.0000000  3
   7766   7764   7765   7767     1  0.0000000  0.6508444  3
   7766   7764   7778   7784     1  0.0000000  1.0460000  1
   7766   7764   7778   7784     1  0.0000000  0.0000000  3
   7766   7764   7778   7782     1  0.0000000  0.6508444  3
   7766   7764   7778   7783     1  0.0000000  0.6508444  3
   7766   7764   7786   7770     1  0.0000000  1.6038667  3
   7767   7765   7764   7778     1  0.0000000  0.6508444  3
   7767   7765   7764   7786     1  0.0000000  1.0460000  1
   7767   7765   7764   7786     1  0.0000000  0.0000000  3
   7767   7765   7768   7769     1  0.0000000  0.6508444  3
   7767   7765   7768   7776     1  0.0000000  1.0460000  1
   7767   7765   7768   7776     1  0.0000000  0.0000000  3
   7767   7765   7768   7772     1  0.0000000  0.6508444  3
   7767   7765   7777   7780     1  0.0000000  0.6973333  3
   7768   7765   7777   7780     1  0.0000000  1.0460000  1
   7768   7765   7777   7780     1  0.0000000  0.6694400  3
   7768   7769   7770   7773     1  0.0000000  0.6508444  3
   7768   7769   7775   7781     1  0.0000000  1.0460000  1
   7768   7769   7775   7781     1  0.0000000  0.6694400  3
   7769   7768   7776   7779     1  0.0000000  1.0460000  1
   7769   7768   7776   7779     1  0.0000000  0.6694400  3
   7770   7769   7768   7772     1  0.0000000  0.6508444  3
   7770   7769   7775   7781     1  0.0000000  1.0460000  1
   7770   7769   7775   7781     1  0.0000000  0.6694400  3
   7771   7769   7768   7776     1  0.0000000  1.0460000  1
   7771   7769   7768   7776     1  0.0000000  0.0000000  3
   7771   7769   7768   7772     1  0.0000000  0.6508444  3
   7771   7769   7770   7774     1  0.0000000  1.0460000  1
   7771   7769   7770   7774     1  0.0000000  0.0000000  3
   7771   7769   7770   7786     1  0.0000000  1.0460000  1
   7771   7769   7770   7786     1  0.0000000  0.0000000  3
   7771   7769   7770   7773     1  0.0000000  0.6508444  3
   7771   7769   7775   7781     1  0.0000000  0.6973333  3
   7772   7768   7765   7777     1  0.0000000  1.0460000  1
   7772   7768   7765   7777     1  0.0000000  0.0000000  3
   7772   7768   7769   7775     1  0.0000000  1.0460000  1
   7772   7768   7769   7775     1  0.0000000  0.0000000  3
   7772   7768   7776   7779     1  0.0000000  0.6973333  3
   7773   7770   7769   7775     1  0.0000000  0.6508444  3
   7782   7778   7764   7786     1  0.0000000  1.0460000  1
   7782   7778   7764   7786     1  0.0000000  0.0000000  3
   7782   7778   7784   7785     1  0.0000000  0.6973333  3
   7783   7778   7764   7786     1  0.0000000  1.0460000  1
   7783   7778   7764   7786     1  0.0000000  0.0000000  3
   7783   7778   7784   7785     1  0.0000000  0.6973333  3
   7787   7788   7791   7795     1  0.0000000  0.6508444  3
   7787   7788   7800   7803     1  0.0000000  1.0460000  1
   7787   7788   7800   7803     1  0.0000000  0.6694400  3
   7787   7801   7807   7808     1  0.0000000  1.0460000  1
   7787   7801   7807   7808     1  0.0000000  0.6694400  3
   7787   7809   7793   7796     1  0.0000000  1.6038667  3
   7788   7791   7792   7794     1  0.0000000  0.6508444  3
   7788   7791   7799   7802     1  0.0000000  1.0460000  1
   7788   7791   7799   7802     1  0.0000000  0.6694400  3
   7788   7787   7801   7805     1  0.0000000  0.6508444  3
   7788   7787   7801   7806     1  0.0000000  0.6508444  3
   7789   7787   7788   7791     1  0.0000000  0.6508444  3
   7789   7787   7788   7800     1  0.0000000  1.0460000  1
   7789   7787   7788   7800     1  0.0000000  0.0000000  3
   7789   7787   7788   7790     1  0.0000000  0.6508444  3
   7789   7787   7801   7807     1  0.0000000  1.0460000  1
   7789   7787   7801   7807     1  0.0000000  0.0000000  3
   7789   7787   7801   7805     1  0.0000000  0.6508444  3
   7789   7787   7801   7806     1  0.0000000  0.6508444  3
   7789   7787   7809   7793     1  0.0000000  1.6038667  3
   7790   7788   7791   7792     1  0.0000000  0.6508444  3
   7790   7788   7791   7799     1  0.0000000  1.0460000  1
   7790   7788   7791   7799     1  0.0000000  0.0000000  3
   7790   7788   7791   7795     1  0.0000000  0.6508444  3
   7790   7788   7800   7803     1  0.0000000  0.6973333  3
   7790   7788   7787   7801     1  0.0000000  0.6508444  3
   7790   7788   7787   7809     1  0.0000000  1.0460000  1
   7790   7788   7787   7809     1  0.0000000  0.0000000  3
   7791   7792   7793   7796     1  0.0000000  0.6508444  3
   7791   7792   7798   7804     1  0.0000000  1.0460000  1
   7791   7792   7798   7804     1  0.0000000  0.6694400  3
   7791   7788   7800   7803     1  0.0000000  1.0460000  1
   7791   7788   7800   7803     1  0.0000000  0.6694400  3
   7792   7791   7799   7802     1  0.0000000  1.0460000  1
   7792   7791   7799   7802     1  0.0000000  0.6694400  3
   7793   7792   7798   7804     1  0.0000000  1.0460000  1
   7793   7792   7798   7804     1  0.0000000  0.6694400  3
   7793   7792   7791   7795     1  0.0000000  0.6508444  3
   7794   7792   7793   7797     1  0.0000000  1.0460000  1
   7794   7792   7793   7797     1  0.0000000  0.0000000  3
   7794   7792   7793   7809     1  0.0000000  1.0460000  1
   7794   7792   7793   7809     1  0.0000000  0.0000000  3
   7794   7792   7793   7796     1  0.0000000  0.6508444  3
   7794   7792   7798   7804     1  0.0000000  0.6973333  3
   7794   7792   7791   7799     1  0.0000000  1.0460000  1
   7794   7792   7791   7799     1  0.0000000  0.0000000  3
   7794   7792   7791   7795     1  0.0000000  0.6508444  3
   7795   7791   7792   7798     1  0.0000000  1.0460000  1
   7795   7791   7792   7798     1  0.0000000  0.0000000  3
   7795   7791   7799   7802     1  0.0000000  0.6973333  3
   7795   7791   7788   7800     1  0.0000000  1.0460000  1
   7795   7791   7788   7800     1  0.0000000  0.0000000  3
   7796   7793   7792   7798     1  0.0000000  0.6508444  3
   7805   7801   7807   7808     1  0.0000000  0.6973333  3
   7805   7801   7787   7809     1  0.0000000  1.0460000  1
   7805   7801   7787   7809     1  0.0000000  0.0000000  3
   7806   7801   7807   7808     1  0.0000000  0.6973333  3
   7806   7801   7787   7809     1  0.0000000  1.0460000  1
   7806   7801   7787   7809     1  0.0000000  0.0000000  3
   7810   7811   7814   7818     1  0.0000000  0.6508444  3
   7810   7811   7823   7826     1  0.0000000  1.0460000  1
   7810   7811   7823   7826     1  0.0000000  0.6694400  3
   7810   7824   7830   7831     1  0.0000000  1.0460000  1
   7810   7824   7830   7831     1  0.0000000  0.6694400  3
   7810   7832   7816   7819     1  0.0000000  1.6038667  3
   7811   7810   7824   7828     1  0.0000000  0.6508444  3
   7811   7810   7824   7829     1  0.0000000  0.6508444  3
   7811   7814   7815   7817     1  0.0000000  0.6508444  3
   7811   7814   7822   7825     1  0.0000000  1.0460000  1
   7811   7814   7822   7825     1  0.0000000  0.6694400  3
   7812   7810   7811   7814     1  0.0000000  0.6508444  3
   7812   7810   7811   7823     1  0.0000000  1.0460000  1
   7812   7810   7811   7823     1  0.0000000  0.0000000  3
   7812   7810   7811   7813     1  0.0000000  0.6508444  3
   7812   7810   7824   7830     1  0.0000000  1.0460000  1
   7812   7810   7824   7830     1  0.0000000  0.0000000  3
   7812   7810   7824   7828     1  0.0000000  0.6508444  3
   7812   7810   7824   7829     1  0.0000000  0.6508444  3
   7812   7810   7832   7816     1  0.0000000  1.6038667  3
   7813   7811   7810   7824     1  0.0000000  0.6508444  3
   7813   7811   7810   7832     1  0.0000000  1.0460000  1
   7813   7811   7810   7832     1  0.0000000  0.0000000  3
   7813   7811   7814   7815     1  0.0000000  0.6508444  3
   7813   7811   7814   7822     1  0.0000000  1.0460000  1
   7813   7811   7814   7822     1  0.0000000  0.0000000  3
   7813   7811   7814   7818     1  0.0000000  0.6508444  3
   7813   7811   7823   7826     1  0.0000000  0.6973333  3
   7814   7811   7823   7826     1  0.0000000  1.0460000  1
   7814   7811   7823   7826     1  0.0000000  0.6694400  3
   7814   7815   7816   7819     1  0.0000000  0.6508444  3
   7814   7815   7821   7827     1  0.0000000  1.0460000  1
   7814   7815   7821   7827     1  0.0000000  0.6694400  3
   7815   7814   7822   7825     1  0.0000000  1.0460000  1
   7815   7814   7822   7825     1  0.0000000  0.6694400  3
   7816   7815   7814   7818     1  0.0000000  0.6508444  3
   7816   7815   7821   7827     1  0.0000000  1.0460000  1
   7816   7815   7821   7827     1  0.0000000  0.6694400  3
   7817   7815   7814   7822     1  0.0000000  1.0460000  1
   7817   7815   7814   7822     1  0.0000000  0.0000000  3
   7817   7815   7814   7818     1  0.0000000  0.6508444  3
   7817   7815   7816   7820     1  0.0000000  1.0460000  1
   7817   7815   7816   7820     1  0.0000000  0.0000000  3
   7817   7815   7816   7832     1  0.0000000  1.0460000  1
   7817   7815   7816   7832     1  0.0000000  0.0000000  3
   7817   7815   7816   7819     1  0.0000000  0.6508444  3
   7817   7815   7821   7827     1  0.0000000  0.6973333  3
   7818   7814   7811   7823     1  0.0000000  1.0460000  1
   7818   7814   7811   7823     1  0.0000000  0.0000000  3
   7818   7814   7815   7821     1  0.0000000  1.0460000  1
   7818   7814   7815   7821     1  0.0000000  0.0000000  3
   7818   7814   7822   7825     1  0.0000000  0.6973333  3
   7819   7816   7815   7821     1  0.0000000  0.6508444  3
   7828   7824   7810   7832     1  0.0000000  1.0460000  1
   7828   7824   7810   7832     1  0.0000000  0.0000000  3
   7828   7824   7830   7831     1  0.0000000  0.6973333  3
   7829   7824   7810   7832     1  0.0000000  1.0460000  1
   7829   7824   7810   7832     1  0.0000000  0.0000000  3
   7829   7824   7830   7831     1  0.0000000  0.6973333  3
   7833   7834   7837   7841     1  0.0000000  0.6508444  3
   7833   7834   7846   7849     1  0.0000000  1.0460000  1
   7833   7834   7846   7849     1  0.0000000  0.6694400  3
   7833   7847   7853   7854     1  0.0000000  1.0460000  1
   7833   7847   7853   7854     1  0.0000000  0.6694400  3
   7833   7855   7839   7842     1  0.0000000  1.6038667  3
   7834   7837   7838   7840     1  0.0000000  0.6508444  3
   7834   7837   7845   7848     1  0.0000000  1.0460000  1
   7834   7837   7845   7848     1  0.0000000  0.6694400  3
   7834   7833   7847   7851     1  0.0000000  0.6508444  3
   7834   7833   7847   7852     1  0.0000000  0.6508444  3
   7835   7833   7834   7837     1  0.0000000  0.6508444  3
   7835   7833   7834   7846     1  0.0000000  1.0460000  1
   7835   7833   7834   7846     1  0.0000000  0.0000000  3
   7835   7833   7834   7836     1  0.0000000  0.6508444  3
   7835   7833   7847   7853     1  0.0000000  1.0460000  1
   7835   7833   7847   7853     1  0.0000000  0.0000000  3
   7835   7833   7847   7851     1  0.0000000  0.6508444  3
   7835   7833   7847   7852     1  0.0000000  0.6508444  3
   7835   7833   7855   7839     1  0.0000000  1.6038667  3
   7836   7834   7837   7838     1  0.0000000  0.6508444  3
   7836   7834   7837   7845     1  0.0000000  1.0460000  1
   7836   7834   7837   7845     1  0.0000000  0.0000000  3
   7836   7834   7837   7841     1  0.0000000  0.6508444  3
   7836   7834   7846   7849     1  0.0000000  0.6973333  3
   7836   7834   7833   7847     1  0.0000000  0.6508444  3
   7836   7834   7833   7855     1  0.0000000  1.0460000  1
   7836   7834   7833   7855     1  0.0000000  0.0000000  3
   7837   7838   7839   7842     1  0.0000000  0.6508444  3
   7837   7838   7844   7850     1  0.0000000  1.0460000  1
   7837   7838   7844   7850     1  0.0000000  0.6694400  3
   7837   7834   7846   7849     1  0.0000000  1.0460000  1
   7837   7834   7846   7849     1  0.0000000  0.6694400  3
   7838   7837   7845   7848     1  0.0000000  1.0460000  1
   7838   7837   7845   7848     1  0.0000000  0.6694400  3
   7839   7838   7844   7850     1  0.0000000  1.0460000  1
   7839   7838   7844   7850     1  0.0000000  0.6694400  3
   7839   7838   7837   7841     1  0.0000000  0.6508444  3
   7840   7838   7839   7843     1  0.0000000  1.0460000  1
   7840   7838   7839   7843     1  0.0000000  0.0000000  3
   7840   7838   7839   7855     1  0.0000000  1.0460000  1
   7840   7838   7839   7855     1  0.0000000  0.0000000  3
   7840   7838   7839   7842     1  0.0000000  0.6508444  3
   7840   7838   7844   7850     1  0.0000000  0.6973333  3
   7840   7838   7837   7845     1  0.0000000  1.0460000  1
   7840   7838   7837   7845     1  0.0000000  0.0000000  3
   7840   7838   7837   7841     1  0.0000000  0.6508444  3
   7841   7837   7838   7844     1  0.0000000  1.0460000  1
   7841   7837   7838   7844     1  0.0000000  0.0000000  3
   7841   7837   7845   7848     1  0.0000000  0.6973333  3
   7841   7837   7834   7846     1  0.0000000  1.0460000  1
   7841   7837   7834   7846     1  0.0000000  0.0000000  3
   7842   7839   7838   7844     1  0.0000000  0.6508444  3
   7851   7847   7853   7854     1  0.0000000  0.6973333  3
   7851   7847   7833   7855     1  0.0000000  1.0460000  1
   7851   7847   7833   7855     1  0.0000000  0.0000000  3
   7852   7847   7853   7854     1  0.0000000  0.6973333  3
   7852   7847   7833   7855     1  0.0000000  1.0460000  1
   7852   7847   7833   7855     1  0.0000000  0.0000000  3
   7856   7857   7860   7864     1  0.0000000  0.6508444  3
   7856   7857   7869   7872     1  0.0000000  1.0460000  1
   7856   7857   7869   7872     1  0.0000000  0.6694400  3
   7856   7870   7876   7877     1  0.0000000  1.0460000  1
   7856   7870   7876   7877     1  0.0000000  0.6694400  3
   7856   7878   7862   7865     1  0.0000000  1.6038667  3
   7857   7856   7870   7874     1  0.0000000  0.6508444  3
   7857   7856   7870   7875     1  0.0000000  0.6508444  3
   7857   7860   7861   7863     1  0.0000000  0.6508444  3
   7857   7860   7868   7871     1  0.0000000  1.0460000  1
   7857   7860   7868   7871     1  0.0000000  0.6694400  3
   7858   7856   7857   7860     1  0.0000000  0.6508444  3
   7858   7856   7857   7869     1  0.0000000  1.0460000  1
   7858   7856   7857   7869     1  0.0000000  0.0000000  3
   7858   7856   7857   7859     1  0.0000000  0.6508444  3
   7858   7856   7870   7876     1  0.0000000  1.0460000  1
   7858   7856   7870   7876     1  0.0000000  0.0000000  3
   7858   7856   7870   7874     1  0.0000000  0.6508444  3
   7858   7856   7870   7875     1  0.0000000  0.6508444  3
   7858   7856   7878   7862     1  0.0000000  1.6038667  3
   7859   7857   7856   7870     1  0.0000000  0.6508444  3
   7859   7857   7856   7878     1  0.0000000  1.0460000  1
   7859   7857   7856   7878     1  0.0000000  0.0000000  3
   7859   7857   7860   7861     1  0.0000000  0.6508444  3
   7859   7857   7860   7868     1  0.0000000  1.0460000  1
   7859   7857   7860   7868     1  0.0000000  0.0000000  3
   7859   7857   7860   7864     1  0.0000000  0.6508444  3
   7859   7857   7869   7872     1  0.0000000  0.6973333  3
   7860   7857   7869   7872     1  0.0000000  1.0460000  1
   7860   7857   7869   7872     1  0.0000000  0.6694400  3
   7860   7861   7862   7865     1  0.0000000  0.6508444  3
   7860   7861   7867   7873     1  0.0000000  1.0460000  1
   7860   7861   7867   7873     1  0.0000000  0.6694400  3
   7861   7860   7868   7871     1  0.0000000  1.0460000  1
   7861   7860   7868   7871     1  0.0000000  0.6694400  3
   7862   7861   7860   7864     1  0.0000000  0.6508444  3
   7862   7861   7867   7873     1  0.0000000  1.0460000  1
   7862   7861   7867   7873     1  0.0000000  0.6694400  3
   7863   7861   7860   7868     1  0.0000000  1.0460000  1
   7863   7861   7860   7868     1  0.0000000  0.0000000  3
   7863   7861   7860   7864     1  0.0000000  0.6508444  3
   7863   7861   7862   7866     1  0.0000000  1.0460000  1
   7863   7861   7862   7866     1  0.0000000  0.0000000  3
   7863   7861   7862   7878     1  0.0000000  1.0460000  1
   7863   7861   7862   7878     1  0.0000000  0.0000000  3
   7863   7861   7862   7865     1  0.0000000  0.6508444  3
   7863   7861   7867   7873     1  0.0000000  0.6973333  3
   7864   7860   7857   7869     1  0.0000000  1.0460000  1
   7864   7860   7857   7869     1  0.0000000  0.0000000  3
   7864   7860   7861   7867     1  0.0000000  1.0460000  1
   7864   7860   7861   7867     1  0.0000000  0.0000000  3
   7864   7860   7868   7871     1  0.0000000  0.6973333  3
   7865   7862   7861   7867     1  0.0000000  0.6508444  3
   7874   7870   7856   7878     1  0.0000000  1.0460000  1
   7874   7870   7856   7878     1  0.0000000  0.0000000  3
   7874   7870   7876   7877     1  0.0000000  0.6973333  3
   7875   7870   7856   7878     1  0.0000000  1.0460000  1
   7875   7870   7856   7878     1  0.0000000  0.0000000  3
   7875   7870   7876   7877     1  0.0000000  0.6973333  3
   7879   7880   7883   7887     1  0.0000000  0.6508444  3
   7879   7880   7892   7895     1  0.0000000  1.0460000  1
   7879   7880   7892   7895     1  0.0000000  0.6694400  3
   7879   7893   7899   7900     1  0.0000000  1.0460000  1
   7879   7893   7899   7900     1  0.0000000  0.6694400  3
   7879   7901   7885   7888     1  0.0000000  1.6038667  3
   7880   7883   7884   7886     1  0.0000000  0.6508444  3
   7880   7883   7891   7894     1  0.0000000  1.0460000  1
   7880   7883   7891   7894     1  0.0000000  0.6694400  3
   7880   7879   7893   7897     1  0.0000000  0.6508444  3
   7880   7879   7893   7898     1  0.0000000  0.6508444  3
   7881   7879   7880   7883     1  0.0000000  0.6508444  3
   7881   7879   7880   7892     1  0.0000000  1.0460000  1
   7881   7879   7880   7892     1  0.0000000  0.0000000  3
   7881   7879   7880   7882     1  0.0000000  0.6508444  3
   7881   7879   7893   7899     1  0.0000000  1.0460000  1
   7881   7879   7893   7899     1  0.0000000  0.0000000  3
   7881   7879   7893   7897     1  0.0000000  0.6508444  3
   7881   7879   7893   7898     1  0.0000000  0.6508444  3
   7881   7879   7901   7885     1  0.0000000  1.6038667  3
   7882   7880   7883   7884     1  0.0000000  0.6508444  3
   7882   7880   7883   7891     1  0.0000000  1.0460000  1
   7882   7880   7883   7891     1  0.0000000  0.0000000  3
   7882   7880   7883   7887     1  0.0000000  0.6508444  3
   7882   7880   7892   7895     1  0.0000000  0.6973333  3
   7882   7880   7879   7893     1  0.0000000  0.6508444  3
   7882   7880   7879   7901     1  0.0000000  1.0460000  1
   7882   7880   7879   7901     1  0.0000000  0.0000000  3
   7883   7884   7885   7888     1  0.0000000  0.6508444  3
   7883   7884   7890   7896     1  0.0000000  1.0460000  1
   7883   7884   7890   7896     1  0.0000000  0.6694400  3
   7883   7880   7892   7895     1  0.0000000  1.0460000  1
   7883   7880   7892   7895     1  0.0000000  0.6694400  3
   7884   7883   7891   7894     1  0.0000000  1.0460000  1
   7884   7883   7891   7894     1  0.0000000  0.6694400  3
   7885   7884   7890   7896     1  0.0000000  1.0460000  1
   7885   7884   7890   7896     1  0.0000000  0.6694400  3
   7885   7884   7883   7887     1  0.0000000  0.6508444  3
   7886   7884   7885   7889     1  0.0000000  1.0460000  1
   7886   7884   7885   7889     1  0.0000000  0.0000000  3
   7886   7884   7885   7901     1  0.0000000  1.0460000  1
   7886   7884   7885   7901     1  0.0000000  0.0000000  3
   7886   7884   7885   7888     1  0.0000000  0.6508444  3
   7886   7884   7890   7896     1  0.0000000  0.6973333  3
   7886   7884   7883   7891     1  0.0000000  1.0460000  1
   7886   7884   7883   7891     1  0.0000000  0.0000000  3
   7886   7884   7883   7887     1  0.0000000  0.6508444  3
   7887   7883   7884   7890     1  0.0000000  1.0460000  1
   7887   7883   7884   7890     1  0.0000000  0.0000000  3
   7887   7883   7891   7894     1  0.0000000  0.6973333  3
   7887   7883   7880   7892     1  0.0000000  1.0460000  1
   7887   7883   7880   7892     1  0.0000000  0.0000000  3
   7888   7885   7884   7890     1  0.0000000  0.6508444  3
   7897   7893   7899   7900     1  0.0000000  0.6973333  3
   7897   7893   7879   7901     1  0.0000000  1.0460000  1
   7897   7893   7879   7901     1  0.0000000  0.0000000  3
   7898   7893   7899   7900     1  0.0000000  0.6973333  3
   7898   7893   7879   7901     1  0.0000000  1.0460000  1
   7898   7893   7879   7901     1  0.0000000  0.0000000  3
   7902   7903   7906   7910     1  0.0000000  0.6508444  3
   7902   7903   7915   7918     1  0.0000000  1.0460000  1
   7902   7903   7915   7918     1  0.0000000  0.6694400  3
   7902   7916   7922   7923     1  0.0000000  1.0460000  1
   7902   7916   7922   7923     1  0.0000000  0.6694400  3
   7902   7924   7908   7911     1  0.0000000  1.6038667  3
   7903   7902   7916   7920     1  0.0000000  0.6508444  3
   7903   7902   7916   7921     1  0.0000000  0.6508444  3
   7903   7906   7907   7909     1  0.0000000  0.6508444  3
   7903   7906   7914   7917     1  0.0000000  1.0460000  1
   7903   7906   7914   7917     1  0.0000000  0.6694400  3
   7904   7902   7903   7906     1  0.0000000  0.6508444  3
   7904   7902   7903   7915     1  0.0000000  1.0460000  1
   7904   7902   7903   7915     1  0.0000000  0.0000000  3
   7904   7902   7903   7905     1  0.0000000  0.6508444  3
   7904   7902   7916   7922     1  0.0000000  1.0460000  1
   7904   7902   7916   7922     1  0.0000000  0.0000000  3
   7904   7902   7916   7920     1  0.0000000  0.6508444  3
   7904   7902   7916   7921     1  0.0000000  0.6508444  3
   7904   7902   7924   7908     1  0.0000000  1.6038667  3
   7905   7903   7902   7916     1  0.0000000  0.6508444  3
   7905   7903   7902   7924     1  0.0000000  1.0460000  1
   7905   7903   7902   7924     1  0.0000000  0.0000000  3
   7905   7903   7906   7907     1  0.0000000  0.6508444  3
   7905   7903   7906   7914     1  0.0000000  1.0460000  1
   7905   7903   7906   7914     1  0.0000000  0.0000000  3
   7905   7903   7906   7910     1  0.0000000  0.6508444  3
   7905   7903   7915   7918     1  0.0000000  0.6973333  3
   7906   7903   7915   7918     1  0.0000000  1.0460000  1
   7906   7903   7915   7918     1  0.0000000  0.6694400  3
   7906   7907   7908   7911     1  0.0000000  0.6508444  3
   7906   7907   7913   7919     1  0.0000000  1.0460000  1
   7906   7907   7913   7919     1  0.0000000  0.6694400  3
   7907   7906   7914   7917     1  0.0000000  1.0460000  1
   7907   7906   7914   7917     1  0.0000000  0.6694400  3
   7908   7907   7906   7910     1  0.0000000  0.6508444  3
   7908   7907   7913   7919     1  0.0000000  1.0460000  1
   7908   7907   7913   7919     1  0.0000000  0.6694400  3
   7909   7907   7906   7914     1  0.0000000  1.0460000  1
   7909   7907   7906   7914     1  0.0000000  0.0000000  3
   7909   7907   7906   7910     1  0.0000000  0.6508444  3
   7909   7907   7908   7912     1  0.0000000  1.0460000  1
   7909   7907   7908   7912     1  0.0000000  0.0000000  3
   7909   7907   7908   7924     1  0.0000000  1.0460000  1
   7909   7907   7908   7924     1  0.0000000  0.0000000  3
   7909   7907   7908   7911     1  0.0000000  0.6508444  3
   7909   7907   7913   7919     1  0.0000000  0.6973333  3
   7910   7906   7903   7915     1  0.0000000  1.0460000  1
   7910   7906   7903   7915     1  0.0000000  0.0000000  3
   7910   7906   7907   7913     1  0.0000000  1.0460000  1
   7910   7906   7907   7913     1  0.0000000  0.0000000  3
   7910   7906   7914   7917     1  0.0000000  0.6973333  3
   7911   7908   7907   7913     1  0.0000000  0.6508444  3
   7920   7916   7902   7924     1  0.0000000  1.0460000  1
   7920   7916   7902   7924     1  0.0000000  0.0000000  3
   7920   7916   7922   7923     1  0.0000000  0.6973333  3
   7921   7916   7902   7924     1  0.0000000  1.0460000  1
   7921   7916   7902   7924     1  0.0000000  0.0000000  3
   7921   7916   7922   7923     1  0.0000000  0.6973333  3
   7925   7926   7929   7933     1  0.0000000  0.6508444  3
   7925   7926   7938   7941     1  0.0000000  1.0460000  1
   7925   7926   7938   7941     1  0.0000000  0.6694400  3
   7925   7939   7945   7946     1  0.0000000  1.0460000  1
   7925   7939   7945   7946     1  0.0000000  0.6694400  3
   7925   7947   7931   7934     1  0.0000000  1.6038667  3
   7926   7929   7930   7932     1  0.0000000  0.6508444  3
   7926   7929   7937   7940     1  0.0000000  1.0460000  1
   7926   7929   7937   7940     1  0.0000000  0.6694400  3
   7926   7925   7939   7943     1  0.0000000  0.6508444  3
   7926   7925   7939   7944     1  0.0000000  0.6508444  3
   7927   7925   7926   7929     1  0.0000000  0.6508444  3
   7927   7925   7926   7938     1  0.0000000  1.0460000  1
   7927   7925   7926   7938     1  0.0000000  0.0000000  3
   7927   7925   7926   7928     1  0.0000000  0.6508444  3
   7927   7925   7939   7945     1  0.0000000  1.0460000  1
   7927   7925   7939   7945     1  0.0000000  0.0000000  3
   7927   7925   7939   7943     1  0.0000000  0.6508444  3
   7927   7925   7939   7944     1  0.0000000  0.6508444  3
   7927   7925   7947   7931     1  0.0000000  1.6038667  3
   7928   7926   7929   7930     1  0.0000000  0.6508444  3
   7928   7926   7929   7937     1  0.0000000  1.0460000  1
   7928   7926   7929   7937     1  0.0000000  0.0000000  3
   7928   7926   7929   7933     1  0.0000000  0.6508444  3
   7928   7926   7938   7941     1  0.0000000  0.6973333  3
   7928   7926   7925   7939     1  0.0000000  0.6508444  3
   7928   7926   7925   7947     1  0.0000000  1.0460000  1
   7928   7926   7925   7947     1  0.0000000  0.0000000  3
   7929   7930   7931   7934     1  0.0000000  0.6508444  3
   7929   7930   7936   7942     1  0.0000000  1.0460000  1
   7929   7930   7936   7942     1  0.0000000  0.6694400  3
   7929   7926   7938   7941     1  0.0000000  1.0460000  1
   7929   7926   7938   7941     1  0.0000000  0.6694400  3
   7930   7929   7937   7940     1  0.0000000  1.0460000  1
   7930   7929   7937   7940     1  0.0000000  0.6694400  3
   7931   7930   7936   7942     1  0.0000000  1.0460000  1
   7931   7930   7936   7942     1  0.0000000  0.6694400  3
   7931   7930   7929   7933     1  0.0000000  0.6508444  3
   7932   7930   7931   7935     1  0.0000000  1.0460000  1
   7932   7930   7931   7935     1  0.0000000  0.0000000  3
   7932   7930   7931   7947     1  0.0000000  1.0460000  1
   7932   7930   7931   7947     1  0.0000000  0.0000000  3
   7932   7930   7931   7934     1  0.0000000  0.6508444  3
   7932   7930   7936   7942     1  0.0000000  0.6973333  3
   7932   7930   7929   7937     1  0.0000000  1.0460000  1
   7932   7930   7929   7937     1  0.0000000  0.0000000  3
   7932   7930   7929   7933     1  0.0000000  0.6508444  3
   7933   7929   7930   7936     1  0.0000000  1.0460000  1
   7933   7929   7930   7936     1  0.0000000  0.0000000  3
   7933   7929   7937   7940     1  0.0000000  0.6973333  3
   7933   7929   7926   7938     1  0.0000000  1.0460000  1
   7933   7929   7926   7938     1  0.0000000  0.0000000  3
   7934   7931   7930   7936     1  0.0000000  0.6508444  3
   7943   7939   7945   7946     1  0.0000000  0.6973333  3
   7943   7939   7925   7947     1  0.0000000  1.0460000  1
   7943   7939   7925   7947     1  0.0000000  0.0000000  3
   7944   7939   7945   7946     1  0.0000000  0.6973333  3
   7944   7939   7925   7947     1  0.0000000  1.0460000  1
   7944   7939   7925   7947     1  0.0000000  0.0000000  3
   7948   7949   7952   7956     1  0.0000000  0.6508444  3
   7948   7949   7961   7964     1  0.0000000  1.0460000  1
   7948   7949   7961   7964     1  0.0000000  0.6694400  3
   7948   7962   7968   7969     1  0.0000000  1.0460000  1
   7948   7962   7968   7969     1  0.0000000  0.6694400  3
   7948   7970   7954   7957     1  0.0000000  1.6038667  3
   7949   7948   7962   7966     1  0.0000000  0.6508444  3
   7949   7948   7962   7967     1  0.0000000  0.6508444  3
   7949   7952   7953   7955     1  0.0000000  0.6508444  3
   7949   7952   7960   7963     1  0.0000000  1.0460000  1
   7949   7952   7960   7963     1  0.0000000  0.6694400  3
   7950   7948   7949   7952     1  0.0000000  0.6508444  3
   7950   7948   7949   7961     1  0.0000000  1.0460000  1
   7950   7948   7949   7961     1  0.0000000  0.0000000  3
   7950   7948   7949   7951     1  0.0000000  0.6508444  3
   7950   7948   7962   7968     1  0.0000000  1.0460000  1
   7950   7948   7962   7968     1  0.0000000  0.0000000  3
   7950   7948   7962   7966     1  0.0000000  0.6508444  3
   7950   7948   7962   7967     1  0.0000000  0.6508444  3
   7950   7948   7970   7954     1  0.0000000  1.6038667  3
   7951   7949   7948   7962     1  0.0000000  0.6508444  3
   7951   7949   7948   7970     1  0.0000000  1.0460000  1
   7951   7949   7948   7970     1  0.0000000  0.0000000  3
   7951   7949   7952   7953     1  0.0000000  0.6508444  3
   7951   7949   7952   7960     1  0.0000000  1.0460000  1
   7951   7949   7952   7960     1  0.0000000  0.0000000  3
   7951   7949   7952   7956     1  0.0000000  0.6508444  3
   7951   7949   7961   7964     1  0.0000000  0.6973333  3
   7952   7949   7961   7964     1  0.0000000  1.0460000  1
   7952   7949   7961   7964     1  0.0000000  0.6694400  3
   7952   7953   7954   7957     1  0.0000000  0.6508444  3
   7952   7953   7959   7965     1  0.0000000  1.0460000  1
   7952   7953   7959   7965     1  0.0000000  0.6694400  3
   7953   7952   7960   7963     1  0.0000000  1.0460000  1
   7953   7952   7960   7963     1  0.0000000  0.6694400  3
   7954   7953   7952   7956     1  0.0000000  0.6508444  3
   7954   7953   7959   7965     1  0.0000000  1.0460000  1
   7954   7953   7959   7965     1  0.0000000  0.6694400  3
   7955   7953   7952   7960     1  0.0000000  1.0460000  1
   7955   7953   7952   7960     1  0.0000000  0.0000000  3
   7955   7953   7952   7956     1  0.0000000  0.6508444  3
   7955   7953   7954   7958     1  0.0000000  1.0460000  1
   7955   7953   7954   7958     1  0.0000000  0.0000000  3
   7955   7953   7954   7970     1  0.0000000  1.0460000  1
   7955   7953   7954   7970     1  0.0000000  0.0000000  3
   7955   7953   7954   7957     1  0.0000000  0.6508444  3
   7955   7953   7959   7965     1  0.0000000  0.6973333  3
   7956   7952   7949   7961     1  0.0000000  1.0460000  1
   7956   7952   7949   7961     1  0.0000000  0.0000000  3
   7956   7952   7953   7959     1  0.0000000  1.0460000  1
   7956   7952   7953   7959     1  0.0000000  0.0000000  3
   7956   7952   7960   7963     1  0.0000000  0.6973333  3
   7957   7954   7953   7959     1  0.0000000  0.6508444  3
   7966   7962   7948   7970     1  0.0000000  1.0460000  1
   7966   7962   7948   7970     1  0.0000000  0.0000000  3
   7966   7962   7968   7969     1  0.0000000  0.6973333  3
   7967   7962   7948   7970     1  0.0000000  1.0460000  1
   7967   7962   7948   7970     1  0.0000000  0.0000000  3
   7967   7962   7968   7969     1  0.0000000  0.6973333  3
   7971   7972   7975   7979     1  0.0000000  0.6508444  3
   7971   7972   7984   7987     1  0.0000000  1.0460000  1
   7971   7972   7984   7987     1  0.0000000  0.6694400  3
   7971   7985   7991   7992     1  0.0000000  1.0460000  1
   7971   7985   7991   7992     1  0.0000000  0.6694400  3
   7971   7993   7977   7980     1  0.0000000  1.6038667  3
   7972   7975   7976   7978     1  0.0000000  0.6508444  3
   7972   7975   7983   7986     1  0.0000000  1.0460000  1
   7972   7975   7983   7986     1  0.0000000  0.6694400  3
   7972   7971   7985   7989     1  0.0000000  0.6508444  3
   7972   7971   7985   7990     1  0.0000000  0.6508444  3
   7973   7971   7972   7975     1  0.0000000  0.6508444  3
   7973   7971   7972   7984     1  0.0000000  1.0460000  1
   7973   7971   7972   7984     1  0.0000000  0.0000000  3
   7973   7971   7972   7974     1  0.0000000  0.6508444  3
   7973   7971   7985   7991     1  0.0000000  1.0460000  1
   7973   7971   7985   7991     1  0.0000000  0.0000000  3
   7973   7971   7985   7989     1  0.0000000  0.6508444  3
   7973   7971   7985   7990     1  0.0000000  0.6508444  3
   7973   7971   7993   7977     1  0.0000000  1.6038667  3
   7974   7972   7975   7976     1  0.0000000  0.6508444  3
   7974   7972   7975   7983     1  0.0000000  1.0460000  1
   7974   7972   7975   7983     1  0.0000000  0.0000000  3
   7974   7972   7975   7979     1  0.0000000  0.6508444  3
   7974   7972   7984   7987     1  0.0000000  0.6973333  3
   7974   7972   7971   7985     1  0.0000000  0.6508444  3
   7974   7972   7971   7993     1  0.0000000  1.0460000  1
   7974   7972   7971   7993     1  0.0000000  0.0000000  3
   7975   7976   7977   7980     1  0.0000000  0.6508444  3
   7975   7976   7982   7988     1  0.0000000  1.0460000  1
   7975   7976   7982   7988     1  0.0000000  0.6694400  3
   7975   7972   7984   7987     1  0.0000000  1.0460000  1
   7975   7972   7984   7987     1  0.0000000  0.6694400  3
   7976   7975   7983   7986     1  0.0000000  1.0460000  1
   7976   7975   7983   7986     1  0.0000000  0.6694400  3
   7977   7976   7982   7988     1  0.0000000  1.0460000  1
   7977   7976   7982   7988     1  0.0000000  0.6694400  3
   7977   7976   7975   7979     1  0.0000000  0.6508444  3
   7978   7976   7977   7981     1  0.0000000  1.0460000  1
   7978   7976   7977   7981     1  0.0000000  0.0000000  3
   7978   7976   7977   7993     1  0.0000000  1.0460000  1
   7978   7976   7977   7993     1  0.0000000  0.0000000  3
   7978   7976   7977   7980     1  0.0000000  0.6508444  3
   7978   7976   7982   7988     1  0.0000000  0.6973333  3
   7978   7976   7975   7983     1  0.0000000  1.0460000  1
   7978   7976   7975   7983     1  0.0000000  0.0000000  3
   7978   7976   7975   7979     1  0.0000000  0.6508444  3
   7979   7975   7976   7982     1  0.0000000  1.0460000  1
   7979   7975   7976   7982     1  0.0000000  0.0000000  3
   7979   7975   7983   7986     1  0.0000000  0.6973333  3
   7979   7975   7972   7984     1  0.0000000  1.0460000  1
   7979   7975   7972   7984     1  0.0000000  0.0000000  3
   7980   7977   7976   7982     1  0.0000000  0.6508444  3
   7989   7985   7991   7992     1  0.0000000  0.6973333  3
   7989   7985   7971   7993     1  0.0000000  1.0460000  1
   7989   7985   7971   7993     1  0.0000000  0.0000000  3
   7990   7985   7991   7992     1  0.0000000  0.6973333  3
   7990   7985   7971   7993     1  0.0000000  1.0460000  1
   7990   7985   7971   7993     1  0.0000000  0.0000000  3
   7994   7995   7998   8002     1  0.0000000  0.6508444  3
   7994   7995   8007   8010     1  0.0000000  1.0460000  1
   7994   7995   8007   8010     1  0.0000000  0.6694400  3
   7994   8008   8014   8015     1  0.0000000  1.0460000  1
   7994   8008   8014   8015     1  0.0000000  0.6694400  3
   7994   8016   8000   8003     1  0.0000000  1.6038667  3
   7995   7994   8008   8012     1  0.0000000  0.6508444  3
   7995   7994   8008   8013     1  0.0000000  0.6508444  3
   7995   7998   7999   8001     1  0.0000000  0.6508444  3
   7995   7998   8006   8009     1  0.0000000  1.0460000  1
   7995   7998   8006   8009     1  0.0000000  0.6694400  3
   7996   7994   7995   7998     1  0.0000000  0.6508444  3
   7996   7994   7995   8007     1  0.0000000  1.0460000  1
   7996   7994   7995   8007     1  0.0000000  0.0000000  3
   7996   7994   7995   7997     1  0.0000000  0.6508444  3
   7996   7994   8008   8014     1  0.0000000  1.0460000  1
   7996   7994   8008   8014     1  0.0000000  0.0000000  3
   7996   7994   8008   8012     1  0.0000000  0.6508444  3
   7996   7994   8008   8013     1  0.0000000  0.6508444  3
   7996   7994   8016   8000     1  0.0000000  1.6038667  3
   7997   7995   7994   8008     1  0.0000000  0.6508444  3
   7997   7995   7994   8016     1  0.0000000  1.0460000  1
   7997   7995   7994   8016     1  0.0000000  0.0000000  3
   7997   7995   7998   7999     1  0.0000000  0.6508444  3
   7997   7995   7998   8006     1  0.0000000  1.0460000  1
   7997   7995   7998   8006     1  0.0000000  0.0000000  3
   7997   7995   7998   8002     1  0.0000000  0.6508444  3
   7997   7995   8007   8010     1  0.0000000  0.6973333  3
   7998   7995   8007   8010     1  0.0000000  1.0460000  1
   7998   7995   8007   8010     1  0.0000000  0.6694400  3
   7998   7999   8000   8003     1  0.0000000  0.6508444  3
   7998   7999   8005   8011     1  0.0000000  1.0460000  1
   7998   7999   8005   8011     1  0.0000000  0.6694400  3
   7999   7998   8006   8009     1  0.0000000  1.0460000  1
   7999   7998   8006   8009     1  0.0000000  0.6694400  3
   8000   7999   7998   8002     1  0.0000000  0.6508444  3
   8000   7999   8005   8011     1  0.0000000  1.0460000  1
   8000   7999   8005   8011     1  0.0000000  0.6694400  3
   8001   7999   7998   8006     1  0.0000000  1.0460000  1
   8001   7999   7998   8006     1  0.0000000  0.0000000  3
   8001   7999   7998   8002     1  0.0000000  0.6508444  3
   8001   7999   8000   8004     1  0.0000000  1.0460000  1
   8001   7999   8000   8004     1  0.0000000  0.0000000  3
   8001   7999   8000   8016     1  0.0000000  1.0460000  1
   8001   7999   8000   8016     1  0.0000000  0.0000000  3
   8001   7999   8000   8003     1  0.0000000  0.6508444  3
   8001   7999   8005   8011     1  0.0000000  0.6973333  3
   8002   7998   7995   8007     1  0.0000000  1.0460000  1
   8002   7998   7995   8007     1  0.0000000  0.0000000  3
   8002   7998   7999   8005     1  0.0000000  1.0460000  1
   8002   7998   7999   8005     1  0.0000000  0.0000000  3
   8002   7998   8006   8009     1  0.0000000  0.6973333  3
   8003   8000   7999   8005     1  0.0000000  0.6508444  3
   8012   8008   7994   8016     1  0.0000000  1.0460000  1
   8012   8008   7994   8016     1  0.0000000  0.0000000  3
   8012   8008   8014   8015     1  0.0000000  0.6973333  3
   8013   8008   7994   8016     1  0.0000000  1.0460000  1
   8013   8008   7994   8016     1  0.0000000  0.0000000  3
   8013   8008   8014   8015     1  0.0000000  0.6973333  3
   8017   8018   8021   8025     1  0.0000000  0.6508444  3
   8017   8018   8030   8033     1  0.0000000  1.0460000  1
   8017   8018   8030   8033     1  0.0000000  0.6694400  3
   8017   8031   8037   8038     1  0.0000000  1.0460000  1
   8017   8031   8037   8038     1  0.0000000  0.6694400  3
   8017   8039   8023   8026     1  0.0000000  1.6038667  3
   8018   8021   8022   8024     1  0.0000000  0.6508444  3
   8018   8021   8029   8032     1  0.0000000  1.0460000  1
   8018   8021   8029   8032     1  0.0000000  0.6694400  3
   8018   8017   8031   8035     1  0.0000000  0.6508444  3
   8018   8017   8031   8036     1  0.0000000  0.6508444  3
   8019   8017   8018   8021     1  0.0000000  0.6508444  3
   8019   8017   8018   8030     1  0.0000000  1.0460000  1
   8019   8017   8018   8030     1  0.0000000  0.0000000  3
   8019   8017   8018   8020     1  0.0000000  0.6508444  3
   8019   8017   8031   8037     1  0.0000000  1.0460000  1
   8019   8017   8031   8037     1  0.0000000  0.0000000  3
   8019   8017   8031   8035     1  0.0000000  0.6508444  3
   8019   8017   8031   8036     1  0.0000000  0.6508444  3
   8019   8017   8039   8023     1  0.0000000  1.6038667  3
   8020   8018   8021   8022     1  0.0000000  0.6508444  3
   8020   8018   8021   8029     1  0.0000000  1.0460000  1
   8020   8018   8021   8029     1  0.0000000  0.0000000  3
   8020   8018   8021   8025     1  0.0000000  0.6508444  3
   8020   8018   8030   8033     1  0.0000000  0.6973333  3
   8020   8018   8017   8031     1  0.0000000  0.6508444  3
   8020   8018   8017   8039     1  0.0000000  1.0460000  1
   8020   8018   8017   8039     1  0.0000000  0.0000000  3
   8021   8022   8023   8026     1  0.0000000  0.6508444  3
   8021   8022   8028   8034     1  0.0000000  1.0460000  1
   8021   8022   8028   8034     1  0.0000000  0.6694400  3
   8021   8018   8030   8033     1  0.0000000  1.0460000  1
   8021   8018   8030   8033     1  0.0000000  0.6694400  3
   8022   8021   8029   8032     1  0.0000000  1.0460000  1
   8022   8021   8029   8032     1  0.0000000  0.6694400  3
   8023   8022   8028   8034     1  0.0000000  1.0460000  1
   8023   8022   8028   8034     1  0.0000000  0.6694400  3
   8023   8022   8021   8025     1  0.0000000  0.6508444  3
   8024   8022   8023   8027     1  0.0000000  1.0460000  1
   8024   8022   8023   8027     1  0.0000000  0.0000000  3
   8024   8022   8023   8039     1  0.0000000  1.0460000  1
   8024   8022   8023   8039     1  0.0000000  0.0000000  3
   8024   8022   8023   8026     1  0.0000000  0.6508444  3
   8024   8022   8028   8034     1  0.0000000  0.6973333  3
   8024   8022   8021   8029     1  0.0000000  1.0460000  1
   8024   8022   8021   8029     1  0.0000000  0.0000000  3
   8024   8022   8021   8025     1  0.0000000  0.6508444  3
   8025   8021   8022   8028     1  0.0000000  1.0460000  1
   8025   8021   8022   8028     1  0.0000000  0.0000000  3
   8025   8021   8029   8032     1  0.0000000  0.6973333  3
   8025   8021   8018   8030     1  0.0000000  1.0460000  1
   8025   8021   8018   8030     1  0.0000000  0.0000000  3
   8026   8023   8022   8028     1  0.0000000  0.6508444  3
   8035   8031   8037   8038     1  0.0000000  0.6973333  3
   8035   8031   8017   8039     1  0.0000000  1.0460000  1
   8035   8031   8017   8039     1  0.0000000  0.0000000  3
   8036   8031   8037   8038     1  0.0000000  0.6973333  3
   8036   8031   8017   8039     1  0.0000000  1.0460000  1
   8036   8031   8017   8039     1  0.0000000  0.0000000  3
   8040   8041   8044   8048     1  0.0000000  0.6508444  3
   8040   8041   8053   8056     1  0.0000000  1.0460000  1
   8040   8041   8053   8056     1  0.0000000  0.6694400  3
   8040   8054   8060   8061     1  0.0000000  1.0460000  1
   8040   8054   8060   8061     1  0.0000000  0.6694400  3
   8040   8062   8046   8049     1  0.0000000  1.6038667  3
   8041   8040   8054   8058     1  0.0000000  0.6508444  3
   8041   8040   8054   8059     1  0.0000000  0.6508444  3
   8041   8044   8045   8047     1  0.0000000  0.6508444  3
   8041   8044   8052   8055     1  0.0000000  1.0460000  1
   8041   8044   8052   8055     1  0.0000000  0.6694400  3
   8042   8040   8041   8044     1  0.0000000  0.6508444  3
   8042   8040   8041   8053     1  0.0000000  1.0460000  1
   8042   8040   8041   8053     1  0.0000000  0.0000000  3
   8042   8040   8041   8043     1  0.0000000  0.6508444  3
   8042   8040   8054   8060     1  0.0000000  1.0460000  1
   8042   8040   8054   8060     1  0.0000000  0.0000000  3
   8042   8040   8054   8058     1  0.0000000  0.6508444  3
   8042   8040   8054   8059     1  0.0000000  0.6508444  3
   8042   8040   8062   8046     1  0.0000000  1.6038667  3
   8043   8041   8040   8054     1  0.0000000  0.6508444  3
   8043   8041   8040   8062     1  0.0000000  1.0460000  1
   8043   8041   8040   8062     1  0.0000000  0.0000000  3
   8043   8041   8044   8045     1  0.0000000  0.6508444  3
   8043   8041   8044   8052     1  0.0000000  1.0460000  1
   8043   8041   8044   8052     1  0.0000000  0.0000000  3
   8043   8041   8044   8048     1  0.0000000  0.6508444  3
   8043   8041   8053   8056     1  0.0000000  0.6973333  3
   8044   8041   8053   8056     1  0.0000000  1.0460000  1
   8044   8041   8053   8056     1  0.0000000  0.6694400  3
   8044   8045   8046   8049     1  0.0000000  0.6508444  3
   8044   8045   8051   8057     1  0.0000000  1.0460000  1
   8044   8045   8051   8057     1  0.0000000  0.6694400  3
   8045   8044   8052   8055     1  0.0000000  1.0460000  1
   8045   8044   8052   8055     1  0.0000000  0.6694400  3
   8046   8045   8044   8048     1  0.0000000  0.6508444  3
   8046   8045   8051   8057     1  0.0000000  1.0460000  1
   8046   8045   8051   8057     1  0.0000000  0.6694400  3
   8047   8045   8044   8052     1  0.0000000  1.0460000  1
   8047   8045   8044   8052     1  0.0000000  0.0000000  3
   8047   8045   8044   8048     1  0.0000000  0.6508444  3
   8047   8045   8046   8050     1  0.0000000  1.0460000  1
   8047   8045   8046   8050     1  0.0000000  0.0000000  3
   8047   8045   8046   8062     1  0.0000000  1.0460000  1
   8047   8045   8046   8062     1  0.0000000  0.0000000  3
   8047   8045   8046   8049     1  0.0000000  0.6508444  3
   8047   8045   8051   8057     1  0.0000000  0.6973333  3
   8048   8044   8041   8053     1  0.0000000  1.0460000  1
   8048   8044   8041   8053     1  0.0000000  0.0000000  3
   8048   8044   8045   8051     1  0.0000000  1.0460000  1
   8048   8044   8045   8051     1  0.0000000  0.0000000  3
   8048   8044   8052   8055     1  0.0000000  0.6973333  3
   8049   8046   8045   8051     1  0.0000000  0.6508444  3
   8058   8054   8040   8062     1  0.0000000  1.0460000  1
   8058   8054   8040   8062     1  0.0000000  0.0000000  3
   8058   8054   8060   8061     1  0.0000000  0.6973333  3
   8059   8054   8040   8062     1  0.0000000  1.0460000  1
   8059   8054   8040   8062     1  0.0000000  0.0000000  3
   8059   8054   8060   8061     1  0.0000000  0.6973333  3
   8063   8064   8067   8071     1  0.0000000  0.6508444  3
   8063   8064   8076   8079     1  0.0000000  1.0460000  1
   8063   8064   8076   8079     1  0.0000000  0.6694400  3
   8063   8077   8083   8084     1  0.0000000  1.0460000  1
   8063   8077   8083   8084     1  0.0000000  0.6694400  3
   8063   8085   8069   8072     1  0.0000000  1.6038667  3
   8064   8067   8068   8070     1  0.0000000  0.6508444  3
   8064   8067   8075   8078     1  0.0000000  1.0460000  1
   8064   8067   8075   8078     1  0.0000000  0.6694400  3
   8064   8063   8077   8081     1  0.0000000  0.6508444  3
   8064   8063   8077   8082     1  0.0000000  0.6508444  3
   8065   8063   8064   8067     1  0.0000000  0.6508444  3
   8065   8063   8064   8076     1  0.0000000  1.0460000  1
   8065   8063   8064   8076     1  0.0000000  0.0000000  3
   8065   8063   8064   8066     1  0.0000000  0.6508444  3
   8065   8063   8077   8083     1  0.0000000  1.0460000  1
   8065   8063   8077   8083     1  0.0000000  0.0000000  3
   8065   8063   8077   8081     1  0.0000000  0.6508444  3
   8065   8063   8077   8082     1  0.0000000  0.6508444  3
   8065   8063   8085   8069     1  0.0000000  1.6038667  3
   8066   8064   8067   8068     1  0.0000000  0.6508444  3
   8066   8064   8067   8075     1  0.0000000  1.0460000  1
   8066   8064   8067   8075     1  0.0000000  0.0000000  3
   8066   8064   8067   8071     1  0.0000000  0.6508444  3
   8066   8064   8076   8079     1  0.0000000  0.6973333  3
   8066   8064   8063   8077     1  0.0000000  0.6508444  3
   8066   8064   8063   8085     1  0.0000000  1.0460000  1
   8066   8064   8063   8085     1  0.0000000  0.0000000  3
   8067   8068   8069   8072     1  0.0000000  0.6508444  3
   8067   8068   8074   8080     1  0.0000000  1.0460000  1
   8067   8068   8074   8080     1  0.0000000  0.6694400  3
   8067   8064   8076   8079     1  0.0000000  1.0460000  1
   8067   8064   8076   8079     1  0.0000000  0.6694400  3
   8068   8067   8075   8078     1  0.0000000  1.0460000  1
   8068   8067   8075   8078     1  0.0000000  0.6694400  3
   8069   8068   8074   8080     1  0.0000000  1.0460000  1
   8069   8068   8074   8080     1  0.0000000  0.6694400  3
   8069   8068   8067   8071     1  0.0000000  0.6508444  3
   8070   8068   8069   8073     1  0.0000000  1.0460000  1
   8070   8068   8069   8073     1  0.0000000  0.0000000  3
   8070   8068   8069   8085     1  0.0000000  1.0460000  1
   8070   8068   8069   8085     1  0.0000000  0.0000000  3
   8070   8068   8069   8072     1  0.0000000  0.6508444  3
   8070   8068   8074   8080     1  0.0000000  0.6973333  3
   8070   8068   8067   8075     1  0.0000000  1.0460000  1
   8070   8068   8067   8075     1  0.0000000  0.0000000  3
   8070   8068   8067   8071     1  0.0000000  0.6508444  3
   8071   8067   8068   8074     1  0.0000000  1.0460000  1
   8071   8067   8068   8074     1  0.0000000  0.0000000  3
   8071   8067   8075   8078     1  0.0000000  0.6973333  3
   8071   8067   8064   8076     1  0.0000000  1.0460000  1
   8071   8067   8064   8076     1  0.0000000  0.0000000  3
   8072   8069   8068   8074     1  0.0000000  0.6508444  3
   8081   8077   8083   8084     1  0.0000000  0.6973333  3
   8081   8077   8063   8085     1  0.0000000  1.0460000  1
   8081   8077   8063   8085     1  0.0000000  0.0000000  3
   8082   8077   8083   8084     1  0.0000000  0.6973333  3
   8082   8077   8063   8085     1  0.0000000  1.0460000  1
   8082   8077   8063   8085     1  0.0000000  0.0000000  3
   8086   8087   8090   8094     1  0.0000000  0.6508444  3
   8086   8087   8099   8102     1  0.0000000  1.0460000  1
   8086   8087   8099   8102     1  0.0000000  0.6694400  3
   8086   8100   8106   8107     1  0.0000000  1.0460000  1
   8086   8100   8106   8107     1  0.0000000  0.6694400  3
   8086   8108   8092   8095     1  0.0000000  1.6038667  3
   8087   8086   8100   8104     1  0.0000000  0.6508444  3
   8087   8086   8100   8105     1  0.0000000  0.6508444  3
   8087   8090   8091   8093     1  0.0000000  0.6508444  3
   8087   8090   8098   8101     1  0.0000000  1.0460000  1
   8087   8090   8098   8101     1  0.0000000  0.6694400  3
   8088   8086   8087   8090     1  0.0000000  0.6508444  3
   8088   8086   8087   8099     1  0.0000000  1.0460000  1
   8088   8086   8087   8099     1  0.0000000  0.0000000  3
   8088   8086   8087   8089     1  0.0000000  0.6508444  3
   8088   8086   8100   8106     1  0.0000000  1.0460000  1
   8088   8086   8100   8106     1  0.0000000  0.0000000  3
   8088   8086   8100   8104     1  0.0000000  0.6508444  3
   8088   8086   8100   8105     1  0.0000000  0.6508444  3
   8088   8086   8108   8092     1  0.0000000  1.6038667  3
   8089   8087   8086   8100     1  0.0000000  0.6508444  3
   8089   8087   8086   8108     1  0.0000000  1.0460000  1
   8089   8087   8086   8108     1  0.0000000  0.0000000  3
   8089   8087   8090   8091     1  0.0000000  0.6508444  3
   8089   8087   8090   8098     1  0.0000000  1.0460000  1
   8089   8087   8090   8098     1  0.0000000  0.0000000  3
   8089   8087   8090   8094     1  0.0000000  0.6508444  3
   8089   8087   8099   8102     1  0.0000000  0.6973333  3
   8090   8087   8099   8102     1  0.0000000  1.0460000  1
   8090   8087   8099   8102     1  0.0000000  0.6694400  3
   8090   8091   8092   8095     1  0.0000000  0.6508444  3
   8090   8091   8097   8103     1  0.0000000  1.0460000  1
   8090   8091   8097   8103     1  0.0000000  0.6694400  3
   8091   8090   8098   8101     1  0.0000000  1.0460000  1
   8091   8090   8098   8101     1  0.0000000  0.6694400  3
   8092   8091   8090   8094     1  0.0000000  0.6508444  3
   8092   8091   8097   8103     1  0.0000000  1.0460000  1
   8092   8091   8097   8103     1  0.0000000  0.6694400  3
   8093   8091   8090   8098     1  0.0000000  1.0460000  1
   8093   8091   8090   8098     1  0.0000000  0.0000000  3
   8093   8091   8090   8094     1  0.0000000  0.6508444  3
   8093   8091   8092   8096     1  0.0000000  1.0460000  1
   8093   8091   8092   8096     1  0.0000000  0.0000000  3
   8093   8091   8092   8108     1  0.0000000  1.0460000  1
   8093   8091   8092   8108     1  0.0000000  0.0000000  3
   8093   8091   8092   8095     1  0.0000000  0.6508444  3
   8093   8091   8097   8103     1  0.0000000  0.6973333  3
   8094   8090   8087   8099     1  0.0000000  1.0460000  1
   8094   8090   8087   8099     1  0.0000000  0.0000000  3
   8094   8090   8091   8097     1  0.0000000  1.0460000  1
   8094   8090   8091   8097     1  0.0000000  0.0000000  3
   8094   8090   8098   8101     1  0.0000000  0.6973333  3
   8095   8092   8091   8097     1  0.0000000  0.6508444  3
   8104   8100   8086   8108     1  0.0000000  1.0460000  1
   8104   8100   8086   8108     1  0.0000000  0.0000000  3
   8104   8100   8106   8107     1  0.0000000  0.6973333  3
   8105   8100   8086   8108     1  0.0000000  1.0460000  1
   8105   8100   8086   8108     1  0.0000000  0.0000000  3
   8105   8100   8106   8107     1  0.0000000  0.6973333  3
   8109   8110   8113   8117     1  0.0000000  0.6508444  3
   8109   8110   8122   8125     1  0.0000000  1.0460000  1
   8109   8110   8122   8125     1  0.0000000  0.6694400  3
   8109   8123   8129   8130     1  0.0000000  1.0460000  1
   8109   8123   8129   8130     1  0.0000000  0.6694400  3
   8109   8131   8115   8118     1  0.0000000  1.6038667  3
   8110   8113   8114   8116     1  0.0000000  0.6508444  3
   8110   8113   8121   8124     1  0.0000000  1.0460000  1
   8110   8113   8121   8124     1  0.0000000  0.6694400  3
   8110   8109   8123   8127     1  0.0000000  0.6508444  3
   8110   8109   8123   8128     1  0.0000000  0.6508444  3
   8111   8109   8110   8113     1  0.0000000  0.6508444  3
   8111   8109   8110   8122     1  0.0000000  1.0460000  1
   8111   8109   8110   8122     1  0.0000000  0.0000000  3
   8111   8109   8110   8112     1  0.0000000  0.6508444  3
   8111   8109   8123   8129     1  0.0000000  1.0460000  1
   8111   8109   8123   8129     1  0.0000000  0.0000000  3
   8111   8109   8123   8127     1  0.0000000  0.6508444  3
   8111   8109   8123   8128     1  0.0000000  0.6508444  3
   8111   8109   8131   8115     1  0.0000000  1.6038667  3
   8112   8110   8113   8114     1  0.0000000  0.6508444  3
   8112   8110   8113   8121     1  0.0000000  1.0460000  1
   8112   8110   8113   8121     1  0.0000000  0.0000000  3
   8112   8110   8113   8117     1  0.0000000  0.6508444  3
   8112   8110   8122   8125     1  0.0000000  0.6973333  3
   8112   8110   8109   8123     1  0.0000000  0.6508444  3
   8112   8110   8109   8131     1  0.0000000  1.0460000  1
   8112   8110   8109   8131     1  0.0000000  0.0000000  3
   8113   8114   8115   8118     1  0.0000000  0.6508444  3
   8113   8114   8120   8126     1  0.0000000  1.0460000  1
   8113   8114   8120   8126     1  0.0000000  0.6694400  3
   8113   8110   8122   8125     1  0.0000000  1.0460000  1
   8113   8110   8122   8125     1  0.0000000  0.6694400  3
   8114   8113   8121   8124     1  0.0000000  1.0460000  1
   8114   8113   8121   8124     1  0.0000000  0.6694400  3
   8115   8114   8120   8126     1  0.0000000  1.0460000  1
   8115   8114   8120   8126     1  0.0000000  0.6694400  3
   8115   8114   8113   8117     1  0.0000000  0.6508444  3
   8116   8114   8115   8119     1  0.0000000  1.0460000  1
   8116   8114   8115   8119     1  0.0000000  0.0000000  3
   8116   8114   8115   8131     1  0.0000000  1.0460000  1
   8116   8114   8115   8131     1  0.0000000  0.0000000  3
   8116   8114   8115   8118     1  0.0000000  0.6508444  3
   8116   8114   8120   8126     1  0.0000000  0.6973333  3
   8116   8114   8113   8121     1  0.0000000  1.0460000  1
   8116   8114   8113   8121     1  0.0000000  0.0000000  3
   8116   8114   8113   8117     1  0.0000000  0.6508444  3
   8117   8113   8114   8120     1  0.0000000  1.0460000  1
   8117   8113   8114   8120     1  0.0000000  0.0000000  3
   8117   8113   8121   8124     1  0.0000000  0.6973333  3
   8117   8113   8110   8122     1  0.0000000  1.0460000  1
   8117   8113   8110   8122     1  0.0000000  0.0000000  3
   8118   8115   8114   8120     1  0.0000000  0.6508444  3
   8127   8123   8129   8130     1  0.0000000  0.6973333  3
   8127   8123   8109   8131     1  0.0000000  1.0460000  1
   8127   8123   8109   8131     1  0.0000000  0.0000000  3
   8128   8123   8129   8130     1  0.0000000  0.6973333  3
   8128   8123   8109   8131     1  0.0000000  1.0460000  1
   8128   8123   8109   8131     1  0.0000000  0.0000000  3
   8132   8133   8136   8140     1  0.0000000  0.6508444  3
   8132   8133   8145   8148     1  0.0000000  1.0460000  1
   8132   8133   8145   8148     1  0.0000000  0.6694400  3
   8132   8146   8152   8153     1  0.0000000  1.0460000  1
   8132   8146   8152   8153     1  0.0000000  0.6694400  3
   8132   8154   8138   8141     1  0.0000000  1.6038667  3
   8133   8132   8146   8150     1  0.0000000  0.6508444  3
   8133   8132   8146   8151     1  0.0000000  0.6508444  3
   8133   8136   8137   8139     1  0.0000000  0.6508444  3
   8133   8136   8144   8147     1  0.0000000  1.0460000  1
   8133   8136   8144   8147     1  0.0000000  0.6694400  3
   8134   8132   8133   8136     1  0.0000000  0.6508444  3
   8134   8132   8133   8145     1  0.0000000  1.0460000  1
   8134   8132   8133   8145     1  0.0000000  0.0000000  3
   8134   8132   8133   8135     1  0.0000000  0.6508444  3
   8134   8132   8146   8152     1  0.0000000  1.0460000  1
   8134   8132   8146   8152     1  0.0000000  0.0000000  3
   8134   8132   8146   8150     1  0.0000000  0.6508444  3
   8134   8132   8146   8151     1  0.0000000  0.6508444  3
   8134   8132   8154   8138     1  0.0000000  1.6038667  3
   8135   8133   8132   8146     1  0.0000000  0.6508444  3
   8135   8133   8132   8154     1  0.0000000  1.0460000  1
   8135   8133   8132   8154     1  0.0000000  0.0000000  3
   8135   8133   8136   8137     1  0.0000000  0.6508444  3
   8135   8133   8136   8144     1  0.0000000  1.0460000  1
   8135   8133   8136   8144     1  0.0000000  0.0000000  3
   8135   8133   8136   8140     1  0.0000000  0.6508444  3
   8135   8133   8145   8148     1  0.0000000  0.6973333  3
   8136   8133   8145   8148     1  0.0000000  1.0460000  1
   8136   8133   8145   8148     1  0.0000000  0.6694400  3
   8136   8137   8138   8141     1  0.0000000  0.6508444  3
   8136   8137   8143   8149     1  0.0000000  1.0460000  1
   8136   8137   8143   8149     1  0.0000000  0.6694400  3
   8137   8136   8144   8147     1  0.0000000  1.0460000  1
   8137   8136   8144   8147     1  0.0000000  0.6694400  3
   8138   8137   8136   8140     1  0.0000000  0.6508444  3
   8138   8137   8143   8149     1  0.0000000  1.0460000  1
   8138   8137   8143   8149     1  0.0000000  0.6694400  3
   8139   8137   8136   8144     1  0.0000000  1.0460000  1
   8139   8137   8136   8144     1  0.0000000  0.0000000  3
   8139   8137   8136   8140     1  0.0000000  0.6508444  3
   8139   8137   8138   8142     1  0.0000000  1.0460000  1
   8139   8137   8138   8142     1  0.0000000  0.0000000  3
   8139   8137   8138   8154     1  0.0000000  1.0460000  1
   8139   8137   8138   8154     1  0.0000000  0.0000000  3
   8139   8137   8138   8141     1  0.0000000  0.6508444  3
   8139   8137   8143   8149     1  0.0000000  0.6973333  3
   8140   8136   8133   8145     1  0.0000000  1.0460000  1
   8140   8136   8133   8145     1  0.0000000  0.0000000  3
   8140   8136   8137   8143     1  0.0000000  1.0460000  1
   8140   8136   8137   8143     1  0.0000000  0.0000000  3
   8140   8136   8144   8147     1  0.0000000  0.6973333  3
   8141   8138   8137   8143     1  0.0000000  0.6508444  3
   8150   8146   8132   8154     1  0.0000000  1.0460000  1
   8150   8146   8132   8154     1  0.0000000  0.0000000  3
   8150   8146   8152   8153     1  0.0000000  0.6973333  3
   8151   8146   8132   8154     1  0.0000000  1.0460000  1
   8151   8146   8132   8154     1  0.0000000  0.0000000  3
   8151   8146   8152   8153     1  0.0000000  0.6973333  3
   8155   8156   8159   8163     1  0.0000000  0.6508444  3
   8155   8156   8168   8171     1  0.0000000  1.0460000  1
   8155   8156   8168   8171     1  0.0000000  0.6694400  3
   8155   8169   8175   8176     1  0.0000000  1.0460000  1
   8155   8169   8175   8176     1  0.0000000  0.6694400  3
   8155   8177   8161   8164     1  0.0000000  1.6038667  3
   8156   8159   8160   8162     1  0.0000000  0.6508444  3
   8156   8159   8167   8170     1  0.0000000  1.0460000  1
   8156   8159   8167   8170     1  0.0000000  0.6694400  3
   8156   8155   8169   8173     1  0.0000000  0.6508444  3
   8156   8155   8169   8174     1  0.0000000  0.6508444  3
   8157   8155   8156   8159     1  0.0000000  0.6508444  3
   8157   8155   8156   8168     1  0.0000000  1.0460000  1
   8157   8155   8156   8168     1  0.0000000  0.0000000  3
   8157   8155   8156   8158     1  0.0000000  0.6508444  3
   8157   8155   8169   8175     1  0.0000000  1.0460000  1
   8157   8155   8169   8175     1  0.0000000  0.0000000  3
   8157   8155   8169   8173     1  0.0000000  0.6508444  3
   8157   8155   8169   8174     1  0.0000000  0.6508444  3
   8157   8155   8177   8161     1  0.0000000  1.6038667  3
   8158   8156   8159   8160     1  0.0000000  0.6508444  3
   8158   8156   8159   8167     1  0.0000000  1.0460000  1
   8158   8156   8159   8167     1  0.0000000  0.0000000  3
   8158   8156   8159   8163     1  0.0000000  0.6508444  3
   8158   8156   8168   8171     1  0.0000000  0.6973333  3
   8158   8156   8155   8169     1  0.0000000  0.6508444  3
   8158   8156   8155   8177     1  0.0000000  1.0460000  1
   8158   8156   8155   8177     1  0.0000000  0.0000000  3
   8159   8160   8161   8164     1  0.0000000  0.6508444  3
   8159   8160   8166   8172     1  0.0000000  1.0460000  1
   8159   8160   8166   8172     1  0.0000000  0.6694400  3
   8159   8156   8168   8171     1  0.0000000  1.0460000  1
   8159   8156   8168   8171     1  0.0000000  0.6694400  3
   8160   8159   8167   8170     1  0.0000000  1.0460000  1
   8160   8159   8167   8170     1  0.0000000  0.6694400  3
   8161   8160   8166   8172     1  0.0000000  1.0460000  1
   8161   8160   8166   8172     1  0.0000000  0.6694400  3
   8161   8160   8159   8163     1  0.0000000  0.6508444  3
   8162   8160   8161   8165     1  0.0000000  1.0460000  1
   8162   8160   8161   8165     1  0.0000000  0.0000000  3
   8162   8160   8161   8177     1  0.0000000  1.0460000  1
   8162   8160   8161   8177     1  0.0000000  0.0000000  3
   8162   8160   8161   8164     1  0.0000000  0.6508444  3
   8162   8160   8166   8172     1  0.0000000  0.6973333  3
   8162   8160   8159   8167     1  0.0000000  1.0460000  1
   8162   8160   8159   8167     1  0.0000000  0.0000000  3
   8162   8160   8159   8163     1  0.0000000  0.6508444  3
   8163   8159   8160   8166     1  0.0000000  1.0460000  1
   8163   8159   8160   8166     1  0.0000000  0.0000000  3
   8163   8159   8167   8170     1  0.0000000  0.6973333  3
   8163   8159   8156   8168     1  0.0000000  1.0460000  1
   8163   8159   8156   8168     1  0.0000000  0.0000000  3
   8164   8161   8160   8166     1  0.0000000  0.6508444  3
   8173   8169   8175   8176     1  0.0000000  0.6973333  3
   8173   8169   8155   8177     1  0.0000000  1.0460000  1
   8173   8169   8155   8177     1  0.0000000  0.0000000  3
   8174   8169   8175   8176     1  0.0000000  0.6973333  3
   8174   8169   8155   8177     1  0.0000000  1.0460000  1
   8174   8169   8155   8177     1  0.0000000  0.0000000  3
   8178   8179   8182   8186     1  0.0000000  0.6508444  3
   8178   8179   8191   8194     1  0.0000000  1.0460000  1
   8178   8179   8191   8194     1  0.0000000  0.6694400  3
   8178   8192   8198   8199     1  0.0000000  1.0460000  1
   8178   8192   8198   8199     1  0.0000000  0.6694400  3
   8178   8200   8184   8187     1  0.0000000  1.6038667  3
   8179   8178   8192   8196     1  0.0000000  0.6508444  3
   8179   8178   8192   8197     1  0.0000000  0.6508444  3
   8179   8182   8183   8185     1  0.0000000  0.6508444  3
   8179   8182   8190   8193     1  0.0000000  1.0460000  1
   8179   8182   8190   8193     1  0.0000000  0.6694400  3
   8180   8178   8179   8182     1  0.0000000  0.6508444  3
   8180   8178   8179   8191     1  0.0000000  1.0460000  1
   8180   8178   8179   8191     1  0.0000000  0.0000000  3
   8180   8178   8179   8181     1  0.0000000  0.6508444  3
   8180   8178   8192   8198     1  0.0000000  1.0460000  1
   8180   8178   8192   8198     1  0.0000000  0.0000000  3
   8180   8178   8192   8196     1  0.0000000  0.6508444  3
   8180   8178   8192   8197     1  0.0000000  0.6508444  3
   8180   8178   8200   8184     1  0.0000000  1.6038667  3
   8181   8179   8178   8192     1  0.0000000  0.6508444  3
   8181   8179   8178   8200     1  0.0000000  1.0460000  1
   8181   8179   8178   8200     1  0.0000000  0.0000000  3
   8181   8179   8182   8183     1  0.0000000  0.6508444  3
   8181   8179   8182   8190     1  0.0000000  1.0460000  1
   8181   8179   8182   8190     1  0.0000000  0.0000000  3
   8181   8179   8182   8186     1  0.0000000  0.6508444  3
   8181   8179   8191   8194     1  0.0000000  0.6973333  3
   8182   8179   8191   8194     1  0.0000000  1.0460000  1
   8182   8179   8191   8194     1  0.0000000  0.6694400  3
   8182   8183   8184   8187     1  0.0000000  0.6508444  3
   8182   8183   8189   8195     1  0.0000000  1.0460000  1
   8182   8183   8189   8195     1  0.0000000  0.6694400  3
   8183   8182   8190   8193     1  0.0000000  1.0460000  1
   8183   8182   8190   8193     1  0.0000000  0.6694400  3
   8184   8183   8182   8186     1  0.0000000  0.6508444  3
   8184   8183   8189   8195     1  0.0000000  1.0460000  1
   8184   8183   8189   8195     1  0.0000000  0.6694400  3
   8185   8183   8182   8190     1  0.0000000  1.0460000  1
   8185   8183   8182   8190     1  0.0000000  0.0000000  3
   8185   8183   8182   8186     1  0.0000000  0.6508444  3
   8185   8183   8184   8188     1  0.0000000  1.0460000  1
   8185   8183   8184   8188     1  0.0000000  0.0000000  3
   8185   8183   8184   8200     1  0.0000000  1.0460000  1
   8185   8183   8184   8200     1  0.0000000  0.0000000  3
   8185   8183   8184   8187     1  0.0000000  0.6508444  3
   8185   8183   8189   8195     1  0.0000000  0.6973333  3
   8186   8182   8179   8191     1  0.0000000  1.0460000  1
   8186   8182   8179   8191     1  0.0000000  0.0000000  3
   8186   8182   8183   8189     1  0.0000000  1.0460000  1
   8186   8182   8183   8189     1  0.0000000  0.0000000  3
   8186   8182   8190   8193     1  0.0000000  0.6973333  3
   8187   8184   8183   8189     1  0.0000000  0.6508444  3
   8196   8192   8178   8200     1  0.0000000  1.0460000  1
   8196   8192   8178   8200     1  0.0000000  0.0000000  3
   8196   8192   8198   8199     1  0.0000000  0.6973333  3
   8197   8192   8178   8200     1  0.0000000  1.0460000  1
   8197   8192   8178   8200     1  0.0000000  0.0000000  3
   8197   8192   8198   8199     1  0.0000000  0.6973333  3
   8201   8202   8205   8209     1  0.0000000  0.6508444  3
   8201   8202   8214   8217     1  0.0000000  1.0460000  1
   8201   8202   8214   8217     1  0.0000000  0.6694400  3
   8201   8215   8221   8222     1  0.0000000  1.0460000  1
   8201   8215   8221   8222     1  0.0000000  0.6694400  3
   8201   8223   8207   8210     1  0.0000000  1.6038667  3
   8202   8205   8206   8208     1  0.0000000  0.6508444  3
   8202   8205   8213   8216     1  0.0000000  1.0460000  1
   8202   8205   8213   8216     1  0.0000000  0.6694400  3
   8202   8201   8215   8219     1  0.0000000  0.6508444  3
   8202   8201   8215   8220     1  0.0000000  0.6508444  3
   8203   8201   8202   8205     1  0.0000000  0.6508444  3
   8203   8201   8202   8214     1  0.0000000  1.0460000  1
   8203   8201   8202   8214     1  0.0000000  0.0000000  3
   8203   8201   8202   8204     1  0.0000000  0.6508444  3
   8203   8201   8215   8221     1  0.0000000  1.0460000  1
   8203   8201   8215   8221     1  0.0000000  0.0000000  3
   8203   8201   8215   8219     1  0.0000000  0.6508444  3
   8203   8201   8215   8220     1  0.0000000  0.6508444  3
   8203   8201   8223   8207     1  0.0000000  1.6038667  3
   8204   8202   8205   8206     1  0.0000000  0.6508444  3
   8204   8202   8205   8213     1  0.0000000  1.0460000  1
   8204   8202   8205   8213     1  0.0000000  0.0000000  3
   8204   8202   8205   8209     1  0.0000000  0.6508444  3
   8204   8202   8214   8217     1  0.0000000  0.6973333  3
   8204   8202   8201   8215     1  0.0000000  0.6508444  3
   8204   8202   8201   8223     1  0.0000000  1.0460000  1
   8204   8202   8201   8223     1  0.0000000  0.0000000  3
   8205   8206   8207   8210     1  0.0000000  0.6508444  3
   8205   8206   8212   8218     1  0.0000000  1.0460000  1
   8205   8206   8212   8218     1  0.0000000  0.6694400  3
   8205   8202   8214   8217     1  0.0000000  1.0460000  1
   8205   8202   8214   8217     1  0.0000000  0.6694400  3
   8206   8205   8213   8216     1  0.0000000  1.0460000  1
   8206   8205   8213   8216     1  0.0000000  0.6694400  3
   8207   8206   8212   8218     1  0.0000000  1.0460000  1
   8207   8206   8212   8218     1  0.0000000  0.6694400  3
   8207   8206   8205   8209     1  0.0000000  0.6508444  3
   8208   8206   8207   8211     1  0.0000000  1.0460000  1
   8208   8206   8207   8211     1  0.0000000  0.0000000  3
   8208   8206   8207   8223     1  0.0000000  1.0460000  1
   8208   8206   8207   8223     1  0.0000000  0.0000000  3
   8208   8206   8207   8210     1  0.0000000  0.6508444  3
   8208   8206   8212   8218     1  0.0000000  0.6973333  3
   8208   8206   8205   8213     1  0.0000000  1.0460000  1
   8208   8206   8205   8213     1  0.0000000  0.0000000  3
   8208   8206   8205   8209     1  0.0000000  0.6508444  3
   8209   8205   8206   8212     1  0.0000000  1.0460000  1
   8209   8205   8206   8212     1  0.0000000  0.0000000  3
   8209   8205   8213   8216     1  0.0000000  0.6973333  3
   8209   8205   8202   8214     1  0.0000000  1.0460000  1
   8209   8205   8202   8214     1  0.0000000  0.0000000  3
   8210   8207   8206   8212     1  0.0000000  0.6508444  3
   8219   8215   8221   8222     1  0.0000000  0.6973333  3
   8219   8215   8201   8223     1  0.0000000  1.0460000  1
   8219   8215   8201   8223     1  0.0000000  0.0000000  3
   8220   8215   8221   8222     1  0.0000000  0.6973333  3
   8220   8215   8201   8223     1  0.0000000  1.0460000  1
   8220   8215   8201   8223     1  0.0000000  0.0000000  3
   8224   8225   8228   8232     1  0.0000000  0.6508444  3
   8224   8225   8237   8240     1  0.0000000  1.0460000  1
   8224   8225   8237   8240     1  0.0000000  0.6694400  3
   8224   8238   8244   8245     1  0.0000000  1.0460000  1
   8224   8238   8244   8245     1  0.0000000  0.6694400  3
   8224   8246   8230   8233     1  0.0000000  1.6038667  3
   8225   8224   8238   8242     1  0.0000000  0.6508444  3
   8225   8224   8238   8243     1  0.0000000  0.6508444  3
   8225   8228   8229   8231     1  0.0000000  0.6508444  3
   8225   8228   8236   8239     1  0.0000000  1.0460000  1
   8225   8228   8236   8239     1  0.0000000  0.6694400  3
   8226   8224   8225   8228     1  0.0000000  0.6508444  3
   8226   8224   8225   8237     1  0.0000000  1.0460000  1
   8226   8224   8225   8237     1  0.0000000  0.0000000  3
   8226   8224   8225   8227     1  0.0000000  0.6508444  3
   8226   8224   8238   8244     1  0.0000000  1.0460000  1
   8226   8224   8238   8244     1  0.0000000  0.0000000  3
   8226   8224   8238   8242     1  0.0000000  0.6508444  3
   8226   8224   8238   8243     1  0.0000000  0.6508444  3
   8226   8224   8246   8230     1  0.0000000  1.6038667  3
   8227   8225   8224   8238     1  0.0000000  0.6508444  3
   8227   8225   8224   8246     1  0.0000000  1.0460000  1
   8227   8225   8224   8246     1  0.0000000  0.0000000  3
   8227   8225   8228   8229     1  0.0000000  0.6508444  3
   8227   8225   8228   8236     1  0.0000000  1.0460000  1
   8227   8225   8228   8236     1  0.0000000  0.0000000  3
   8227   8225   8228   8232     1  0.0000000  0.6508444  3
   8227   8225   8237   8240     1  0.0000000  0.6973333  3
   8228   8225   8237   8240     1  0.0000000  1.0460000  1
   8228   8225   8237   8240     1  0.0000000  0.6694400  3
   8228   8229   8230   8233     1  0.0000000  0.6508444  3
   8228   8229   8235   8241     1  0.0000000  1.0460000  1
   8228   8229   8235   8241     1  0.0000000  0.6694400  3
   8229   8228   8236   8239     1  0.0000000  1.0460000  1
   8229   8228   8236   8239     1  0.0000000  0.6694400  3
   8230   8229   8228   8232     1  0.0000000  0.6508444  3
   8230   8229   8235   8241     1  0.0000000  1.0460000  1
   8230   8229   8235   8241     1  0.0000000  0.6694400  3
   8231   8229   8228   8236     1  0.0000000  1.0460000  1
   8231   8229   8228   8236     1  0.0000000  0.0000000  3
   8231   8229   8228   8232     1  0.0000000  0.6508444  3
   8231   8229   8230   8234     1  0.0000000  1.0460000  1
   8231   8229   8230   8234     1  0.0000000  0.0000000  3
   8231   8229   8230   8246     1  0.0000000  1.0460000  1
   8231   8229   8230   8246     1  0.0000000  0.0000000  3
   8231   8229   8230   8233     1  0.0000000  0.6508444  3
   8231   8229   8235   8241     1  0.0000000  0.6973333  3
   8232   8228   8225   8237     1  0.0000000  1.0460000  1
   8232   8228   8225   8237     1  0.0000000  0.0000000  3
   8232   8228   8229   8235     1  0.0000000  1.0460000  1
   8232   8228   8229   8235     1  0.0000000  0.0000000  3
   8232   8228   8236   8239     1  0.0000000  0.6973333  3
   8233   8230   8229   8235     1  0.0000000  0.6508444  3
   8242   8238   8224   8246     1  0.0000000  1.0460000  1
   8242   8238   8224   8246     1  0.0000000  0.0000000  3
   8242   8238   8244   8245     1  0.0000000  0.6973333  3
   8243   8238   8224   8246     1  0.0000000  1.0460000  1
   8243   8238   8224   8246     1  0.0000000  0.0000000  3
   8243   8238   8244   8245     1  0.0000000  0.6973333  3
   8247   8248   8251   8255     1  0.0000000  0.6508444  3
   8247   8248   8260   8263     1  0.0000000  1.0460000  1
   8247   8248   8260   8263     1  0.0000000  0.6694400  3
   8247   8261   8267   8268     1  0.0000000  1.0460000  1
   8247   8261   8267   8268     1  0.0000000  0.6694400  3
   8247   8269   8253   8256     1  0.0000000  1.6038667  3
   8248   8251   8252   8254     1  0.0000000  0.6508444  3
   8248   8251   8259   8262     1  0.0000000  1.0460000  1
   8248   8251   8259   8262     1  0.0000000  0.6694400  3
   8248   8247   8261   8265     1  0.0000000  0.6508444  3
   8248   8247   8261   8266     1  0.0000000  0.6508444  3
   8249   8247   8248   8251     1  0.0000000  0.6508444  3
   8249   8247   8248   8260     1  0.0000000  1.0460000  1
   8249   8247   8248   8260     1  0.0000000  0.0000000  3
   8249   8247   8248   8250     1  0.0000000  0.6508444  3
   8249   8247   8261   8267     1  0.0000000  1.0460000  1
   8249   8247   8261   8267     1  0.0000000  0.0000000  3
   8249   8247   8261   8265     1  0.0000000  0.6508444  3
   8249   8247   8261   8266     1  0.0000000  0.6508444  3
   8249   8247   8269   8253     1  0.0000000  1.6038667  3
   8250   8248   8251   8252     1  0.0000000  0.6508444  3
   8250   8248   8251   8259     1  0.0000000  1.0460000  1
   8250   8248   8251   8259     1  0.0000000  0.0000000  3
   8250   8248   8251   8255     1  0.0000000  0.6508444  3
   8250   8248   8260   8263     1  0.0000000  0.6973333  3
   8250   8248   8247   8261     1  0.0000000  0.6508444  3
   8250   8248   8247   8269     1  0.0000000  1.0460000  1
   8250   8248   8247   8269     1  0.0000000  0.0000000  3
   8251   8252   8253   8256     1  0.0000000  0.6508444  3
   8251   8252   8258   8264     1  0.0000000  1.0460000  1
   8251   8252   8258   8264     1  0.0000000  0.6694400  3
   8251   8248   8260   8263     1  0.0000000  1.0460000  1
   8251   8248   8260   8263     1  0.0000000  0.6694400  3
   8252   8251   8259   8262     1  0.0000000  1.0460000  1
   8252   8251   8259   8262     1  0.0000000  0.6694400  3
   8253   8252   8258   8264     1  0.0000000  1.0460000  1
   8253   8252   8258   8264     1  0.0000000  0.6694400  3
   8253   8252   8251   8255     1  0.0000000  0.6508444  3
   8254   8252   8253   8257     1  0.0000000  1.0460000  1
   8254   8252   8253   8257     1  0.0000000  0.0000000  3
   8254   8252   8253   8269     1  0.0000000  1.0460000  1
   8254   8252   8253   8269     1  0.0000000  0.0000000  3
   8254   8252   8253   8256     1  0.0000000  0.6508444  3
   8254   8252   8258   8264     1  0.0000000  0.6973333  3
   8254   8252   8251   8259     1  0.0000000  1.0460000  1
   8254   8252   8251   8259     1  0.0000000  0.0000000  3
   8254   8252   8251   8255     1  0.0000000  0.6508444  3
   8255   8251   8252   8258     1  0.0000000  1.0460000  1
   8255   8251   8252   8258     1  0.0000000  0.0000000  3
   8255   8251   8259   8262     1  0.0000000  0.6973333  3
   8255   8251   8248   8260     1  0.0000000  1.0460000  1
   8255   8251   8248   8260     1  0.0000000  0.0000000  3
   8256   8253   8252   8258     1  0.0000000  0.6508444  3
   8265   8261   8267   8268     1  0.0000000  0.6973333  3
   8265   8261   8247   8269     1  0.0000000  1.0460000  1
   8265   8261   8247   8269     1  0.0000000  0.0000000  3
   8266   8261   8267   8268     1  0.0000000  0.6973333  3
   8266   8261   8247   8269     1  0.0000000  1.0460000  1
   8266   8261   8247   8269     1  0.0000000  0.0000000  3
   8270   8271   8274   8278     1  0.0000000  0.6508444  3
   8270   8271   8283   8286     1  0.0000000  1.0460000  1
   8270   8271   8283   8286     1  0.0000000  0.6694400  3
   8270   8284   8290   8291     1  0.0000000  1.0460000  1
   8270   8284   8290   8291     1  0.0000000  0.6694400  3
   8270   8292   8276   8279     1  0.0000000  1.6038667  3
   8271   8270   8284   8288     1  0.0000000  0.6508444  3
   8271   8270   8284   8289     1  0.0000000  0.6508444  3
   8271   8274   8275   8277     1  0.0000000  0.6508444  3
   8271   8274   8282   8285     1  0.0000000  1.0460000  1
   8271   8274   8282   8285     1  0.0000000  0.6694400  3
   8272   8270   8271   8274     1  0.0000000  0.6508444  3
   8272   8270   8271   8283     1  0.0000000  1.0460000  1
   8272   8270   8271   8283     1  0.0000000  0.0000000  3
   8272   8270   8271   8273     1  0.0000000  0.6508444  3
   8272   8270   8284   8290     1  0.0000000  1.0460000  1
   8272   8270   8284   8290     1  0.0000000  0.0000000  3
   8272   8270   8284   8288     1  0.0000000  0.6508444  3
   8272   8270   8284   8289     1  0.0000000  0.6508444  3
   8272   8270   8292   8276     1  0.0000000  1.6038667  3
   8273   8271   8270   8284     1  0.0000000  0.6508444  3
   8273   8271   8270   8292     1  0.0000000  1.0460000  1
   8273   8271   8270   8292     1  0.0000000  0.0000000  3
   8273   8271   8274   8275     1  0.0000000  0.6508444  3
   8273   8271   8274   8282     1  0.0000000  1.0460000  1
   8273   8271   8274   8282     1  0.0000000  0.0000000  3
   8273   8271   8274   8278     1  0.0000000  0.6508444  3
   8273   8271   8283   8286     1  0.0000000  0.6973333  3
   8274   8271   8283   8286     1  0.0000000  1.0460000  1
   8274   8271   8283   8286     1  0.0000000  0.6694400  3
   8274   8275   8276   8279     1  0.0000000  0.6508444  3
   8274   8275   8281   8287     1  0.0000000  1.0460000  1
   8274   8275   8281   8287     1  0.0000000  0.6694400  3
   8275   8274   8282   8285     1  0.0000000  1.0460000  1
   8275   8274   8282   8285     1  0.0000000  0.6694400  3
   8276   8275   8274   8278     1  0.0000000  0.6508444  3
   8276   8275   8281   8287     1  0.0000000  1.0460000  1
   8276   8275   8281   8287     1  0.0000000  0.6694400  3
   8277   8275   8274   8282     1  0.0000000  1.0460000  1
   8277   8275   8274   8282     1  0.0000000  0.0000000  3
   8277   8275   8274   8278     1  0.0000000  0.6508444  3
   8277   8275   8276   8280     1  0.0000000  1.0460000  1
   8277   8275   8276   8280     1  0.0000000  0.0000000  3
   8277   8275   8276   8292     1  0.0000000  1.0460000  1
   8277   8275   8276   8292     1  0.0000000  0.0000000  3
   8277   8275   8276   8279     1  0.0000000  0.6508444  3
   8277   8275   8281   8287     1  0.0000000  0.6973333  3
   8278   8274   8271   8283     1  0.0000000  1.0460000  1
   8278   8274   8271   8283     1  0.0000000  0.0000000  3
   8278   8274   8275   8281     1  0.0000000  1.0460000  1
   8278   8274   8275   8281     1  0.0000000  0.0000000  3
   8278   8274   8282   8285     1  0.0000000  0.6973333  3
   8279   8276   8275   8281     1  0.0000000  0.6508444  3
   8288   8284   8270   8292     1  0.0000000  1.0460000  1
   8288   8284   8270   8292     1  0.0000000  0.0000000  3
   8288   8284   8290   8291     1  0.0000000  0.6973333  3
   8289   8284   8270   8292     1  0.0000000  1.0460000  1
   8289   8284   8270   8292     1  0.0000000  0.0000000  3
   8289   8284   8290   8291     1  0.0000000  0.6973333  3
   8293   8294   8297   8301     1  0.0000000  0.6508444  3
   8293   8294   8306   8309     1  0.0000000  1.0460000  1
   8293   8294   8306   8309     1  0.0000000  0.6694400  3
   8293   8307   8313   8314     1  0.0000000  1.0460000  1
   8293   8307   8313   8314     1  0.0000000  0.6694400  3
   8293   8315   8299   8302     1  0.0000000  1.6038667  3
   8294   8297   8298   8300     1  0.0000000  0.6508444  3
   8294   8297   8305   8308     1  0.0000000  1.0460000  1
   8294   8297   8305   8308     1  0.0000000  0.6694400  3
   8294   8293   8307   8311     1  0.0000000  0.6508444  3
   8294   8293   8307   8312     1  0.0000000  0.6508444  3
   8295   8293   8294   8297     1  0.0000000  0.6508444  3
   8295   8293   8294   8306     1  0.0000000  1.0460000  1
   8295   8293   8294   8306     1  0.0000000  0.0000000  3
   8295   8293   8294   8296     1  0.0000000  0.6508444  3
   8295   8293   8307   8313     1  0.0000000  1.0460000  1
   8295   8293   8307   8313     1  0.0000000  0.0000000  3
   8295   8293   8307   8311     1  0.0000000  0.6508444  3
   8295   8293   8307   8312     1  0.0000000  0.6508444  3
   8295   8293   8315   8299     1  0.0000000  1.6038667  3
   8296   8294   8297   8298     1  0.0000000  0.6508444  3
   8296   8294   8297   8305     1  0.0000000  1.0460000  1
   8296   8294   8297   8305     1  0.0000000  0.0000000  3
   8296   8294   8297   8301     1  0.0000000  0.6508444  3
   8296   8294   8306   8309     1  0.0000000  0.6973333  3
   8296   8294   8293   8307     1  0.0000000  0.6508444  3
   8296   8294   8293   8315     1  0.0000000  1.0460000  1
   8296   8294   8293   8315     1  0.0000000  0.0000000  3
   8297   8298   8299   8302     1  0.0000000  0.6508444  3
   8297   8298   8304   8310     1  0.0000000  1.0460000  1
   8297   8298   8304   8310     1  0.0000000  0.6694400  3
   8297   8294   8306   8309     1  0.0000000  1.0460000  1
   8297   8294   8306   8309     1  0.0000000  0.6694400  3
   8298   8297   8305   8308     1  0.0000000  1.0460000  1
   8298   8297   8305   8308     1  0.0000000  0.6694400  3
   8299   8298   8304   8310     1  0.0000000  1.0460000  1
   8299   8298   8304   8310     1  0.0000000  0.6694400  3
   8299   8298   8297   8301     1  0.0000000  0.6508444  3
   8300   8298   8299   8303     1  0.0000000  1.0460000  1
   8300   8298   8299   8303     1  0.0000000  0.0000000  3
   8300   8298   8299   8315     1  0.0000000  1.0460000  1
   8300   8298   8299   8315     1  0.0000000  0.0000000  3
   8300   8298   8299   8302     1  0.0000000  0.6508444  3
   8300   8298   8304   8310     1  0.0000000  0.6973333  3
   8300   8298   8297   8305     1  0.0000000  1.0460000  1
   8300   8298   8297   8305     1  0.0000000  0.0000000  3
   8300   8298   8297   8301     1  0.0000000  0.6508444  3
   8301   8297   8298   8304     1  0.0000000  1.0460000  1
   8301   8297   8298   8304     1  0.0000000  0.0000000  3
   8301   8297   8305   8308     1  0.0000000  0.6973333  3
   8301   8297   8294   8306     1  0.0000000  1.0460000  1
   8301   8297   8294   8306     1  0.0000000  0.0000000  3
   8302   8299   8298   8304     1  0.0000000  0.6508444  3
   8311   8307   8313   8314     1  0.0000000  0.6973333  3
   8311   8307   8293   8315     1  0.0000000  1.0460000  1
   8311   8307   8293   8315     1  0.0000000  0.0000000  3
   8312   8307   8313   8314     1  0.0000000  0.6973333  3
   8312   8307   8293   8315     1  0.0000000  1.0460000  1
   8312   8307   8293   8315     1  0.0000000  0.0000000  3
   8316   8317   8320   8324     1  0.0000000  0.6508444  3
   8316   8317   8329   8332     1  0.0000000  1.0460000  1
   8316   8317   8329   8332     1  0.0000000  0.6694400  3
   8316   8330   8336   8337     1  0.0000000  1.0460000  1
   8316   8330   8336   8337     1  0.0000000  0.6694400  3
   8316   8338   8322   8325     1  0.0000000  1.6038667  3
   8317   8316   8330   8334     1  0.0000000  0.6508444  3
   8317   8316   8330   8335     1  0.0000000  0.6508444  3
   8317   8320   8321   8323     1  0.0000000  0.6508444  3
   8317   8320   8328   8331     1  0.0000000  1.0460000  1
   8317   8320   8328   8331     1  0.0000000  0.6694400  3
   8318   8316   8317   8320     1  0.0000000  0.6508444  3
   8318   8316   8317   8329     1  0.0000000  1.0460000  1
   8318   8316   8317   8329     1  0.0000000  0.0000000  3
   8318   8316   8317   8319     1  0.0000000  0.6508444  3
   8318   8316   8330   8336     1  0.0000000  1.0460000  1
   8318   8316   8330   8336     1  0.0000000  0.0000000  3
   8318   8316   8330   8334     1  0.0000000  0.6508444  3
   8318   8316   8330   8335     1  0.0000000  0.6508444  3
   8318   8316   8338   8322     1  0.0000000  1.6038667  3
   8319   8317   8316   8330     1  0.0000000  0.6508444  3
   8319   8317   8316   8338     1  0.0000000  1.0460000  1
   8319   8317   8316   8338     1  0.0000000  0.0000000  3
   8319   8317   8320   8321     1  0.0000000  0.6508444  3
   8319   8317   8320   8328     1  0.0000000  1.0460000  1
   8319   8317   8320   8328     1  0.0000000  0.0000000  3
   8319   8317   8320   8324     1  0.0000000  0.6508444  3
   8319   8317   8329   8332     1  0.0000000  0.6973333  3
   8320   8317   8329   8332     1  0.0000000  1.0460000  1
   8320   8317   8329   8332     1  0.0000000  0.6694400  3
   8320   8321   8322   8325     1  0.0000000  0.6508444  3
   8320   8321   8327   8333     1  0.0000000  1.0460000  1
   8320   8321   8327   8333     1  0.0000000  0.6694400  3
   8321   8320   8328   8331     1  0.0000000  1.0460000  1
   8321   8320   8328   8331     1  0.0000000  0.6694400  3
   8322   8321   8320   8324     1  0.0000000  0.6508444  3
   8322   8321   8327   8333     1  0.0000000  1.0460000  1
   8322   8321   8327   8333     1  0.0000000  0.6694400  3
   8323   8321   8320   8328     1  0.0000000  1.0460000  1
   8323   8321   8320   8328     1  0.0000000  0.0000000  3
   8323   8321   8320   8324     1  0.0000000  0.6508444  3
   8323   8321   8322   8326     1  0.0000000  1.0460000  1
   8323   8321   8322   8326     1  0.0000000  0.0000000  3
   8323   8321   8322   8338     1  0.0000000  1.0460000  1
   8323   8321   8322   8338     1  0.0000000  0.0000000  3
   8323   8321   8322   8325     1  0.0000000  0.6508444  3
   8323   8321   8327   8333     1  0.0000000  0.6973333  3
   8324   8320   8317   8329     1  0.0000000  1.0460000  1
   8324   8320   8317   8329     1  0.0000000  0.0000000  3
   8324   8320   8321   8327     1  0.0000000  1.0460000  1
   8324   8320   8321   8327     1  0.0000000  0.0000000  3
   8324   8320   8328   8331     1  0.0000000  0.6973333  3
   8325   8322   8321   8327     1  0.0000000  0.6508444  3
   8334   8330   8316   8338     1  0.0000000  1.0460000  1
   8334   8330   8316   8338     1  0.0000000  0.0000000  3
   8334   8330   8336   8337     1  0.0000000  0.6973333  3
   8335   8330   8316   8338     1  0.0000000  1.0460000  1
   8335   8330   8316   8338     1  0.0000000  0.0000000  3
   8335   8330   8336   8337     1  0.0000000  0.6973333  3
   8339   8340   8343   8347     1  0.0000000  0.6508444  3
   8339   8340   8352   8355     1  0.0000000  1.0460000  1
   8339   8340   8352   8355     1  0.0000000  0.6694400  3
   8339   8353   8359   8360     1  0.0000000  1.0460000  1
   8339   8353   8359   8360     1  0.0000000  0.6694400  3
   8339   8361   8345   8348     1  0.0000000  1.6038667  3
   8340   8343   8344   8346     1  0.0000000  0.6508444  3
   8340   8343   8351   8354     1  0.0000000  1.0460000  1
   8340   8343   8351   8354     1  0.0000000  0.6694400  3
   8340   8339   8353   8357     1  0.0000000  0.6508444  3
   8340   8339   8353   8358     1  0.0000000  0.6508444  3
   8341   8339   8340   8343     1  0.0000000  0.6508444  3
   8341   8339   8340   8352     1  0.0000000  1.0460000  1
   8341   8339   8340   8352     1  0.0000000  0.0000000  3
   8341   8339   8340   8342     1  0.0000000  0.6508444  3
   8341   8339   8353   8359     1  0.0000000  1.0460000  1
   8341   8339   8353   8359     1  0.0000000  0.0000000  3
   8341   8339   8353   8357     1  0.0000000  0.6508444  3
   8341   8339   8353   8358     1  0.0000000  0.6508444  3
   8341   8339   8361   8345     1  0.0000000  1.6038667  3
   8342   8340   8343   8344     1  0.0000000  0.6508444  3
   8342   8340   8343   8351     1  0.0000000  1.0460000  1
   8342   8340   8343   8351     1  0.0000000  0.0000000  3
   8342   8340   8343   8347     1  0.0000000  0.6508444  3
   8342   8340   8352   8355     1  0.0000000  0.6973333  3
   8342   8340   8339   8353     1  0.0000000  0.6508444  3
   8342   8340   8339   8361     1  0.0000000  1.0460000  1
   8342   8340   8339   8361     1  0.0000000  0.0000000  3
   8343   8344   8345   8348     1  0.0000000  0.6508444  3
   8343   8344   8350   8356     1  0.0000000  1.0460000  1
   8343   8344   8350   8356     1  0.0000000  0.6694400  3
   8343   8340   8352   8355     1  0.0000000  1.0460000  1
   8343   8340   8352   8355     1  0.0000000  0.6694400  3
   8344   8343   8351   8354     1  0.0000000  1.0460000  1
   8344   8343   8351   8354     1  0.0000000  0.6694400  3
   8345   8344   8350   8356     1  0.0000000  1.0460000  1
   8345   8344   8350   8356     1  0.0000000  0.6694400  3
   8345   8344   8343   8347     1  0.0000000  0.6508444  3
   8346   8344   8345   8349     1  0.0000000  1.0460000  1
   8346   8344   8345   8349     1  0.0000000  0.0000000  3
   8346   8344   8345   8361     1  0.0000000  1.0460000  1
   8346   8344   8345   8361     1  0.0000000  0.0000000  3
   8346   8344   8345   8348     1  0.0000000  0.6508444  3
   8346   8344   8350   8356     1  0.0000000  0.6973333  3
   8346   8344   8343   8351     1  0.0000000  1.0460000  1
   8346   8344   8343   8351     1  0.0000000  0.0000000  3
   8346   8344   8343   8347     1  0.0000000  0.6508444  3
   8347   8343   8344   8350     1  0.0000000  1.0460000  1
   8347   8343   8344   8350     1  0.0000000  0.0000000  3
   8347   8343   8351   8354     1  0.0000000  0.6973333  3
   8347   8343   8340   8352     1  0.0000000  1.0460000  1
   8347   8343   8340   8352     1  0.0000000  0.0000000  3
   8348   8345   8344   8350     1  0.0000000  0.6508444  3
   8357   8353   8359   8360     1  0.0000000  0.6973333  3
   8357   8353   8339   8361     1  0.0000000  1.0460000  1
   8357   8353   8339   8361     1  0.0000000  0.0000000  3
   8358   8353   8359   8360     1  0.0000000  0.6973333  3
   8358   8353   8339   8361     1  0.0000000  1.0460000  1
   8358   8353   8339   8361     1  0.0000000  0.0000000  3
   8362   8363   8366   8370     1  0.0000000  0.6508444  3
   8362   8363   8375   8378     1  0.0000000  1.0460000  1
   8362   8363   8375   8378     1  0.0000000  0.6694400  3
   8362   8376   8382   8383     1  0.0000000  1.0460000  1
   8362   8376   8382   8383     1  0.0000000  0.6694400  3
   8362   8384   8368   8371     1  0.0000000  1.6038667  3
   8363   8362   8376   8380     1  0.0000000  0.6508444  3
   8363   8362   8376   8381     1  0.0000000  0.6508444  3
   8363   8366   8367   8369     1  0.0000000  0.6508444  3
   8363   8366   8374   8377     1  0.0000000  1.0460000  1
   8363   8366   8374   8377     1  0.0000000  0.6694400  3
   8364   8362   8363   8366     1  0.0000000  0.6508444  3
   8364   8362   8363   8375     1  0.0000000  1.0460000  1
   8364   8362   8363   8375     1  0.0000000  0.0000000  3
   8364   8362   8363   8365     1  0.0000000  0.6508444  3
   8364   8362   8376   8382     1  0.0000000  1.0460000  1
   8364   8362   8376   8382     1  0.0000000  0.0000000  3
   8364   8362   8376   8380     1  0.0000000  0.6508444  3
   8364   8362   8376   8381     1  0.0000000  0.6508444  3
   8364   8362   8384   8368     1  0.0000000  1.6038667  3
   8365   8363   8362   8376     1  0.0000000  0.6508444  3
   8365   8363   8362   8384     1  0.0000000  1.0460000  1
   8365   8363   8362   8384     1  0.0000000  0.0000000  3
   8365   8363   8366   8367     1  0.0000000  0.6508444  3
   8365   8363   8366   8374     1  0.0000000  1.0460000  1
   8365   8363   8366   8374     1  0.0000000  0.0000000  3
   8365   8363   8366   8370     1  0.0000000  0.6508444  3
   8365   8363   8375   8378     1  0.0000000  0.6973333  3
   8366   8363   8375   8378     1  0.0000000  1.0460000  1
   8366   8363   8375   8378     1  0.0000000  0.6694400  3
   8366   8367   8368   8371     1  0.0000000  0.6508444  3
   8366   8367   8373   8379     1  0.0000000  1.0460000  1
   8366   8367   8373   8379     1  0.0000000  0.6694400  3
   8367   8366   8374   8377     1  0.0000000  1.0460000  1
   8367   8366   8374   8377     1  0.0000000  0.6694400  3
   8368   8367   8366   8370     1  0.0000000  0.6508444  3
   8368   8367   8373   8379     1  0.0000000  1.0460000  1
   8368   8367   8373   8379     1  0.0000000  0.6694400  3
   8369   8367   8366   8374     1  0.0000000  1.0460000  1
   8369   8367   8366   8374     1  0.0000000  0.0000000  3
   8369   8367   8366   8370     1  0.0000000  0.6508444  3
   8369   8367   8368   8372     1  0.0000000  1.0460000  1
   8369   8367   8368   8372     1  0.0000000  0.0000000  3
   8369   8367   8368   8384     1  0.0000000  1.0460000  1
   8369   8367   8368   8384     1  0.0000000  0.0000000  3
   8369   8367   8368   8371     1  0.0000000  0.6508444  3
   8369   8367   8373   8379     1  0.0000000  0.6973333  3
   8370   8366   8363   8375     1  0.0000000  1.0460000  1
   8370   8366   8363   8375     1  0.0000000  0.0000000  3
   8370   8366   8367   8373     1  0.0000000  1.0460000  1
   8370   8366   8367   8373     1  0.0000000  0.0000000  3
   8370   8366   8374   8377     1  0.0000000  0.6973333  3
   8371   8368   8367   8373     1  0.0000000  0.6508444  3
   8380   8376   8362   8384     1  0.0000000  1.0460000  1
   8380   8376   8362   8384     1  0.0000000  0.0000000  3
   8380   8376   8382   8383     1  0.0000000  0.6973333  3
   8381   8376   8362   8384     1  0.0000000  1.0460000  1
   8381   8376   8362   8384     1  0.0000000  0.0000000  3
   8381   8376   8382   8383     1  0.0000000  0.6973333  3
   8385   8386   8389   8393     1  0.0000000  0.6508444  3
   8385   8386   8398   8401     1  0.0000000  1.0460000  1
   8385   8386   8398   8401     1  0.0000000  0.6694400  3
   8385   8399   8405   8406     1  0.0000000  1.0460000  1
   8385   8399   8405   8406     1  0.0000000  0.6694400  3
   8385   8407   8391   8394     1  0.0000000  1.6038667  3
   8386   8389   8390   8392     1  0.0000000  0.6508444  3
   8386   8389   8397   8400     1  0.0000000  1.0460000  1
   8386   8389   8397   8400     1  0.0000000  0.6694400  3
   8386   8385   8399   8403     1  0.0000000  0.6508444  3
   8386   8385   8399   8404     1  0.0000000  0.6508444  3
   8387   8385   8386   8389     1  0.0000000  0.6508444  3
   8387   8385   8386   8398     1  0.0000000  1.0460000  1
   8387   8385   8386   8398     1  0.0000000  0.0000000  3
   8387   8385   8386   8388     1  0.0000000  0.6508444  3
   8387   8385   8399   8405     1  0.0000000  1.0460000  1
   8387   8385   8399   8405     1  0.0000000  0.0000000  3
   8387   8385   8399   8403     1  0.0000000  0.6508444  3
   8387   8385   8399   8404     1  0.0000000  0.6508444  3
   8387   8385   8407   8391     1  0.0000000  1.6038667  3
   8388   8386   8389   8390     1  0.0000000  0.6508444  3
   8388   8386   8389   8397     1  0.0000000  1.0460000  1
   8388   8386   8389   8397     1  0.0000000  0.0000000  3
   8388   8386   8389   8393     1  0.0000000  0.6508444  3
   8388   8386   8398   8401     1  0.0000000  0.6973333  3
   8388   8386   8385   8399     1  0.0000000  0.6508444  3
   8388   8386   8385   8407     1  0.0000000  1.0460000  1
   8388   8386   8385   8407     1  0.0000000  0.0000000  3
   8389   8390   8391   8394     1  0.0000000  0.6508444  3
   8389   8390   8396   8402     1  0.0000000  1.0460000  1
   8389   8390   8396   8402     1  0.0000000  0.6694400  3
   8389   8386   8398   8401     1  0.0000000  1.0460000  1
   8389   8386   8398   8401     1  0.0000000  0.6694400  3
   8390   8389   8397   8400     1  0.0000000  1.0460000  1
   8390   8389   8397   8400     1  0.0000000  0.6694400  3
   8391   8390   8396   8402     1  0.0000000  1.0460000  1
   8391   8390   8396   8402     1  0.0000000  0.6694400  3
   8391   8390   8389   8393     1  0.0000000  0.6508444  3
   8392   8390   8391   8395     1  0.0000000  1.0460000  1
   8392   8390   8391   8395     1  0.0000000  0.0000000  3
   8392   8390   8391   8407     1  0.0000000  1.0460000  1
   8392   8390   8391   8407     1  0.0000000  0.0000000  3
   8392   8390   8391   8394     1  0.0000000  0.6508444  3
   8392   8390   8396   8402     1  0.0000000  0.6973333  3
   8392   8390   8389   8397     1  0.0000000  1.0460000  1
   8392   8390   8389   8397     1  0.0000000  0.0000000  3
   8392   8390   8389   8393     1  0.0000000  0.6508444  3
   8393   8389   8390   8396     1  0.0000000  1.0460000  1
   8393   8389   8390   8396     1  0.0000000  0.0000000  3
   8393   8389   8397   8400     1  0.0000000  0.6973333  3
   8393   8389   8386   8398     1  0.0000000  1.0460000  1
   8393   8389   8386   8398     1  0.0000000  0.0000000  3
   8394   8391   8390   8396     1  0.0000000  0.6508444  3
   8403   8399   8405   8406     1  0.0000000  0.6973333  3
   8403   8399   8385   8407     1  0.0000000  1.0460000  1
   8403   8399   8385   8407     1  0.0000000  0.0000000  3
   8404   8399   8405   8406     1  0.0000000  0.6973333  3
   8404   8399   8385   8407     1  0.0000000  1.0460000  1
   8404   8399   8385   8407     1  0.0000000  0.0000000  3
   8408   8409   8412   8416     1  0.0000000  0.6508444  3
   8408   8409   8421   8424     1  0.0000000  1.0460000  1
   8408   8409   8421   8424     1  0.0000000  0.6694400  3
   8408   8422   8428   8429     1  0.0000000  1.0460000  1
   8408   8422   8428   8429     1  0.0000000  0.6694400  3
   8408   8430   8414   8417     1  0.0000000  1.6038667  3
   8409   8408   8422   8426     1  0.0000000  0.6508444  3
   8409   8408   8422   8427     1  0.0000000  0.6508444  3
   8409   8412   8413   8415     1  0.0000000  0.6508444  3
   8409   8412   8420   8423     1  0.0000000  1.0460000  1
   8409   8412   8420   8423     1  0.0000000  0.6694400  3
   8410   8408   8409   8412     1  0.0000000  0.6508444  3
   8410   8408   8409   8421     1  0.0000000  1.0460000  1
   8410   8408   8409   8421     1  0.0000000  0.0000000  3
   8410   8408   8409   8411     1  0.0000000  0.6508444  3
   8410   8408   8422   8428     1  0.0000000  1.0460000  1
   8410   8408   8422   8428     1  0.0000000  0.0000000  3
   8410   8408   8422   8426     1  0.0000000  0.6508444  3
   8410   8408   8422   8427     1  0.0000000  0.6508444  3
   8410   8408   8430   8414     1  0.0000000  1.6038667  3
   8411   8409   8408   8422     1  0.0000000  0.6508444  3
   8411   8409   8408   8430     1  0.0000000  1.0460000  1
   8411   8409   8408   8430     1  0.0000000  0.0000000  3
   8411   8409   8412   8413     1  0.0000000  0.6508444  3
   8411   8409   8412   8420     1  0.0000000  1.0460000  1
   8411   8409   8412   8420     1  0.0000000  0.0000000  3
   8411   8409   8412   8416     1  0.0000000  0.6508444  3
   8411   8409   8421   8424     1  0.0000000  0.6973333  3
   8412   8409   8421   8424     1  0.0000000  1.0460000  1
   8412   8409   8421   8424     1  0.0000000  0.6694400  3
   8412   8413   8414   8417     1  0.0000000  0.6508444  3
   8412   8413   8419   8425     1  0.0000000  1.0460000  1
   8412   8413   8419   8425     1  0.0000000  0.6694400  3
   8413   8412   8420   8423     1  0.0000000  1.0460000  1
   8413   8412   8420   8423     1  0.0000000  0.6694400  3
   8414   8413   8412   8416     1  0.0000000  0.6508444  3
   8414   8413   8419   8425     1  0.0000000  1.0460000  1
   8414   8413   8419   8425     1  0.0000000  0.6694400  3
   8415   8413   8412   8420     1  0.0000000  1.0460000  1
   8415   8413   8412   8420     1  0.0000000  0.0000000  3
   8415   8413   8412   8416     1  0.0000000  0.6508444  3
   8415   8413   8414   8418     1  0.0000000  1.0460000  1
   8415   8413   8414   8418     1  0.0000000  0.0000000  3
   8415   8413   8414   8430     1  0.0000000  1.0460000  1
   8415   8413   8414   8430     1  0.0000000  0.0000000  3
   8415   8413   8414   8417     1  0.0000000  0.6508444  3
   8415   8413   8419   8425     1  0.0000000  0.6973333  3
   8416   8412   8409   8421     1  0.0000000  1.0460000  1
   8416   8412   8409   8421     1  0.0000000  0.0000000  3
   8416   8412   8413   8419     1  0.0000000  1.0460000  1
   8416   8412   8413   8419     1  0.0000000  0.0000000  3
   8416   8412   8420   8423     1  0.0000000  0.6973333  3
   8417   8414   8413   8419     1  0.0000000  0.6508444  3
   8426   8422   8408   8430     1  0.0000000  1.0460000  1
   8426   8422   8408   8430     1  0.0000000  0.0000000  3
   8426   8422   8428   8429     1  0.0000000  0.6973333  3
   8427   8422   8408   8430     1  0.0000000  1.0460000  1
   8427   8422   8408   8430     1  0.0000000  0.0000000  3
   8427   8422   8428   8429     1  0.0000000  0.6973333  3
   8431   8432   8435   8439     1  0.0000000  0.6508444  3
   8431   8432   8444   8447     1  0.0000000  1.0460000  1
   8431   8432   8444   8447     1  0.0000000  0.6694400  3
   8431   8445   8451   8452     1  0.0000000  1.0460000  1
   8431   8445   8451   8452     1  0.0000000  0.6694400  3
   8431   8453   8437   8440     1  0.0000000  1.6038667  3
   8432   8435   8436   8438     1  0.0000000  0.6508444  3
   8432   8435   8443   8446     1  0.0000000  1.0460000  1
   8432   8435   8443   8446     1  0.0000000  0.6694400  3
   8432   8431   8445   8449     1  0.0000000  0.6508444  3
   8432   8431   8445   8450     1  0.0000000  0.6508444  3
   8433   8431   8432   8435     1  0.0000000  0.6508444  3
   8433   8431   8432   8444     1  0.0000000  1.0460000  1
   8433   8431   8432   8444     1  0.0000000  0.0000000  3
   8433   8431   8432   8434     1  0.0000000  0.6508444  3
   8433   8431   8445   8451     1  0.0000000  1.0460000  1
   8433   8431   8445   8451     1  0.0000000  0.0000000  3
   8433   8431   8445   8449     1  0.0000000  0.6508444  3
   8433   8431   8445   8450     1  0.0000000  0.6508444  3
   8433   8431   8453   8437     1  0.0000000  1.6038667  3
   8434   8432   8435   8436     1  0.0000000  0.6508444  3
   8434   8432   8435   8443     1  0.0000000  1.0460000  1
   8434   8432   8435   8443     1  0.0000000  0.0000000  3
   8434   8432   8435   8439     1  0.0000000  0.6508444  3
   8434   8432   8444   8447     1  0.0000000  0.6973333  3
   8434   8432   8431   8445     1  0.0000000  0.6508444  3
   8434   8432   8431   8453     1  0.0000000  1.0460000  1
   8434   8432   8431   8453     1  0.0000000  0.0000000  3
   8435   8436   8437   8440     1  0.0000000  0.6508444  3
   8435   8436   8442   8448     1  0.0000000  1.0460000  1
   8435   8436   8442   8448     1  0.0000000  0.6694400  3
   8435   8432   8444   8447     1  0.0000000  1.0460000  1
   8435   8432   8444   8447     1  0.0000000  0.6694400  3
   8436   8435   8443   8446     1  0.0000000  1.0460000  1
   8436   8435   8443   8446     1  0.0000000  0.6694400  3
   8437   8436   8442   8448     1  0.0000000  1.0460000  1
   8437   8436   8442   8448     1  0.0000000  0.6694400  3
   8437   8436   8435   8439     1  0.0000000  0.6508444  3
   8438   8436   8437   8441     1  0.0000000  1.0460000  1
   8438   8436   8437   8441     1  0.0000000  0.0000000  3
   8438   8436   8437   8453     1  0.0000000  1.0460000  1
   8438   8436   8437   8453     1  0.0000000  0.0000000  3
   8438   8436   8437   8440     1  0.0000000  0.6508444  3
   8438   8436   8442   8448     1  0.0000000  0.6973333  3
   8438   8436   8435   8443     1  0.0000000  1.0460000  1
   8438   8436   8435   8443     1  0.0000000  0.0000000  3
   8438   8436   8435   8439     1  0.0000000  0.6508444  3
   8439   8435   8436   8442     1  0.0000000  1.0460000  1
   8439   8435   8436   8442     1  0.0000000  0.0000000  3
   8439   8435   8443   8446     1  0.0000000  0.6973333  3
   8439   8435   8432   8444     1  0.0000000  1.0460000  1
   8439   8435   8432   8444     1  0.0000000  0.0000000  3
   8440   8437   8436   8442     1  0.0000000  0.6508444  3
   8449   8445   8451   8452     1  0.0000000  0.6973333  3
   8449   8445   8431   8453     1  0.0000000  1.0460000  1
   8449   8445   8431   8453     1  0.0000000  0.0000000  3
   8450   8445   8451   8452     1  0.0000000  0.6973333  3
   8450   8445   8431   8453     1  0.0000000  1.0460000  1
   8450   8445   8431   8453     1  0.0000000  0.0000000  3
   8454   8455   8458   8462     1  0.0000000  0.6508444  3
   8454   8455   8467   8470     1  0.0000000  1.0460000  1
   8454   8455   8467   8470     1  0.0000000  0.6694400  3
   8454   8468   8474   8475     1  0.0000000  1.0460000  1
   8454   8468   8474   8475     1  0.0000000  0.6694400  3
   8454   8476   8460   8463     1  0.0000000  1.6038667  3
   8455   8454   8468   8472     1  0.0000000  0.6508444  3
   8455   8454   8468   8473     1  0.0000000  0.6508444  3
   8455   8458   8459   8461     1  0.0000000  0.6508444  3
   8455   8458   8466   8469     1  0.0000000  1.0460000  1
   8455   8458   8466   8469     1  0.0000000  0.6694400  3
   8456   8454   8455   8458     1  0.0000000  0.6508444  3
   8456   8454   8455   8467     1  0.0000000  1.0460000  1
   8456   8454   8455   8467     1  0.0000000  0.0000000  3
   8456   8454   8455   8457     1  0.0000000  0.6508444  3
   8456   8454   8468   8474     1  0.0000000  1.0460000  1
   8456   8454   8468   8474     1  0.0000000  0.0000000  3
   8456   8454   8468   8472     1  0.0000000  0.6508444  3
   8456   8454   8468   8473     1  0.0000000  0.6508444  3
   8456   8454   8476   8460     1  0.0000000  1.6038667  3
   8457   8455   8454   8468     1  0.0000000  0.6508444  3
   8457   8455   8454   8476     1  0.0000000  1.0460000  1
   8457   8455   8454   8476     1  0.0000000  0.0000000  3
   8457   8455   8458   8459     1  0.0000000  0.6508444  3
   8457   8455   8458   8466     1  0.0000000  1.0460000  1
   8457   8455   8458   8466     1  0.0000000  0.0000000  3
   8457   8455   8458   8462     1  0.0000000  0.6508444  3
   8457   8455   8467   8470     1  0.0000000  0.6973333  3
   8458   8455   8467   8470     1  0.0000000  1.0460000  1
   8458   8455   8467   8470     1  0.0000000  0.6694400  3
   8458   8459   8460   8463     1  0.0000000  0.6508444  3
   8458   8459   8465   8471     1  0.0000000  1.0460000  1
   8458   8459   8465   8471     1  0.0000000  0.6694400  3
   8459   8458   8466   8469     1  0.0000000  1.0460000  1
   8459   8458   8466   8469     1  0.0000000  0.6694400  3
   8460   8459   8458   8462     1  0.0000000  0.6508444  3
   8460   8459   8465   8471     1  0.0000000  1.0460000  1
   8460   8459   8465   8471     1  0.0000000  0.6694400  3
   8461   8459   8458   8466     1  0.0000000  1.0460000  1
   8461   8459   8458   8466     1  0.0000000  0.0000000  3
   8461   8459   8458   8462     1  0.0000000  0.6508444  3
   8461   8459   8460   8464     1  0.0000000  1.0460000  1
   8461   8459   8460   8464     1  0.0000000  0.0000000  3
   8461   8459   8460   8476     1  0.0000000  1.0460000  1
   8461   8459   8460   8476     1  0.0000000  0.0000000  3
   8461   8459   8460   8463     1  0.0000000  0.6508444  3
   8461   8459   8465   8471     1  0.0000000  0.6973333  3
   8462   8458   8455   8467     1  0.0000000  1.0460000  1
   8462   8458   8455   8467     1  0.0000000  0.0000000  3
   8462   8458   8459   8465     1  0.0000000  1.0460000  1
   8462   8458   8459   8465     1  0.0000000  0.0000000  3
   8462   8458   8466   8469     1  0.0000000  0.6973333  3
   8463   8460   8459   8465     1  0.0000000  0.6508444  3
   8472   8468   8454   8476     1  0.0000000  1.0460000  1
   8472   8468   8454   8476     1  0.0000000  0.0000000  3
   8472   8468   8474   8475     1  0.0000000  0.6973333  3
   8473   8468   8454   8476     1  0.0000000  1.0460000  1
   8473   8468   8454   8476     1  0.0000000  0.0000000  3
   8473   8468   8474   8475     1  0.0000000  0.6973333  3
   8477   8478   8481   8485     1  0.0000000  0.6508444  3
   8477   8478   8490   8493     1  0.0000000  1.0460000  1
   8477   8478   8490   8493     1  0.0000000  0.6694400  3
   8477   8491   8497   8498     1  0.0000000  1.0460000  1
   8477   8491   8497   8498     1  0.0000000  0.6694400  3
   8477   8499   8483   8486     1  0.0000000  1.6038667  3
   8478   8481   8482   8484     1  0.0000000  0.6508444  3
   8478   8481   8489   8492     1  0.0000000  1.0460000  1
   8478   8481   8489   8492     1  0.0000000  0.6694400  3
   8478   8477   8491   8495     1  0.0000000  0.6508444  3
   8478   8477   8491   8496     1  0.0000000  0.6508444  3
   8479   8477   8478   8481     1  0.0000000  0.6508444  3
   8479   8477   8478   8490     1  0.0000000  1.0460000  1
   8479   8477   8478   8490     1  0.0000000  0.0000000  3
   8479   8477   8478   8480     1  0.0000000  0.6508444  3
   8479   8477   8491   8497     1  0.0000000  1.0460000  1
   8479   8477   8491   8497     1  0.0000000  0.0000000  3
   8479   8477   8491   8495     1  0.0000000  0.6508444  3
   8479   8477   8491   8496     1  0.0000000  0.6508444  3
   8479   8477   8499   8483     1  0.0000000  1.6038667  3
   8480   8478   8481   8482     1  0.0000000  0.6508444  3
   8480   8478   8481   8489     1  0.0000000  1.0460000  1
   8480   8478   8481   8489     1  0.0000000  0.0000000  3
   8480   8478   8481   8485     1  0.0000000  0.6508444  3
   8480   8478   8490   8493     1  0.0000000  0.6973333  3
   8480   8478   8477   8491     1  0.0000000  0.6508444  3
   8480   8478   8477   8499     1  0.0000000  1.0460000  1
   8480   8478   8477   8499     1  0.0000000  0.0000000  3
   8481   8482   8483   8486     1  0.0000000  0.6508444  3
   8481   8482   8488   8494     1  0.0000000  1.0460000  1
   8481   8482   8488   8494     1  0.0000000  0.6694400  3
   8481   8478   8490   8493     1  0.0000000  1.0460000  1
   8481   8478   8490   8493     1  0.0000000  0.6694400  3
   8482   8481   8489   8492     1  0.0000000  1.0460000  1
   8482   8481   8489   8492     1  0.0000000  0.6694400  3
   8483   8482   8488   8494     1  0.0000000  1.0460000  1
   8483   8482   8488   8494     1  0.0000000  0.6694400  3
   8483   8482   8481   8485     1  0.0000000  0.6508444  3
   8484   8482   8483   8487     1  0.0000000  1.0460000  1
   8484   8482   8483   8487     1  0.0000000  0.0000000  3
   8484   8482   8483   8499     1  0.0000000  1.0460000  1
   8484   8482   8483   8499     1  0.0000000  0.0000000  3
   8484   8482   8483   8486     1  0.0000000  0.6508444  3
   8484   8482   8488   8494     1  0.0000000  0.6973333  3
   8484   8482   8481   8489     1  0.0000000  1.0460000  1
   8484   8482   8481   8489     1  0.0000000  0.0000000  3
   8484   8482   8481   8485     1  0.0000000  0.6508444  3
   8485   8481   8482   8488     1  0.0000000  1.0460000  1
   8485   8481   8482   8488     1  0.0000000  0.0000000  3
   8485   8481   8489   8492     1  0.0000000  0.6973333  3
   8485   8481   8478   8490     1  0.0000000  1.0460000  1
   8485   8481   8478   8490     1  0.0000000  0.0000000  3
   8486   8483   8482   8488     1  0.0000000  0.6508444  3
   8495   8491   8497   8498     1  0.0000000  0.6973333  3
   8495   8491   8477   8499     1  0.0000000  1.0460000  1
   8495   8491   8477   8499     1  0.0000000  0.0000000  3
   8496   8491   8497   8498     1  0.0000000  0.6973333  3
   8496   8491   8477   8499     1  0.0000000  1.0460000  1
   8496   8491   8477   8499     1  0.0000000  0.0000000  3
   8500   8501   8504   8508     1  0.0000000  0.6508444  3
   8500   8501   8513   8516     1  0.0000000  1.0460000  1
   8500   8501   8513   8516     1  0.0000000  0.6694400  3
   8500   8514   8520   8521     1  0.0000000  1.0460000  1
   8500   8514   8520   8521     1  0.0000000  0.6694400  3
   8500   8522   8506   8509     1  0.0000000  1.6038667  3
   8501   8500   8514   8518     1  0.0000000  0.6508444  3
   8501   8500   8514   8519     1  0.0000000  0.6508444  3
   8501   8504   8505   8507     1  0.0000000  0.6508444  3
   8501   8504   8512   8515     1  0.0000000  1.0460000  1
   8501   8504   8512   8515     1  0.0000000  0.6694400  3
   8502   8500   8501   8504     1  0.0000000  0.6508444  3
   8502   8500   8501   8513     1  0.0000000  1.0460000  1
   8502   8500   8501   8513     1  0.0000000  0.0000000  3
   8502   8500   8501   8503     1  0.0000000  0.6508444  3
   8502   8500   8514   8520     1  0.0000000  1.0460000  1
   8502   8500   8514   8520     1  0.0000000  0.0000000  3
   8502   8500   8514   8518     1  0.0000000  0.6508444  3
   8502   8500   8514   8519     1  0.0000000  0.6508444  3
   8502   8500   8522   8506     1  0.0000000  1.6038667  3
   8503   8501   8500   8514     1  0.0000000  0.6508444  3
   8503   8501   8500   8522     1  0.0000000  1.0460000  1
   8503   8501   8500   8522     1  0.0000000  0.0000000  3
   8503   8501   8504   8505     1  0.0000000  0.6508444  3
   8503   8501   8504   8512     1  0.0000000  1.0460000  1
   8503   8501   8504   8512     1  0.0000000  0.0000000  3
   8503   8501   8504   8508     1  0.0000000  0.6508444  3
   8503   8501   8513   8516     1  0.0000000  0.6973333  3
   8504   8501   8513   8516     1  0.0000000  1.0460000  1
   8504   8501   8513   8516     1  0.0000000  0.6694400  3
   8504   8505   8506   8509     1  0.0000000  0.6508444  3
   8504   8505   8511   8517     1  0.0000000  1.0460000  1
   8504   8505   8511   8517     1  0.0000000  0.6694400  3
   8505   8504   8512   8515     1  0.0000000  1.0460000  1
   8505   8504   8512   8515     1  0.0000000  0.6694400  3
   8506   8505   8504   8508     1  0.0000000  0.6508444  3
   8506   8505   8511   8517     1  0.0000000  1.0460000  1
   8506   8505   8511   8517     1  0.0000000  0.6694400  3
   8507   8505   8504   8512     1  0.0000000  1.0460000  1
   8507   8505   8504   8512     1  0.0000000  0.0000000  3
   8507   8505   8504   8508     1  0.0000000  0.6508444  3
   8507   8505   8506   8510     1  0.0000000  1.0460000  1
   8507   8505   8506   8510     1  0.0000000  0.0000000  3
   8507   8505   8506   8522     1  0.0000000  1.0460000  1
   8507   8505   8506   8522     1  0.0000000  0.0000000  3
   8507   8505   8506   8509     1  0.0000000  0.6508444  3
   8507   8505   8511   8517     1  0.0000000  0.6973333  3
   8508   8504   8501   8513     1  0.0000000  1.0460000  1
   8508   8504   8501   8513     1  0.0000000  0.0000000  3
   8508   8504   8505   8511     1  0.0000000  1.0460000  1
   8508   8504   8505   8511     1  0.0000000  0.0000000  3
   8508   8504   8512   8515     1  0.0000000  0.6973333  3
   8509   8506   8505   8511     1  0.0000000  0.6508444  3
   8518   8514   8500   8522     1  0.0000000  1.0460000  1
   8518   8514   8500   8522     1  0.0000000  0.0000000  3
   8518   8514   8520   8521     1  0.0000000  0.6973333  3
   8519   8514   8500   8522     1  0.0000000  1.0460000  1
   8519   8514   8500   8522     1  0.0000000  0.0000000  3
   8519   8514   8520   8521     1  0.0000000  0.6973333  3
   8523   8524   8527   8531     1  0.0000000  0.6508444  3
   8523   8524   8536   8539     1  0.0000000  1.0460000  1
   8523   8524   8536   8539     1  0.0000000  0.6694400  3
   8523   8537   8543   8544     1  0.0000000  1.0460000  1
   8523   8537   8543   8544     1  0.0000000  0.6694400  3
   8523   8545   8529   8532     1  0.0000000  1.6038667  3
   8524   8527   8528   8530     1  0.0000000  0.6508444  3
   8524   8527   8535   8538     1  0.0000000  1.0460000  1
   8524   8527   8535   8538     1  0.0000000  0.6694400  3
   8524   8523   8537   8541     1  0.0000000  0.6508444  3
   8524   8523   8537   8542     1  0.0000000  0.6508444  3
   8525   8523   8524   8527     1  0.0000000  0.6508444  3
   8525   8523   8524   8536     1  0.0000000  1.0460000  1
   8525   8523   8524   8536     1  0.0000000  0.0000000  3
   8525   8523   8524   8526     1  0.0000000  0.6508444  3
   8525   8523   8537   8543     1  0.0000000  1.0460000  1
   8525   8523   8537   8543     1  0.0000000  0.0000000  3
   8525   8523   8537   8541     1  0.0000000  0.6508444  3
   8525   8523   8537   8542     1  0.0000000  0.6508444  3
   8525   8523   8545   8529     1  0.0000000  1.6038667  3
   8526   8524   8527   8528     1  0.0000000  0.6508444  3
   8526   8524   8527   8535     1  0.0000000  1.0460000  1
   8526   8524   8527   8535     1  0.0000000  0.0000000  3
   8526   8524   8527   8531     1  0.0000000  0.6508444  3
   8526   8524   8536   8539     1  0.0000000  0.6973333  3
   8526   8524   8523   8537     1  0.0000000  0.6508444  3
   8526   8524   8523   8545     1  0.0000000  1.0460000  1
   8526   8524   8523   8545     1  0.0000000  0.0000000  3
   8527   8528   8529   8532     1  0.0000000  0.6508444  3
   8527   8528   8534   8540     1  0.0000000  1.0460000  1
   8527   8528   8534   8540     1  0.0000000  0.6694400  3
   8527   8524   8536   8539     1  0.0000000  1.0460000  1
   8527   8524   8536   8539     1  0.0000000  0.6694400  3
   8528   8527   8535   8538     1  0.0000000  1.0460000  1
   8528   8527   8535   8538     1  0.0000000  0.6694400  3
   8529   8528   8534   8540     1  0.0000000  1.0460000  1
   8529   8528   8534   8540     1  0.0000000  0.6694400  3
   8529   8528   8527   8531     1  0.0000000  0.6508444  3
   8530   8528   8529   8533     1  0.0000000  1.0460000  1
   8530   8528   8529   8533     1  0.0000000  0.0000000  3
   8530   8528   8529   8545     1  0.0000000  1.0460000  1
   8530   8528   8529   8545     1  0.0000000  0.0000000  3
   8530   8528   8529   8532     1  0.0000000  0.6508444  3
   8530   8528   8534   8540     1  0.0000000  0.6973333  3
   8530   8528   8527   8535     1  0.0000000  1.0460000  1
   8530   8528   8527   8535     1  0.0000000  0.0000000  3
   8530   8528   8527   8531     1  0.0000000  0.6508444  3
   8531   8527   8528   8534     1  0.0000000  1.0460000  1
   8531   8527   8528   8534     1  0.0000000  0.0000000  3
   8531   8527   8535   8538     1  0.0000000  0.6973333  3
   8531   8527   8524   8536     1  0.0000000  1.0460000  1
   8531   8527   8524   8536     1  0.0000000  0.0000000  3
   8532   8529   8528   8534     1  0.0000000  0.6508444  3
   8541   8537   8543   8544     1  0.0000000  0.6973333  3
   8541   8537   8523   8545     1  0.0000000  1.0460000  1
   8541   8537   8523   8545     1  0.0000000  0.0000000  3
   8542   8537   8543   8544     1  0.0000000  0.6973333  3
   8542   8537   8523   8545     1  0.0000000  1.0460000  1
   8542   8537   8523   8545     1  0.0000000  0.0000000  3
   8546   8547   8550   8554     1  0.0000000  0.6508444  3
   8546   8547   8559   8562     1  0.0000000  1.0460000  1
   8546   8547   8559   8562     1  0.0000000  0.6694400  3
   8546   8560   8566   8567     1  0.0000000  1.0460000  1
   8546   8560   8566   8567     1  0.0000000  0.6694400  3
   8546   8568   8552   8555     1  0.0000000  1.6038667  3
   8547   8546   8560   8564     1  0.0000000  0.6508444  3
   8547   8546   8560   8565     1  0.0000000  0.6508444  3
   8547   8550   8551   8553     1  0.0000000  0.6508444  3
   8547   8550   8558   8561     1  0.0000000  1.0460000  1
   8547   8550   8558   8561     1  0.0000000  0.6694400  3
   8548   8546   8547   8550     1  0.0000000  0.6508444  3
   8548   8546   8547   8559     1  0.0000000  1.0460000  1
   8548   8546   8547   8559     1  0.0000000  0.0000000  3
   8548   8546   8547   8549     1  0.0000000  0.6508444  3
   8548   8546   8560   8566     1  0.0000000  1.0460000  1
   8548   8546   8560   8566     1  0.0000000  0.0000000  3
   8548   8546   8560   8564     1  0.0000000  0.6508444  3
   8548   8546   8560   8565     1  0.0000000  0.6508444  3
   8548   8546   8568   8552     1  0.0000000  1.6038667  3
   8549   8547   8546   8560     1  0.0000000  0.6508444  3
   8549   8547   8546   8568     1  0.0000000  1.0460000  1
   8549   8547   8546   8568     1  0.0000000  0.0000000  3
   8549   8547   8550   8551     1  0.0000000  0.6508444  3
   8549   8547   8550   8558     1  0.0000000  1.0460000  1
   8549   8547   8550   8558     1  0.0000000  0.0000000  3
   8549   8547   8550   8554     1  0.0000000  0.6508444  3
   8549   8547   8559   8562     1  0.0000000  0.6973333  3
   8550   8547   8559   8562     1  0.0000000  1.0460000  1
   8550   8547   8559   8562     1  0.0000000  0.6694400  3
   8550   8551   8552   8555     1  0.0000000  0.6508444  3
   8550   8551   8557   8563     1  0.0000000  1.0460000  1
   8550   8551   8557   8563     1  0.0000000  0.6694400  3
   8551   8550   8558   8561     1  0.0000000  1.0460000  1
   8551   8550   8558   8561     1  0.0000000  0.6694400  3
   8552   8551   8550   8554     1  0.0000000  0.6508444  3
   8552   8551   8557   8563     1  0.0000000  1.0460000  1
   8552   8551   8557   8563     1  0.0000000  0.6694400  3
   8553   8551   8550   8558     1  0.0000000  1.0460000  1
   8553   8551   8550   8558     1  0.0000000  0.0000000  3
   8553   8551   8550   8554     1  0.0000000  0.6508444  3
   8553   8551   8552   8556     1  0.0000000  1.0460000  1
   8553   8551   8552   8556     1  0.0000000  0.0000000  3
   8553   8551   8552   8568     1  0.0000000  1.0460000  1
   8553   8551   8552   8568     1  0.0000000  0.0000000  3
   8553   8551   8552   8555     1  0.0000000  0.6508444  3
   8553   8551   8557   8563     1  0.0000000  0.6973333  3
   8554   8550   8547   8559     1  0.0000000  1.0460000  1
   8554   8550   8547   8559     1  0.0000000  0.0000000  3
   8554   8550   8551   8557     1  0.0000000  1.0460000  1
   8554   8550   8551   8557     1  0.0000000  0.0000000  3
   8554   8550   8558   8561     1  0.0000000  0.6973333  3
   8555   8552   8551   8557     1  0.0000000  0.6508444  3
   8564   8560   8546   8568     1  0.0000000  1.0460000  1
   8564   8560   8546   8568     1  0.0000000  0.0000000  3
   8564   8560   8566   8567     1  0.0000000  0.6973333  3
   8565   8560   8546   8568     1  0.0000000  1.0460000  1
   8565   8560   8546   8568     1  0.0000000  0.0000000  3
   8565   8560   8566   8567     1  0.0000000  0.6973333  3
   8569   8570   8573   8577     1  0.0000000  0.6508444  3
   8569   8570   8582   8585     1  0.0000000  1.0460000  1
   8569   8570   8582   8585     1  0.0000000  0.6694400  3
   8569   8583   8589   8590     1  0.0000000  1.0460000  1
   8569   8583   8589   8590     1  0.0000000  0.6694400  3
   8569   8591   8575   8578     1  0.0000000  1.6038667  3
   8570   8573   8574   8576     1  0.0000000  0.6508444  3
   8570   8573   8581   8584     1  0.0000000  1.0460000  1
   8570   8573   8581   8584     1  0.0000000  0.6694400  3
   8570   8569   8583   8587     1  0.0000000  0.6508444  3
   8570   8569   8583   8588     1  0.0000000  0.6508444  3
   8571   8569   8570   8573     1  0.0000000  0.6508444  3
   8571   8569   8570   8582     1  0.0000000  1.0460000  1
   8571   8569   8570   8582     1  0.0000000  0.0000000  3
   8571   8569   8570   8572     1  0.0000000  0.6508444  3
   8571   8569   8583   8589     1  0.0000000  1.0460000  1
   8571   8569   8583   8589     1  0.0000000  0.0000000  3
   8571   8569   8583   8587     1  0.0000000  0.6508444  3
   8571   8569   8583   8588     1  0.0000000  0.6508444  3
   8571   8569   8591   8575     1  0.0000000  1.6038667  3
   8572   8570   8573   8574     1  0.0000000  0.6508444  3
   8572   8570   8573   8581     1  0.0000000  1.0460000  1
   8572   8570   8573   8581     1  0.0000000  0.0000000  3
   8572   8570   8573   8577     1  0.0000000  0.6508444  3
   8572   8570   8582   8585     1  0.0000000  0.6973333  3
   8572   8570   8569   8583     1  0.0000000  0.6508444  3
   8572   8570   8569   8591     1  0.0000000  1.0460000  1
   8572   8570   8569   8591     1  0.0000000  0.0000000  3
   8573   8574   8575   8578     1  0.0000000  0.6508444  3
   8573   8574   8580   8586     1  0.0000000  1.0460000  1
   8573   8574   8580   8586     1  0.0000000  0.6694400  3
   8573   8570   8582   8585     1  0.0000000  1.0460000  1
   8573   8570   8582   8585     1  0.0000000  0.6694400  3
   8574   8573   8581   8584     1  0.0000000  1.0460000  1
   8574   8573   8581   8584     1  0.0000000  0.6694400  3
   8575   8574   8580   8586     1  0.0000000  1.0460000  1
   8575   8574   8580   8586     1  0.0000000  0.6694400  3
   8575   8574   8573   8577     1  0.0000000  0.6508444  3
   8576   8574   8575   8579     1  0.0000000  1.0460000  1
   8576   8574   8575   8579     1  0.0000000  0.0000000  3
   8576   8574   8575   8591     1  0.0000000  1.0460000  1
   8576   8574   8575   8591     1  0.0000000  0.0000000  3
   8576   8574   8575   8578     1  0.0000000  0.6508444  3
   8576   8574   8580   8586     1  0.0000000  0.6973333  3
   8576   8574   8573   8581     1  0.0000000  1.0460000  1
   8576   8574   8573   8581     1  0.0000000  0.0000000  3
   8576   8574   8573   8577     1  0.0000000  0.6508444  3
   8577   8573   8574   8580     1  0.0000000  1.0460000  1
   8577   8573   8574   8580     1  0.0000000  0.0000000  3
   8577   8573   8581   8584     1  0.0000000  0.6973333  3
   8577   8573   8570   8582     1  0.0000000  1.0460000  1
   8577   8573   8570   8582     1  0.0000000  0.0000000  3
   8578   8575   8574   8580     1  0.0000000  0.6508444  3
   8587   8583   8589   8590     1  0.0000000  0.6973333  3
   8587   8583   8569   8591     1  0.0000000  1.0460000  1
   8587   8583   8569   8591     1  0.0000000  0.0000000  3
   8588   8583   8589   8590     1  0.0000000  0.6973333  3
   8588   8583   8569   8591     1  0.0000000  1.0460000  1
   8588   8583   8569   8591     1  0.0000000  0.0000000  3
   8592   8593   8596   8600     1  0.0000000  0.6508444  3
   8592   8593   8605   8608     1  0.0000000  1.0460000  1
   8592   8593   8605   8608     1  0.0000000  0.6694400  3
   8592   8606   8612   8613     1  0.0000000  1.0460000  1
   8592   8606   8612   8613     1  0.0000000  0.6694400  3
   8592   8614   8598   8601     1  0.0000000  1.6038667  3
   8593   8592   8606   8610     1  0.0000000  0.6508444  3
   8593   8592   8606   8611     1  0.0000000  0.6508444  3
   8593   8596   8597   8599     1  0.0000000  0.6508444  3
   8593   8596   8604   8607     1  0.0000000  1.0460000  1
   8593   8596   8604   8607     1  0.0000000  0.6694400  3
   8594   8592   8593   8596     1  0.0000000  0.6508444  3
   8594   8592   8593   8605     1  0.0000000  1.0460000  1
   8594   8592   8593   8605     1  0.0000000  0.0000000  3
   8594   8592   8593   8595     1  0.0000000  0.6508444  3
   8594   8592   8606   8612     1  0.0000000  1.0460000  1
   8594   8592   8606   8612     1  0.0000000  0.0000000  3
   8594   8592   8606   8610     1  0.0000000  0.6508444  3
   8594   8592   8606   8611     1  0.0000000  0.6508444  3
   8594   8592   8614   8598     1  0.0000000  1.6038667  3
   8595   8593   8592   8606     1  0.0000000  0.6508444  3
   8595   8593   8592   8614     1  0.0000000  1.0460000  1
   8595   8593   8592   8614     1  0.0000000  0.0000000  3
   8595   8593   8596   8597     1  0.0000000  0.6508444  3
   8595   8593   8596   8604     1  0.0000000  1.0460000  1
   8595   8593   8596   8604     1  0.0000000  0.0000000  3
   8595   8593   8596   8600     1  0.0000000  0.6508444  3
   8595   8593   8605   8608     1  0.0000000  0.6973333  3
   8596   8593   8605   8608     1  0.0000000  1.0460000  1
   8596   8593   8605   8608     1  0.0000000  0.6694400  3
   8596   8597   8598   8601     1  0.0000000  0.6508444  3
   8596   8597   8603   8609     1  0.0000000  1.0460000  1
   8596   8597   8603   8609     1  0.0000000  0.6694400  3
   8597   8596   8604   8607     1  0.0000000  1.0460000  1
   8597   8596   8604   8607     1  0.0000000  0.6694400  3
   8598   8597   8596   8600     1  0.0000000  0.6508444  3
   8598   8597   8603   8609     1  0.0000000  1.0460000  1
   8598   8597   8603   8609     1  0.0000000  0.6694400  3
   8599   8597   8596   8604     1  0.0000000  1.0460000  1
   8599   8597   8596   8604     1  0.0000000  0.0000000  3
   8599   8597   8596   8600     1  0.0000000  0.6508444  3
   8599   8597   8598   8602     1  0.0000000  1.0460000  1
   8599   8597   8598   8602     1  0.0000000  0.0000000  3
   8599   8597   8598   8614     1  0.0000000  1.0460000  1
   8599   8597   8598   8614     1  0.0000000  0.0000000  3
   8599   8597   8598   8601     1  0.0000000  0.6508444  3
   8599   8597   8603   8609     1  0.0000000  0.6973333  3
   8600   8596   8593   8605     1  0.0000000  1.0460000  1
   8600   8596   8593   8605     1  0.0000000  0.0000000  3
   8600   8596   8597   8603     1  0.0000000  1.0460000  1
   8600   8596   8597   8603     1  0.0000000  0.0000000  3
   8600   8596   8604   8607     1  0.0000000  0.6973333  3
   8601   8598   8597   8603     1  0.0000000  0.6508444  3
   8610   8606   8592   8614     1  0.0000000  1.0460000  1
   8610   8606   8592   8614     1  0.0000000  0.0000000  3
   8610   8606   8612   8613     1  0.0000000  0.6973333  3
   8611   8606   8592   8614     1  0.0000000  1.0460000  1
   8611   8606   8592   8614     1  0.0000000  0.0000000  3
   8611   8606   8612   8613     1  0.0000000  0.6973333  3
   8615   8616   8619   8623     1  0.0000000  0.6508444  3
   8615   8616   8628   8631     1  0.0000000  1.0460000  1
   8615   8616   8628   8631     1  0.0000000  0.6694400  3
   8615   8629   8635   8636     1  0.0000000  1.0460000  1
   8615   8629   8635   8636     1  0.0000000  0.6694400  3
   8615   8637   8621   8624     1  0.0000000  1.6038667  3
   8616   8619   8620   8622     1  0.0000000  0.6508444  3
   8616   8619   8627   8630     1  0.0000000  1.0460000  1
   8616   8619   8627   8630     1  0.0000000  0.6694400  3
   8616   8615   8629   8633     1  0.0000000  0.6508444  3
   8616   8615   8629   8634     1  0.0000000  0.6508444  3
   8617   8615   8616   8619     1  0.0000000  0.6508444  3
   8617   8615   8616   8628     1  0.0000000  1.0460000  1
   8617   8615   8616   8628     1  0.0000000  0.0000000  3
   8617   8615   8616   8618     1  0.0000000  0.6508444  3
   8617   8615   8629   8635     1  0.0000000  1.0460000  1
   8617   8615   8629   8635     1  0.0000000  0.0000000  3
   8617   8615   8629   8633     1  0.0000000  0.6508444  3
   8617   8615   8629   8634     1  0.0000000  0.6508444  3
   8617   8615   8637   8621     1  0.0000000  1.6038667  3
   8618   8616   8619   8620     1  0.0000000  0.6508444  3
   8618   8616   8619   8627     1  0.0000000  1.0460000  1
   8618   8616   8619   8627     1  0.0000000  0.0000000  3
   8618   8616   8619   8623     1  0.0000000  0.6508444  3
   8618   8616   8628   8631     1  0.0000000  0.6973333  3
   8618   8616   8615   8629     1  0.0000000  0.6508444  3
   8618   8616   8615   8637     1  0.0000000  1.0460000  1
   8618   8616   8615   8637     1  0.0000000  0.0000000  3
   8619   8620   8621   8624     1  0.0000000  0.6508444  3
   8619   8620   8626   8632     1  0.0000000  1.0460000  1
   8619   8620   8626   8632     1  0.0000000  0.6694400  3
   8619   8616   8628   8631     1  0.0000000  1.0460000  1
   8619   8616   8628   8631     1  0.0000000  0.6694400  3
   8620   8619   8627   8630     1  0.0000000  1.0460000  1
   8620   8619   8627   8630     1  0.0000000  0.6694400  3
   8621   8620   8626   8632     1  0.0000000  1.0460000  1
   8621   8620   8626   8632     1  0.0000000  0.6694400  3
   8621   8620   8619   8623     1  0.0000000  0.6508444  3
   8622   8620   8621   8625     1  0.0000000  1.0460000  1
   8622   8620   8621   8625     1  0.0000000  0.0000000  3
   8622   8620   8621   8637     1  0.0000000  1.0460000  1
   8622   8620   8621   8637     1  0.0000000  0.0000000  3
   8622   8620   8621   8624     1  0.0000000  0.6508444  3
   8622   8620   8626   8632     1  0.0000000  0.6973333  3
   8622   8620   8619   8627     1  0.0000000  1.0460000  1
   8622   8620   8619   8627     1  0.0000000  0.0000000  3
   8622   8620   8619   8623     1  0.0000000  0.6508444  3
   8623   8619   8620   8626     1  0.0000000  1.0460000  1
   8623   8619   8620   8626     1  0.0000000  0.0000000  3
   8623   8619   8627   8630     1  0.0000000  0.6973333  3
   8623   8619   8616   8628     1  0.0000000  1.0460000  1
   8623   8619   8616   8628     1  0.0000000  0.0000000  3
   8624   8621   8620   8626     1  0.0000000  0.6508444  3
   8633   8629   8635   8636     1  0.0000000  0.6973333  3
   8633   8629   8615   8637     1  0.0000000  1.0460000  1
   8633   8629   8615   8637     1  0.0000000  0.0000000  3
   8634   8629   8635   8636     1  0.0000000  0.6973333  3
   8634   8629   8615   8637     1  0.0000000  1.0460000  1
   8634   8629   8615   8637     1  0.0000000  0.0000000  3
   8638   8639   8642   8646     1  0.0000000  0.6508444  3
   8638   8639   8651   8654     1  0.0000000  1.0460000  1
   8638   8639   8651   8654     1  0.0000000  0.6694400  3
   8638   8652   8658   8659     1  0.0000000  1.0460000  1
   8638   8652   8658   8659     1  0.0000000  0.6694400  3
   8638   8660   8644   8647     1  0.0000000  1.6038667  3
   8639   8638   8652   8656     1  0.0000000  0.6508444  3
   8639   8638   8652   8657     1  0.0000000  0.6508444  3
   8639   8642   8643   8645     1  0.0000000  0.6508444  3
   8639   8642   8650   8653     1  0.0000000  1.0460000  1
   8639   8642   8650   8653     1  0.0000000  0.6694400  3
   8640   8638   8639   8642     1  0.0000000  0.6508444  3
   8640   8638   8639   8651     1  0.0000000  1.0460000  1
   8640   8638   8639   8651     1  0.0000000  0.0000000  3
   8640   8638   8639   8641     1  0.0000000  0.6508444  3
   8640   8638   8652   8658     1  0.0000000  1.0460000  1
   8640   8638   8652   8658     1  0.0000000  0.0000000  3
   8640   8638   8652   8656     1  0.0000000  0.6508444  3
   8640   8638   8652   8657     1  0.0000000  0.6508444  3
   8640   8638   8660   8644     1  0.0000000  1.6038667  3
   8641   8639   8638   8652     1  0.0000000  0.6508444  3
   8641   8639   8638   8660     1  0.0000000  1.0460000  1
   8641   8639   8638   8660     1  0.0000000  0.0000000  3
   8641   8639   8642   8643     1  0.0000000  0.6508444  3
   8641   8639   8642   8650     1  0.0000000  1.0460000  1
   8641   8639   8642   8650     1  0.0000000  0.0000000  3
   8641   8639   8642   8646     1  0.0000000  0.6508444  3
   8641   8639   8651   8654     1  0.0000000  0.6973333  3
   8642   8639   8651   8654     1  0.0000000  1.0460000  1
   8642   8639   8651   8654     1  0.0000000  0.6694400  3
   8642   8643   8644   8647     1  0.0000000  0.6508444  3
   8642   8643   8649   8655     1  0.0000000  1.0460000  1
   8642   8643   8649   8655     1  0.0000000  0.6694400  3
   8643   8642   8650   8653     1  0.0000000  1.0460000  1
   8643   8642   8650   8653     1  0.0000000  0.6694400  3
   8644   8643   8642   8646     1  0.0000000  0.6508444  3
   8644   8643   8649   8655     1  0.0000000  1.0460000  1
   8644   8643   8649   8655     1  0.0000000  0.6694400  3
   8645   8643   8642   8650     1  0.0000000  1.0460000  1
   8645   8643   8642   8650     1  0.0000000  0.0000000  3
   8645   8643   8642   8646     1  0.0000000  0.6508444  3
   8645   8643   8644   8648     1  0.0000000  1.0460000  1
   8645   8643   8644   8648     1  0.0000000  0.0000000  3
   8645   8643   8644   8660     1  0.0000000  1.0460000  1
   8645   8643   8644   8660     1  0.0000000  0.0000000  3
   8645   8643   8644   8647     1  0.0000000  0.6508444  3
   8645   8643   8649   8655     1  0.0000000  0.6973333  3
   8646   8642   8639   8651     1  0.0000000  1.0460000  1
   8646   8642   8639   8651     1  0.0000000  0.0000000  3
   8646   8642   8643   8649     1  0.0000000  1.0460000  1
   8646   8642   8643   8649     1  0.0000000  0.0000000  3
   8646   8642   8650   8653     1  0.0000000  0.6973333  3
   8647   8644   8643   8649     1  0.0000000  0.6508444  3
   8656   8652   8638   8660     1  0.0000000  1.0460000  1
   8656   8652   8638   8660     1  0.0000000  0.0000000  3
   8656   8652   8658   8659     1  0.0000000  0.6973333  3
   8657   8652   8638   8660     1  0.0000000  1.0460000  1
   8657   8652   8638   8660     1  0.0000000  0.0000000  3
   8657   8652   8658   8659     1  0.0000000  0.6973333  3
   8661   8662   8665   8669     1  0.0000000  0.6508444  3
   8661   8662   8674   8677     1  0.0000000  1.0460000  1
   8661   8662   8674   8677     1  0.0000000  0.6694400  3
   8661   8675   8681   8682     1  0.0000000  1.0460000  1
   8661   8675   8681   8682     1  0.0000000  0.6694400  3
   8661   8683   8667   8670     1  0.0000000  1.6038667  3
   8662   8665   8666   8668     1  0.0000000  0.6508444  3
   8662   8665   8673   8676     1  0.0000000  1.0460000  1
   8662   8665   8673   8676     1  0.0000000  0.6694400  3
   8662   8661   8675   8679     1  0.0000000  0.6508444  3
   8662   8661   8675   8680     1  0.0000000  0.6508444  3
   8663   8661   8662   8665     1  0.0000000  0.6508444  3
   8663   8661   8662   8674     1  0.0000000  1.0460000  1
   8663   8661   8662   8674     1  0.0000000  0.0000000  3
   8663   8661   8662   8664     1  0.0000000  0.6508444  3
   8663   8661   8675   8681     1  0.0000000  1.0460000  1
   8663   8661   8675   8681     1  0.0000000  0.0000000  3
   8663   8661   8675   8679     1  0.0000000  0.6508444  3
   8663   8661   8675   8680     1  0.0000000  0.6508444  3
   8663   8661   8683   8667     1  0.0000000  1.6038667  3
   8664   8662   8665   8666     1  0.0000000  0.6508444  3
   8664   8662   8665   8673     1  0.0000000  1.0460000  1
   8664   8662   8665   8673     1  0.0000000  0.0000000  3
   8664   8662   8665   8669     1  0.0000000  0.6508444  3
   8664   8662   8674   8677     1  0.0000000  0.6973333  3
   8664   8662   8661   8675     1  0.0000000  0.6508444  3
   8664   8662   8661   8683     1  0.0000000  1.0460000  1
   8664   8662   8661   8683     1  0.0000000  0.0000000  3
   8665   8666   8667   8670     1  0.0000000  0.6508444  3
   8665   8666   8672   8678     1  0.0000000  1.0460000  1
   8665   8666   8672   8678     1  0.0000000  0.6694400  3
   8665   8662   8674   8677     1  0.0000000  1.0460000  1
   8665   8662   8674   8677     1  0.0000000  0.6694400  3
   8666   8665   8673   8676     1  0.0000000  1.0460000  1
   8666   8665   8673   8676     1  0.0000000  0.6694400  3
   8667   8666   8672   8678     1  0.0000000  1.0460000  1
   8667   8666   8672   8678     1  0.0000000  0.6694400  3
   8667   8666   8665   8669     1  0.0000000  0.6508444  3
   8668   8666   8667   8671     1  0.0000000  1.0460000  1
   8668   8666   8667   8671     1  0.0000000  0.0000000  3
   8668   8666   8667   8683     1  0.0000000  1.0460000  1
   8668   8666   8667   8683     1  0.0000000  0.0000000  3
   8668   8666   8667   8670     1  0.0000000  0.6508444  3
   8668   8666   8672   8678     1  0.0000000  0.6973333  3
   8668   8666   8665   8673     1  0.0000000  1.0460000  1
   8668   8666   8665   8673     1  0.0000000  0.0000000  3
   8668   8666   8665   8669     1  0.0000000  0.6508444  3
   8669   8665   8666   8672     1  0.0000000  1.0460000  1
   8669   8665   8666   8672     1  0.0000000  0.0000000  3
   8669   8665   8673   8676     1  0.0000000  0.6973333  3
   8669   8665   8662   8674     1  0.0000000  1.0460000  1
   8669   8665   8662   8674     1  0.0000000  0.0000000  3
   8670   8667   8666   8672     1  0.0000000  0.6508444  3
   8679   8675   8681   8682     1  0.0000000  0.6973333  3
   8679   8675   8661   8683     1  0.0000000  1.0460000  1
   8679   8675   8661   8683     1  0.0000000  0.0000000  3
   8680   8675   8681   8682     1  0.0000000  0.6973333  3
   8680   8675   8661   8683     1  0.0000000  1.0460000  1
   8680   8675   8661   8683     1  0.0000000  0.0000000  3
   8684   8685   8688   8692     1  0.0000000  0.6508444  3
   8684   8685   8697   8700     1  0.0000000  1.0460000  1
   8684   8685   8697   8700     1  0.0000000  0.6694400  3
   8684   8698   8704   8705     1  0.0000000  1.0460000  1
   8684   8698   8704   8705     1  0.0000000  0.6694400  3
   8684   8706   8690   8693     1  0.0000000  1.6038667  3
   8685   8684   8698   8702     1  0.0000000  0.6508444  3
   8685   8684   8698   8703     1  0.0000000  0.6508444  3
   8685   8688   8689   8691     1  0.0000000  0.6508444  3
   8685   8688   8696   8699     1  0.0000000  1.0460000  1
   8685   8688   8696   8699     1  0.0000000  0.6694400  3
   8686   8684   8685   8688     1  0.0000000  0.6508444  3
   8686   8684   8685   8697     1  0.0000000  1.0460000  1
   8686   8684   8685   8697     1  0.0000000  0.0000000  3
   8686   8684   8685   8687     1  0.0000000  0.6508444  3
   8686   8684   8698   8704     1  0.0000000  1.0460000  1
   8686   8684   8698   8704     1  0.0000000  0.0000000  3
   8686   8684   8698   8702     1  0.0000000  0.6508444  3
   8686   8684   8698   8703     1  0.0000000  0.6508444  3
   8686   8684   8706   8690     1  0.0000000  1.6038667  3
   8687   8685   8684   8698     1  0.0000000  0.6508444  3
   8687   8685   8684   8706     1  0.0000000  1.0460000  1
   8687   8685   8684   8706     1  0.0000000  0.0000000  3
   8687   8685   8688   8689     1  0.0000000  0.6508444  3
   8687   8685   8688   8696     1  0.0000000  1.0460000  1
   8687   8685   8688   8696     1  0.0000000  0.0000000  3
   8687   8685   8688   8692     1  0.0000000  0.6508444  3
   8687   8685   8697   8700     1  0.0000000  0.6973333  3
   8688   8685   8697   8700     1  0.0000000  1.0460000  1
   8688   8685   8697   8700     1  0.0000000  0.6694400  3
   8688   8689   8690   8693     1  0.0000000  0.6508444  3
   8688   8689   8695   8701     1  0.0000000  1.0460000  1
   8688   8689   8695   8701     1  0.0000000  0.6694400  3
   8689   8688   8696   8699     1  0.0000000  1.0460000  1
   8689   8688   8696   8699     1  0.0000000  0.6694400  3
   8690   8689   8688   8692     1  0.0000000  0.6508444  3
   8690   8689   8695   8701     1  0.0000000  1.0460000  1
   8690   8689   8695   8701     1  0.0000000  0.6694400  3
   8691   8689   8688   8696     1  0.0000000  1.0460000  1
   8691   8689   8688   8696     1  0.0000000  0.0000000  3
   8691   8689   8688   8692     1  0.0000000  0.6508444  3
   8691   8689   8690   8694     1  0.0000000  1.0460000  1
   8691   8689   8690   8694     1  0.0000000  0.0000000  3
   8691   8689   8690   8706     1  0.0000000  1.0460000  1
   8691   8689   8690   8706     1  0.0000000  0.0000000  3
   8691   8689   8690   8693     1  0.0000000  0.6508444  3
   8691   8689   8695   8701     1  0.0000000  0.6973333  3
   8692   8688   8685   8697     1  0.0000000  1.0460000  1
   8692   8688   8685   8697     1  0.0000000  0.0000000  3
   8692   8688   8689   8695     1  0.0000000  1.0460000  1
   8692   8688   8689   8695     1  0.0000000  0.0000000  3
   8692   8688   8696   8699     1  0.0000000  0.6973333  3
   8693   8690   8689   8695     1  0.0000000  0.6508444  3
   8702   8698   8684   8706     1  0.0000000  1.0460000  1
   8702   8698   8684   8706     1  0.0000000  0.0000000  3
   8702   8698   8704   8705     1  0.0000000  0.6973333  3
   8703   8698   8684   8706     1  0.0000000  1.0460000  1
   8703   8698   8684   8706     1  0.0000000  0.0000000  3
   8703   8698   8704   8705     1  0.0000000  0.6973333  3
   8707   8708   8711   8715     1  0.0000000  0.6508444  3
   8707   8708   8720   8723     1  0.0000000  1.0460000  1
   8707   8708   8720   8723     1  0.0000000  0.6694400  3
   8707   8721   8727   8728     1  0.0000000  1.0460000  1
   8707   8721   8727   8728     1  0.0000000  0.6694400  3
   8707   8729   8713   8716     1  0.0000000  1.6038667  3
   8708   8711   8712   8714     1  0.0000000  0.6508444  3
   8708   8711   8719   8722     1  0.0000000  1.0460000  1
   8708   8711   8719   8722     1  0.0000000  0.6694400  3
   8708   8707   8721   8725     1  0.0000000  0.6508444  3
   8708   8707   8721   8726     1  0.0000000  0.6508444  3
   8709   8707   8708   8711     1  0.0000000  0.6508444  3
   8709   8707   8708   8720     1  0.0000000  1.0460000  1
   8709   8707   8708   8720     1  0.0000000  0.0000000  3
   8709   8707   8708   8710     1  0.0000000  0.6508444  3
   8709   8707   8721   8727     1  0.0000000  1.0460000  1
   8709   8707   8721   8727     1  0.0000000  0.0000000  3
   8709   8707   8721   8725     1  0.0000000  0.6508444  3
   8709   8707   8721   8726     1  0.0000000  0.6508444  3
   8709   8707   8729   8713     1  0.0000000  1.6038667  3
   8710   8708   8711   8712     1  0.0000000  0.6508444  3
   8710   8708   8711   8719     1  0.0000000  1.0460000  1
   8710   8708   8711   8719     1  0.0000000  0.0000000  3
   8710   8708   8711   8715     1  0.0000000  0.6508444  3
   8710   8708   8720   8723     1  0.0000000  0.6973333  3
   8710   8708   8707   8721     1  0.0000000  0.6508444  3
   8710   8708   8707   8729     1  0.0000000  1.0460000  1
   8710   8708   8707   8729     1  0.0000000  0.0000000  3
   8711   8712   8713   8716     1  0.0000000  0.6508444  3
   8711   8712   8718   8724     1  0.0000000  1.0460000  1
   8711   8712   8718   8724     1  0.0000000  0.6694400  3
   8711   8708   8720   8723     1  0.0000000  1.0460000  1
   8711   8708   8720   8723     1  0.0000000  0.6694400  3
   8712   8711   8719   8722     1  0.0000000  1.0460000  1
   8712   8711   8719   8722     1  0.0000000  0.6694400  3
   8713   8712   8718   8724     1  0.0000000  1.0460000  1
   8713   8712   8718   8724     1  0.0000000  0.6694400  3
   8713   8712   8711   8715     1  0.0000000  0.6508444  3
   8714   8712   8713   8717     1  0.0000000  1.0460000  1
   8714   8712   8713   8717     1  0.0000000  0.0000000  3
   8714   8712   8713   8729     1  0.0000000  1.0460000  1
   8714   8712   8713   8729     1  0.0000000  0.0000000  3
   8714   8712   8713   8716     1  0.0000000  0.6508444  3
   8714   8712   8718   8724     1  0.0000000  0.6973333  3
   8714   8712   8711   8719     1  0.0000000  1.0460000  1
   8714   8712   8711   8719     1  0.0000000  0.0000000  3
   8714   8712   8711   8715     1  0.0000000  0.6508444  3
   8715   8711   8712   8718     1  0.0000000  1.0460000  1
   8715   8711   8712   8718     1  0.0000000  0.0000000  3
   8715   8711   8719   8722     1  0.0000000  0.6973333  3
   8715   8711   8708   8720     1  0.0000000  1.0460000  1
   8715   8711   8708   8720     1  0.0000000  0.0000000  3
   8716   8713   8712   8718     1  0.0000000  0.6508444  3
   8725   8721   8727   8728     1  0.0000000  0.6973333  3
   8725   8721   8707   8729     1  0.0000000  1.0460000  1
   8725   8721   8707   8729     1  0.0000000  0.0000000  3
   8726   8721   8727   8728     1  0.0000000  0.6973333  3
   8726   8721   8707   8729     1  0.0000000  1.0460000  1
   8726   8721   8707   8729     1  0.0000000  0.0000000  3
   8730   8731   8734   8738     1  0.0000000  0.6508444  3
   8730   8731   8743   8746     1  0.0000000  1.0460000  1
   8730   8731   8743   8746     1  0.0000000  0.6694400  3
   8730   8744   8750   8751     1  0.0000000  1.0460000  1
   8730   8744   8750   8751     1  0.0000000  0.6694400  3
   8730   8752   8736   8739     1  0.0000000  1.6038667  3
   8731   8730   8744   8748     1  0.0000000  0.6508444  3
   8731   8730   8744   8749     1  0.0000000  0.6508444  3
   8731   8734   8735   8737     1  0.0000000  0.6508444  3
   8731   8734   8742   8745     1  0.0000000  1.0460000  1
   8731   8734   8742   8745     1  0.0000000  0.6694400  3
   8732   8730   8731   8734     1  0.0000000  0.6508444  3
   8732   8730   8731   8743     1  0.0000000  1.0460000  1
   8732   8730   8731   8743     1  0.0000000  0.0000000  3
   8732   8730   8731   8733     1  0.0000000  0.6508444  3
   8732   8730   8744   8750     1  0.0000000  1.0460000  1
   8732   8730   8744   8750     1  0.0000000  0.0000000  3
   8732   8730   8744   8748     1  0.0000000  0.6508444  3
   8732   8730   8744   8749     1  0.0000000  0.6508444  3
   8732   8730   8752   8736     1  0.0000000  1.6038667  3
   8733   8731   8730   8744     1  0.0000000  0.6508444  3
   8733   8731   8730   8752     1  0.0000000  1.0460000  1
   8733   8731   8730   8752     1  0.0000000  0.0000000  3
   8733   8731   8734   8735     1  0.0000000  0.6508444  3
   8733   8731   8734   8742     1  0.0000000  1.0460000  1
   8733   8731   8734   8742     1  0.0000000  0.0000000  3
   8733   8731   8734   8738     1  0.0000000  0.6508444  3
   8733   8731   8743   8746     1  0.0000000  0.6973333  3
   8734   8731   8743   8746     1  0.0000000  1.0460000  1
   8734   8731   8743   8746     1  0.0000000  0.6694400  3
   8734   8735   8736   8739     1  0.0000000  0.6508444  3
   8734   8735   8741   8747     1  0.0000000  1.0460000  1
   8734   8735   8741   8747     1  0.0000000  0.6694400  3
   8735   8734   8742   8745     1  0.0000000  1.0460000  1
   8735   8734   8742   8745     1  0.0000000  0.6694400  3
   8736   8735   8734   8738     1  0.0000000  0.6508444  3
   8736   8735   8741   8747     1  0.0000000  1.0460000  1
   8736   8735   8741   8747     1  0.0000000  0.6694400  3
   8737   8735   8734   8742     1  0.0000000  1.0460000  1
   8737   8735   8734   8742     1  0.0000000  0.0000000  3
   8737   8735   8734   8738     1  0.0000000  0.6508444  3
   8737   8735   8736   8740     1  0.0000000  1.0460000  1
   8737   8735   8736   8740     1  0.0000000  0.0000000  3
   8737   8735   8736   8752     1  0.0000000  1.0460000  1
   8737   8735   8736   8752     1  0.0000000  0.0000000  3
   8737   8735   8736   8739     1  0.0000000  0.6508444  3
   8737   8735   8741   8747     1  0.0000000  0.6973333  3
   8738   8734   8731   8743     1  0.0000000  1.0460000  1
   8738   8734   8731   8743     1  0.0000000  0.0000000  3
   8738   8734   8735   8741     1  0.0000000  1.0460000  1
   8738   8734   8735   8741     1  0.0000000  0.0000000  3
   8738   8734   8742   8745     1  0.0000000  0.6973333  3
   8739   8736   8735   8741     1  0.0000000  0.6508444  3
   8748   8744   8730   8752     1  0.0000000  1.0460000  1
   8748   8744   8730   8752     1  0.0000000  0.0000000  3
   8748   8744   8750   8751     1  0.0000000  0.6973333  3
   8749   8744   8730   8752     1  0.0000000  1.0460000  1
   8749   8744   8730   8752     1  0.0000000  0.0000000  3
   8749   8744   8750   8751     1  0.0000000  0.6973333  3
   8753   8754   8757   8761     1  0.0000000  0.6508444  3
   8753   8754   8766   8769     1  0.0000000  1.0460000  1
   8753   8754   8766   8769     1  0.0000000  0.6694400  3
   8753   8767   8773   8774     1  0.0000000  1.0460000  1
   8753   8767   8773   8774     1  0.0000000  0.6694400  3
   8753   8775   8759   8762     1  0.0000000  1.6038667  3
   8754   8757   8758   8760     1  0.0000000  0.6508444  3
   8754   8757   8765   8768     1  0.0000000  1.0460000  1
   8754   8757   8765   8768     1  0.0000000  0.6694400  3
   8754   8753   8767   8771     1  0.0000000  0.6508444  3
   8754   8753   8767   8772     1  0.0000000  0.6508444  3
   8755   8753   8754   8757     1  0.0000000  0.6508444  3
   8755   8753   8754   8766     1  0.0000000  1.0460000  1
   8755   8753   8754   8766     1  0.0000000  0.0000000  3
   8755   8753   8754   8756     1  0.0000000  0.6508444  3
   8755   8753   8767   8773     1  0.0000000  1.0460000  1
   8755   8753   8767   8773     1  0.0000000  0.0000000  3
   8755   8753   8767   8771     1  0.0000000  0.6508444  3
   8755   8753   8767   8772     1  0.0000000  0.6508444  3
   8755   8753   8775   8759     1  0.0000000  1.6038667  3
   8756   8754   8757   8758     1  0.0000000  0.6508444  3
   8756   8754   8757   8765     1  0.0000000  1.0460000  1
   8756   8754   8757   8765     1  0.0000000  0.0000000  3
   8756   8754   8757   8761     1  0.0000000  0.6508444  3
   8756   8754   8766   8769     1  0.0000000  0.6973333  3
   8756   8754   8753   8767     1  0.0000000  0.6508444  3
   8756   8754   8753   8775     1  0.0000000  1.0460000  1
   8756   8754   8753   8775     1  0.0000000  0.0000000  3
   8757   8758   8759   8762     1  0.0000000  0.6508444  3
   8757   8758   8764   8770     1  0.0000000  1.0460000  1
   8757   8758   8764   8770     1  0.0000000  0.6694400  3
   8757   8754   8766   8769     1  0.0000000  1.0460000  1
   8757   8754   8766   8769     1  0.0000000  0.6694400  3
   8758   8757   8765   8768     1  0.0000000  1.0460000  1
   8758   8757   8765   8768     1  0.0000000  0.6694400  3
   8759   8758   8764   8770     1  0.0000000  1.0460000  1
   8759   8758   8764   8770     1  0.0000000  0.6694400  3
   8759   8758   8757   8761     1  0.0000000  0.6508444  3
   8760   8758   8759   8763     1  0.0000000  1.0460000  1
   8760   8758   8759   8763     1  0.0000000  0.0000000  3
   8760   8758   8759   8775     1  0.0000000  1.0460000  1
   8760   8758   8759   8775     1  0.0000000  0.0000000  3
   8760   8758   8759   8762     1  0.0000000  0.6508444  3
   8760   8758   8764   8770     1  0.0000000  0.6973333  3
   8760   8758   8757   8765     1  0.0000000  1.0460000  1
   8760   8758   8757   8765     1  0.0000000  0.0000000  3
   8760   8758   8757   8761     1  0.0000000  0.6508444  3
   8761   8757   8758   8764     1  0.0000000  1.0460000  1
   8761   8757   8758   8764     1  0.0000000  0.0000000  3
   8761   8757   8765   8768     1  0.0000000  0.6973333  3
   8761   8757   8754   8766     1  0.0000000  1.0460000  1
   8761   8757   8754   8766     1  0.0000000  0.0000000  3
   8762   8759   8758   8764     1  0.0000000  0.6508444  3
   8771   8767   8773   8774     1  0.0000000  0.6973333  3
   8771   8767   8753   8775     1  0.0000000  1.0460000  1
   8771   8767   8753   8775     1  0.0000000  0.0000000  3
   8772   8767   8773   8774     1  0.0000000  0.6973333  3
   8772   8767   8753   8775     1  0.0000000  1.0460000  1
   8772   8767   8753   8775     1  0.0000000  0.0000000  3
   8776   8777   8780   8784     1  0.0000000  0.6508444  3
   8776   8777   8789   8792     1  0.0000000  1.0460000  1
   8776   8777   8789   8792     1  0.0000000  0.6694400  3
   8776   8790   8796   8797     1  0.0000000  1.0460000  1
   8776   8790   8796   8797     1  0.0000000  0.6694400  3
   8776   8798   8782   8785     1  0.0000000  1.6038667  3
   8777   8776   8790   8794     1  0.0000000  0.6508444  3
   8777   8776   8790   8795     1  0.0000000  0.6508444  3
   8777   8780   8781   8783     1  0.0000000  0.6508444  3
   8777   8780   8788   8791     1  0.0000000  1.0460000  1
   8777   8780   8788   8791     1  0.0000000  0.6694400  3
   8778   8776   8777   8780     1  0.0000000  0.6508444  3
   8778   8776   8777   8789     1  0.0000000  1.0460000  1
   8778   8776   8777   8789     1  0.0000000  0.0000000  3
   8778   8776   8777   8779     1  0.0000000  0.6508444  3
   8778   8776   8790   8796     1  0.0000000  1.0460000  1
   8778   8776   8790   8796     1  0.0000000  0.0000000  3
   8778   8776   8790   8794     1  0.0000000  0.6508444  3
   8778   8776   8790   8795     1  0.0000000  0.6508444  3
   8778   8776   8798   8782     1  0.0000000  1.6038667  3
   8779   8777   8776   8790     1  0.0000000  0.6508444  3
   8779   8777   8776   8798     1  0.0000000  1.0460000  1
   8779   8777   8776   8798     1  0.0000000  0.0000000  3
   8779   8777   8780   8781     1  0.0000000  0.6508444  3
   8779   8777   8780   8788     1  0.0000000  1.0460000  1
   8779   8777   8780   8788     1  0.0000000  0.0000000  3
   8779   8777   8780   8784     1  0.0000000  0.6508444  3
   8779   8777   8789   8792     1  0.0000000  0.6973333  3
   8780   8777   8789   8792     1  0.0000000  1.0460000  1
   8780   8777   8789   8792     1  0.0000000  0.6694400  3
   8780   8781   8782   8785     1  0.0000000  0.6508444  3
   8780   8781   8787   8793     1  0.0000000  1.0460000  1
   8780   8781   8787   8793     1  0.0000000  0.6694400  3
   8781   8780   8788   8791     1  0.0000000  1.0460000  1
   8781   8780   8788   8791     1  0.0000000  0.6694400  3
   8782   8781   8780   8784     1  0.0000000  0.6508444  3
   8782   8781   8787   8793     1  0.0000000  1.0460000  1
   8782   8781   8787   8793     1  0.0000000  0.6694400  3
   8783   8781   8780   8788     1  0.0000000  1.0460000  1
   8783   8781   8780   8788     1  0.0000000  0.0000000  3
   8783   8781   8780   8784     1  0.0000000  0.6508444  3
   8783   8781   8782   8786     1  0.0000000  1.0460000  1
   8783   8781   8782   8786     1  0.0000000  0.0000000  3
   8783   8781   8782   8798     1  0.0000000  1.0460000  1
   8783   8781   8782   8798     1  0.0000000  0.0000000  3
   8783   8781   8782   8785     1  0.0000000  0.6508444  3
   8783   8781   8787   8793     1  0.0000000  0.6973333  3
   8784   8780   8777   8789     1  0.0000000  1.0460000  1
   8784   8780   8777   8789     1  0.0000000  0.0000000  3
   8784   8780   8781   8787     1  0.0000000  1.0460000  1
   8784   8780   8781   8787     1  0.0000000  0.0000000  3
   8784   8780   8788   8791     1  0.0000000  0.6973333  3
   8785   8782   8781   8787     1  0.0000000  0.6508444  3
   8794   8790   8776   8798     1  0.0000000  1.0460000  1
   8794   8790   8776   8798     1  0.0000000  0.0000000  3
   8794   8790   8796   8797     1  0.0000000  0.6973333  3
   8795   8790   8776   8798     1  0.0000000  1.0460000  1
   8795   8790   8776   8798     1  0.0000000  0.0000000  3
   8795   8790   8796   8797     1  0.0000000  0.6973333  3
   8799   8800   8803   8807     1  0.0000000  0.6508444  3
   8799   8800   8812   8815     1  0.0000000  1.0460000  1
   8799   8800   8812   8815     1  0.0000000  0.6694400  3
   8799   8813   8819   8820     1  0.0000000  1.0460000  1
   8799   8813   8819   8820     1  0.0000000  0.6694400  3
   8799   8821   8805   8808     1  0.0000000  1.6038667  3
   8800   8803   8804   8806     1  0.0000000  0.6508444  3
   8800   8803   8811   8814     1  0.0000000  1.0460000  1
   8800   8803   8811   8814     1  0.0000000  0.6694400  3
   8800   8799   8813   8817     1  0.0000000  0.6508444  3
   8800   8799   8813   8818     1  0.0000000  0.6508444  3
   8801   8799   8800   8803     1  0.0000000  0.6508444  3
   8801   8799   8800   8812     1  0.0000000  1.0460000  1
   8801   8799   8800   8812     1  0.0000000  0.0000000  3
   8801   8799   8800   8802     1  0.0000000  0.6508444  3
   8801   8799   8813   8819     1  0.0000000  1.0460000  1
   8801   8799   8813   8819     1  0.0000000  0.0000000  3
   8801   8799   8813   8817     1  0.0000000  0.6508444  3
   8801   8799   8813   8818     1  0.0000000  0.6508444  3
   8801   8799   8821   8805     1  0.0000000  1.6038667  3
   8802   8800   8803   8804     1  0.0000000  0.6508444  3
   8802   8800   8803   8811     1  0.0000000  1.0460000  1
   8802   8800   8803   8811     1  0.0000000  0.0000000  3
   8802   8800   8803   8807     1  0.0000000  0.6508444  3
   8802   8800   8812   8815     1  0.0000000  0.6973333  3
   8802   8800   8799   8813     1  0.0000000  0.6508444  3
   8802   8800   8799   8821     1  0.0000000  1.0460000  1
   8802   8800   8799   8821     1  0.0000000  0.0000000  3
   8803   8804   8805   8808     1  0.0000000  0.6508444  3
   8803   8804   8810   8816     1  0.0000000  1.0460000  1
   8803   8804   8810   8816     1  0.0000000  0.6694400  3
   8803   8800   8812   8815     1  0.0000000  1.0460000  1
   8803   8800   8812   8815     1  0.0000000  0.6694400  3
   8804   8803   8811   8814     1  0.0000000  1.0460000  1
   8804   8803   8811   8814     1  0.0000000  0.6694400  3
   8805   8804   8810   8816     1  0.0000000  1.0460000  1
   8805   8804   8810   8816     1  0.0000000  0.6694400  3
   8805   8804   8803   8807     1  0.0000000  0.6508444  3
   8806   8804   8805   8809     1  0.0000000  1.0460000  1
   8806   8804   8805   8809     1  0.0000000  0.0000000  3
   8806   8804   8805   8821     1  0.0000000  1.0460000  1
   8806   8804   8805   8821     1  0.0000000  0.0000000  3
   8806   8804   8805   8808     1  0.0000000  0.6508444  3
   8806   8804   8810   8816     1  0.0000000  0.6973333  3
   8806   8804   8803   8811     1  0.0000000  1.0460000  1
   8806   8804   8803   8811     1  0.0000000  0.0000000  3
   8806   8804   8803   8807     1  0.0000000  0.6508444  3
   8807   8803   8804   8810     1  0.0000000  1.0460000  1
   8807   8803   8804   8810     1  0.0000000  0.0000000  3
   8807   8803   8811   8814     1  0.0000000  0.6973333  3
   8807   8803   8800   8812     1  0.0000000  1.0460000  1
   8807   8803   8800   8812     1  0.0000000  0.0000000  3
   8808   8805   8804   8810     1  0.0000000  0.6508444  3
   8817   8813   8819   8820     1  0.0000000  0.6973333  3
   8817   8813   8799   8821     1  0.0000000  1.0460000  1
   8817   8813   8799   8821     1  0.0000000  0.0000000  3
   8818   8813   8819   8820     1  0.0000000  0.6973333  3
   8818   8813   8799   8821     1  0.0000000  1.0460000  1
   8818   8813   8799   8821     1  0.0000000  0.0000000  3
   8822   8823   8826   8830     1  0.0000000  0.6508444  3
   8822   8823   8835   8838     1  0.0000000  1.0460000  1
   8822   8823   8835   8838     1  0.0000000  0.6694400  3
   8822   8836   8842   8843     1  0.0000000  1.0460000  1
   8822   8836   8842   8843     1  0.0000000  0.6694400  3
   8822   8844   8828   8831     1  0.0000000  1.6038667  3
   8823   8822   8836   8840     1  0.0000000  0.6508444  3
   8823   8822   8836   8841     1  0.0000000  0.6508444  3
   8823   8826   8827   8829     1  0.0000000  0.6508444  3
   8823   8826   8834   8837     1  0.0000000  1.0460000  1
   8823   8826   8834   8837     1  0.0000000  0.6694400  3
   8824   8822   8823   8826     1  0.0000000  0.6508444  3
   8824   8822   8823   8835     1  0.0000000  1.0460000  1
   8824   8822   8823   8835     1  0.0000000  0.0000000  3
   8824   8822   8823   8825     1  0.0000000  0.6508444  3
   8824   8822   8836   8842     1  0.0000000  1.0460000  1
   8824   8822   8836   8842     1  0.0000000  0.0000000  3
   8824   8822   8836   8840     1  0.0000000  0.6508444  3
   8824   8822   8836   8841     1  0.0000000  0.6508444  3
   8824   8822   8844   8828     1  0.0000000  1.6038667  3
   8825   8823   8822   8836     1  0.0000000  0.6508444  3
   8825   8823   8822   8844     1  0.0000000  1.0460000  1
   8825   8823   8822   8844     1  0.0000000  0.0000000  3
   8825   8823   8826   8827     1  0.0000000  0.6508444  3
   8825   8823   8826   8834     1  0.0000000  1.0460000  1
   8825   8823   8826   8834     1  0.0000000  0.0000000  3
   8825   8823   8826   8830     1  0.0000000  0.6508444  3
   8825   8823   8835   8838     1  0.0000000  0.6973333  3
   8826   8823   8835   8838     1  0.0000000  1.0460000  1
   8826   8823   8835   8838     1  0.0000000  0.6694400  3
   8826   8827   8828   8831     1  0.0000000  0.6508444  3
   8826   8827   8833   8839     1  0.0000000  1.0460000  1
   8826   8827   8833   8839     1  0.0000000  0.6694400  3
   8827   8826   8834   8837     1  0.0000000  1.0460000  1
   8827   8826   8834   8837     1  0.0000000  0.6694400  3
   8828   8827   8826   8830     1  0.0000000  0.6508444  3
   8828   8827   8833   8839     1  0.0000000  1.0460000  1
   8828   8827   8833   8839     1  0.0000000  0.6694400  3
   8829   8827   8826   8834     1  0.0000000  1.0460000  1
   8829   8827   8826   8834     1  0.0000000  0.0000000  3
   8829   8827   8826   8830     1  0.0000000  0.6508444  3
   8829   8827   8828   8832     1  0.0000000  1.0460000  1
   8829   8827   8828   8832     1  0.0000000  0.0000000  3
   8829   8827   8828   8844     1  0.0000000  1.0460000  1
   8829   8827   8828   8844     1  0.0000000  0.0000000  3
   8829   8827   8828   8831     1  0.0000000  0.6508444  3
   8829   8827   8833   8839     1  0.0000000  0.6973333  3
   8830   8826   8823   8835     1  0.0000000  1.0460000  1
   8830   8826   8823   8835     1  0.0000000  0.0000000  3
   8830   8826   8827   8833     1  0.0000000  1.0460000  1
   8830   8826   8827   8833     1  0.0000000  0.0000000  3
   8830   8826   8834   8837     1  0.0000000  0.6973333  3
   8831   8828   8827   8833     1  0.0000000  0.6508444  3
   8840   8836   8822   8844     1  0.0000000  1.0460000  1
   8840   8836   8822   8844     1  0.0000000  0.0000000  3
   8840   8836   8842   8843     1  0.0000000  0.6973333  3
   8841   8836   8822   8844     1  0.0000000  1.0460000  1
   8841   8836   8822   8844     1  0.0000000  0.0000000  3
   8841   8836   8842   8843     1  0.0000000  0.6973333  3
   8845   8846   8849   8853     1  0.0000000  0.6508444  3
   8845   8846   8858   8861     1  0.0000000  1.0460000  1
   8845   8846   8858   8861     1  0.0000000  0.6694400  3
   8845   8859   8865   8866     1  0.0000000  1.0460000  1
   8845   8859   8865   8866     1  0.0000000  0.6694400  3
   8845   8867   8851   8854     1  0.0000000  1.6038667  3
   8846   8849   8850   8852     1  0.0000000  0.6508444  3
   8846   8849   8857   8860     1  0.0000000  1.0460000  1
   8846   8849   8857   8860     1  0.0000000  0.6694400  3
   8846   8845   8859   8863     1  0.0000000  0.6508444  3
   8846   8845   8859   8864     1  0.0000000  0.6508444  3
   8847   8845   8846   8849     1  0.0000000  0.6508444  3
   8847   8845   8846   8858     1  0.0000000  1.0460000  1
   8847   8845   8846   8858     1  0.0000000  0.0000000  3
   8847   8845   8846   8848     1  0.0000000  0.6508444  3
   8847   8845   8859   8865     1  0.0000000  1.0460000  1
   8847   8845   8859   8865     1  0.0000000  0.0000000  3
   8847   8845   8859   8863     1  0.0000000  0.6508444  3
   8847   8845   8859   8864     1  0.0000000  0.6508444  3
   8847   8845   8867   8851     1  0.0000000  1.6038667  3
   8848   8846   8849   8850     1  0.0000000  0.6508444  3
   8848   8846   8849   8857     1  0.0000000  1.0460000  1
   8848   8846   8849   8857     1  0.0000000  0.0000000  3
   8848   8846   8849   8853     1  0.0000000  0.6508444  3
   8848   8846   8858   8861     1  0.0000000  0.6973333  3
   8848   8846   8845   8859     1  0.0000000  0.6508444  3
   8848   8846   8845   8867     1  0.0000000  1.0460000  1
   8848   8846   8845   8867     1  0.0000000  0.0000000  3
   8849   8850   8851   8854     1  0.0000000  0.6508444  3
   8849   8850   8856   8862     1  0.0000000  1.0460000  1
   8849   8850   8856   8862     1  0.0000000  0.6694400  3
   8849   8846   8858   8861     1  0.0000000  1.0460000  1
   8849   8846   8858   8861     1  0.0000000  0.6694400  3
   8850   8849   8857   8860     1  0.0000000  1.0460000  1
   8850   8849   8857   8860     1  0.0000000  0.6694400  3
   8851   8850   8856   8862     1  0.0000000  1.0460000  1
   8851   8850   8856   8862     1  0.0000000  0.6694400  3
   8851   8850   8849   8853     1  0.0000000  0.6508444  3
   8852   8850   8851   8855     1  0.0000000  1.0460000  1
   8852   8850   8851   8855     1  0.0000000  0.0000000  3
   8852   8850   8851   8867     1  0.0000000  1.0460000  1
   8852   8850   8851   8867     1  0.0000000  0.0000000  3
   8852   8850   8851   8854     1  0.0000000  0.6508444  3
   8852   8850   8856   8862     1  0.0000000  0.6973333  3
   8852   8850   8849   8857     1  0.0000000  1.0460000  1
   8852   8850   8849   8857     1  0.0000000  0.0000000  3
   8852   8850   8849   8853     1  0.0000000  0.6508444  3
   8853   8849   8850   8856     1  0.0000000  1.0460000  1
   8853   8849   8850   8856     1  0.0000000  0.0000000  3
   8853   8849   8857   8860     1  0.0000000  0.6973333  3
   8853   8849   8846   8858     1  0.0000000  1.0460000  1
   8853   8849   8846   8858     1  0.0000000  0.0000000  3
   8854   8851   8850   8856     1  0.0000000  0.6508444  3
   8863   8859   8865   8866     1  0.0000000  0.6973333  3
   8863   8859   8845   8867     1  0.0000000  1.0460000  1
   8863   8859   8845   8867     1  0.0000000  0.0000000  3
   8864   8859   8865   8866     1  0.0000000  0.6973333  3
   8864   8859   8845   8867     1  0.0000000  1.0460000  1
   8864   8859   8845   8867     1  0.0000000  0.0000000  3
   8868   8869   8872   8876     1  0.0000000  0.6508444  3
   8868   8869   8881   8884     1  0.0000000  1.0460000  1
   8868   8869   8881   8884     1  0.0000000  0.6694400  3
   8868   8882   8888   8889     1  0.0000000  1.0460000  1
   8868   8882   8888   8889     1  0.0000000  0.6694400  3
   8868   8890   8874   8877     1  0.0000000  1.6038667  3
   8869   8868   8882   8886     1  0.0000000  0.6508444  3
   8869   8868   8882   8887     1  0.0000000  0.6508444  3
   8869   8872   8873   8875     1  0.0000000  0.6508444  3
   8869   8872   8880   8883     1  0.0000000  1.0460000  1
   8869   8872   8880   8883     1  0.0000000  0.6694400  3
   8870   8868   8869   8872     1  0.0000000  0.6508444  3
   8870   8868   8869   8881     1  0.0000000  1.0460000  1
   8870   8868   8869   8881     1  0.0000000  0.0000000  3
   8870   8868   8869   8871     1  0.0000000  0.6508444  3
   8870   8868   8882   8888     1  0.0000000  1.0460000  1
   8870   8868   8882   8888     1  0.0000000  0.0000000  3
   8870   8868   8882   8886     1  0.0000000  0.6508444  3
   8870   8868   8882   8887     1  0.0000000  0.6508444  3
   8870   8868   8890   8874     1  0.0000000  1.6038667  3
   8871   8869   8868   8882     1  0.0000000  0.6508444  3
   8871   8869   8868   8890     1  0.0000000  1.0460000  1
   8871   8869   8868   8890     1  0.0000000  0.0000000  3
   8871   8869   8872   8873     1  0.0000000  0.6508444  3
   8871   8869   8872   8880     1  0.0000000  1.0460000  1
   8871   8869   8872   8880     1  0.0000000  0.0000000  3
   8871   8869   8872   8876     1  0.0000000  0.6508444  3
   8871   8869   8881   8884     1  0.0000000  0.6973333  3
   8872   8869   8881   8884     1  0.0000000  1.0460000  1
   8872   8869   8881   8884     1  0.0000000  0.6694400  3
   8872   8873   8874   8877     1  0.0000000  0.6508444  3
   8872   8873   8879   8885     1  0.0000000  1.0460000  1
   8872   8873   8879   8885     1  0.0000000  0.6694400  3
   8873   8872   8880   8883     1  0.0000000  1.0460000  1
   8873   8872   8880   8883     1  0.0000000  0.6694400  3
   8874   8873   8872   8876     1  0.0000000  0.6508444  3
   8874   8873   8879   8885     1  0.0000000  1.0460000  1
   8874   8873   8879   8885     1  0.0000000  0.6694400  3
   8875   8873   8872   8880     1  0.0000000  1.0460000  1
   8875   8873   8872   8880     1  0.0000000  0.0000000  3
   8875   8873   8872   8876     1  0.0000000  0.6508444  3
   8875   8873   8874   8878     1  0.0000000  1.0460000  1
   8875   8873   8874   8878     1  0.0000000  0.0000000  3
   8875   8873   8874   8890     1  0.0000000  1.0460000  1
   8875   8873   8874   8890     1  0.0000000  0.0000000  3
   8875   8873   8874   8877     1  0.0000000  0.6508444  3
   8875   8873   8879   8885     1  0.0000000  0.6973333  3
   8876   8872   8869   8881     1  0.0000000  1.0460000  1
   8876   8872   8869   8881     1  0.0000000  0.0000000  3
   8876   8872   8873   8879     1  0.0000000  1.0460000  1
   8876   8872   8873   8879     1  0.0000000  0.0000000  3
   8876   8872   8880   8883     1  0.0000000  0.6973333  3
   8877   8874   8873   8879     1  0.0000000  0.6508444  3
   8886   8882   8868   8890     1  0.0000000  1.0460000  1
   8886   8882   8868   8890     1  0.0000000  0.0000000  3
   8886   8882   8888   8889     1  0.0000000  0.6973333  3
   8887   8882   8868   8890     1  0.0000000  1.0460000  1
   8887   8882   8868   8890     1  0.0000000  0.0000000  3
   8887   8882   8888   8889     1  0.0000000  0.6973333  3
   8891   8892   8895   8899     1  0.0000000  0.6508444  3
   8891   8892   8904   8907     1  0.0000000  1.0460000  1
   8891   8892   8904   8907     1  0.0000000  0.6694400  3
   8891   8905   8911   8912     1  0.0000000  1.0460000  1
   8891   8905   8911   8912     1  0.0000000  0.6694400  3
   8891   8913   8897   8900     1  0.0000000  1.6038667  3
   8892   8895   8896   8898     1  0.0000000  0.6508444  3
   8892   8895   8903   8906     1  0.0000000  1.0460000  1
   8892   8895   8903   8906     1  0.0000000  0.6694400  3
   8892   8891   8905   8909     1  0.0000000  0.6508444  3
   8892   8891   8905   8910     1  0.0000000  0.6508444  3
   8893   8891   8892   8895     1  0.0000000  0.6508444  3
   8893   8891   8892   8904     1  0.0000000  1.0460000  1
   8893   8891   8892   8904     1  0.0000000  0.0000000  3
   8893   8891   8892   8894     1  0.0000000  0.6508444  3
   8893   8891   8905   8911     1  0.0000000  1.0460000  1
   8893   8891   8905   8911     1  0.0000000  0.0000000  3
   8893   8891   8905   8909     1  0.0000000  0.6508444  3
   8893   8891   8905   8910     1  0.0000000  0.6508444  3
   8893   8891   8913   8897     1  0.0000000  1.6038667  3
   8894   8892   8895   8896     1  0.0000000  0.6508444  3
   8894   8892   8895   8903     1  0.0000000  1.0460000  1
   8894   8892   8895   8903     1  0.0000000  0.0000000  3
   8894   8892   8895   8899     1  0.0000000  0.6508444  3
   8894   8892   8904   8907     1  0.0000000  0.6973333  3
   8894   8892   8891   8905     1  0.0000000  0.6508444  3
   8894   8892   8891   8913     1  0.0000000  1.0460000  1
   8894   8892   8891   8913     1  0.0000000  0.0000000  3
   8895   8896   8897   8900     1  0.0000000  0.6508444  3
   8895   8896   8902   8908     1  0.0000000  1.0460000  1
   8895   8896   8902   8908     1  0.0000000  0.6694400  3
   8895   8892   8904   8907     1  0.0000000  1.0460000  1
   8895   8892   8904   8907     1  0.0000000  0.6694400  3
   8896   8895   8903   8906     1  0.0000000  1.0460000  1
   8896   8895   8903   8906     1  0.0000000  0.6694400  3
   8897   8896   8902   8908     1  0.0000000  1.0460000  1
   8897   8896   8902   8908     1  0.0000000  0.6694400  3
   8897   8896   8895   8899     1  0.0000000  0.6508444  3
   8898   8896   8897   8901     1  0.0000000  1.0460000  1
   8898   8896   8897   8901     1  0.0000000  0.0000000  3
   8898   8896   8897   8913     1  0.0000000  1.0460000  1
   8898   8896   8897   8913     1  0.0000000  0.0000000  3
   8898   8896   8897   8900     1  0.0000000  0.6508444  3
   8898   8896   8902   8908     1  0.0000000  0.6973333  3
   8898   8896   8895   8903     1  0.0000000  1.0460000  1
   8898   8896   8895   8903     1  0.0000000  0.0000000  3
   8898   8896   8895   8899     1  0.0000000  0.6508444  3
   8899   8895   8896   8902     1  0.0000000  1.0460000  1
   8899   8895   8896   8902     1  0.0000000  0.0000000  3
   8899   8895   8903   8906     1  0.0000000  0.6973333  3
   8899   8895   8892   8904     1  0.0000000  1.0460000  1
   8899   8895   8892   8904     1  0.0000000  0.0000000  3
   8900   8897   8896   8902     1  0.0000000  0.6508444  3
   8909   8905   8911   8912     1  0.0000000  0.6973333  3
   8909   8905   8891   8913     1  0.0000000  1.0460000  1
   8909   8905   8891   8913     1  0.0000000  0.0000000  3
   8910   8905   8911   8912     1  0.0000000  0.6973333  3
   8910   8905   8891   8913     1  0.0000000  1.0460000  1
   8910   8905   8891   8913     1  0.0000000  0.0000000  3
   8914   8915   8918   8922     1  0.0000000  0.6508444  3
   8914   8915   8927   8930     1  0.0000000  1.0460000  1
   8914   8915   8927   8930     1  0.0000000  0.6694400  3
   8914   8928   8934   8935     1  0.0000000  1.0460000  1
   8914   8928   8934   8935     1  0.0000000  0.6694400  3
   8914   8936   8920   8923     1  0.0000000  1.6038667  3
   8915   8914   8928   8932     1  0.0000000  0.6508444  3
   8915   8914   8928   8933     1  0.0000000  0.6508444  3
   8915   8918   8919   8921     1  0.0000000  0.6508444  3
   8915   8918   8926   8929     1  0.0000000  1.0460000  1
   8915   8918   8926   8929     1  0.0000000  0.6694400  3
   8916   8914   8915   8918     1  0.0000000  0.6508444  3
   8916   8914   8915   8927     1  0.0000000  1.0460000  1
   8916   8914   8915   8927     1  0.0000000  0.0000000  3
   8916   8914   8915   8917     1  0.0000000  0.6508444  3
   8916   8914   8928   8934     1  0.0000000  1.0460000  1
   8916   8914   8928   8934     1  0.0000000  0.0000000  3
   8916   8914   8928   8932     1  0.0000000  0.6508444  3
   8916   8914   8928   8933     1  0.0000000  0.6508444  3
   8916   8914   8936   8920     1  0.0000000  1.6038667  3
   8917   8915   8914   8928     1  0.0000000  0.6508444  3
   8917   8915   8914   8936     1  0.0000000  1.0460000  1
   8917   8915   8914   8936     1  0.0000000  0.0000000  3
   8917   8915   8918   8919     1  0.0000000  0.6508444  3
   8917   8915   8918   8926     1  0.0000000  1.0460000  1
   8917   8915   8918   8926     1  0.0000000  0.0000000  3
   8917   8915   8918   8922     1  0.0000000  0.6508444  3
   8917   8915   8927   8930     1  0.0000000  0.6973333  3
   8918   8915   8927   8930     1  0.0000000  1.0460000  1
   8918   8915   8927   8930     1  0.0000000  0.6694400  3
   8918   8919   8920   8923     1  0.0000000  0.6508444  3
   8918   8919   8925   8931     1  0.0000000  1.0460000  1
   8918   8919   8925   8931     1  0.0000000  0.6694400  3
   8919   8918   8926   8929     1  0.0000000  1.0460000  1
   8919   8918   8926   8929     1  0.0000000  0.6694400  3
   8920   8919   8918   8922     1  0.0000000  0.6508444  3
   8920   8919   8925   8931     1  0.0000000  1.0460000  1
   8920   8919   8925   8931     1  0.0000000  0.6694400  3
   8921   8919   8918   8926     1  0.0000000  1.0460000  1
   8921   8919   8918   8926     1  0.0000000  0.0000000  3
   8921   8919   8918   8922     1  0.0000000  0.6508444  3
   8921   8919   8920   8924     1  0.0000000  1.0460000  1
   8921   8919   8920   8924     1  0.0000000  0.0000000  3
   8921   8919   8920   8936     1  0.0000000  1.0460000  1
   8921   8919   8920   8936     1  0.0000000  0.0000000  3
   8921   8919   8920   8923     1  0.0000000  0.6508444  3
   8921   8919   8925   8931     1  0.0000000  0.6973333  3
   8922   8918   8915   8927     1  0.0000000  1.0460000  1
   8922   8918   8915   8927     1  0.0000000  0.0000000  3
   8922   8918   8919   8925     1  0.0000000  1.0460000  1
   8922   8918   8919   8925     1  0.0000000  0.0000000  3
   8922   8918   8926   8929     1  0.0000000  0.6973333  3
   8923   8920   8919   8925     1  0.0000000  0.6508444  3
   8932   8928   8914   8936     1  0.0000000  1.0460000  1
   8932   8928   8914   8936     1  0.0000000  0.0000000  3
   8932   8928   8934   8935     1  0.0000000  0.6973333  3
   8933   8928   8914   8936     1  0.0000000  1.0460000  1
   8933   8928   8914   8936     1  0.0000000  0.0000000  3
   8933   8928   8934   8935     1  0.0000000  0.6973333  3
   8937   8938   8941   8945     1  0.0000000  0.6508444  3
   8937   8938   8950   8953     1  0.0000000  1.0460000  1
   8937   8938   8950   8953     1  0.0000000  0.6694400  3
   8937   8951   8957   8958     1  0.0000000  1.0460000  1
   8937   8951   8957   8958     1  0.0000000  0.6694400  3
   8937   8959   8943   8946     1  0.0000000  1.6038667  3
   8938   8941   8942   8944     1  0.0000000  0.6508444  3
   8938   8941   8949   8952     1  0.0000000  1.0460000  1
   8938   8941   8949   8952     1  0.0000000  0.6694400  3
   8938   8937   8951   8955     1  0.0000000  0.6508444  3
   8938   8937   8951   8956     1  0.0000000  0.6508444  3
   8939   8937   8938   8941     1  0.0000000  0.6508444  3
   8939   8937   8938   8950     1  0.0000000  1.0460000  1
   8939   8937   8938   8950     1  0.0000000  0.0000000  3
   8939   8937   8938   8940     1  0.0000000  0.6508444  3
   8939   8937   8951   8957     1  0.0000000  1.0460000  1
   8939   8937   8951   8957     1  0.0000000  0.0000000  3
   8939   8937   8951   8955     1  0.0000000  0.6508444  3
   8939   8937   8951   8956     1  0.0000000  0.6508444  3
   8939   8937   8959   8943     1  0.0000000  1.6038667  3
   8940   8938   8941   8942     1  0.0000000  0.6508444  3
   8940   8938   8941   8949     1  0.0000000  1.0460000  1
   8940   8938   8941   8949     1  0.0000000  0.0000000  3
   8940   8938   8941   8945     1  0.0000000  0.6508444  3
   8940   8938   8950   8953     1  0.0000000  0.6973333  3
   8940   8938   8937   8951     1  0.0000000  0.6508444  3
   8940   8938   8937   8959     1  0.0000000  1.0460000  1
   8940   8938   8937   8959     1  0.0000000  0.0000000  3
   8941   8942   8943   8946     1  0.0000000  0.6508444  3
   8941   8942   8948   8954     1  0.0000000  1.0460000  1
   8941   8942   8948   8954     1  0.0000000  0.6694400  3
   8941   8938   8950   8953     1  0.0000000  1.0460000  1
   8941   8938   8950   8953     1  0.0000000  0.6694400  3
   8942   8941   8949   8952     1  0.0000000  1.0460000  1
   8942   8941   8949   8952     1  0.0000000  0.6694400  3
   8943   8942   8948   8954     1  0.0000000  1.0460000  1
   8943   8942   8948   8954     1  0.0000000  0.6694400  3
   8943   8942   8941   8945     1  0.0000000  0.6508444  3
   8944   8942   8943   8947     1  0.0000000  1.0460000  1
   8944   8942   8943   8947     1  0.0000000  0.0000000  3
   8944   8942   8943   8959     1  0.0000000  1.0460000  1
   8944   8942   8943   8959     1  0.0000000  0.0000000  3
   8944   8942   8943   8946     1  0.0000000  0.6508444  3
   8944   8942   8948   8954     1  0.0000000  0.6973333  3
   8944   8942   8941   8949     1  0.0000000  1.0460000  1
   8944   8942   8941   8949     1  0.0000000  0.0000000  3
   8944   8942   8941   8945     1  0.0000000  0.6508444  3
   8945   8941   8942   8948     1  0.0000000  1.0460000  1
   8945   8941   8942   8948     1  0.0000000  0.0000000  3
   8945   8941   8949   8952     1  0.0000000  0.6973333  3
   8945   8941   8938   8950     1  0.0000000  1.0460000  1
   8945   8941   8938   8950     1  0.0000000  0.0000000  3
   8946   8943   8942   8948     1  0.0000000  0.6508444  3
   8955   8951   8957   8958     1  0.0000000  0.6973333  3
   8955   8951   8937   8959     1  0.0000000  1.0460000  1
   8955   8951   8937   8959     1  0.0000000  0.0000000  3
   8956   8951   8957   8958     1  0.0000000  0.6973333  3
   8956   8951   8937   8959     1  0.0000000  1.0460000  1
   8956   8951   8937   8959     1  0.0000000  0.0000000  3
   8960   8961   8964   8968     1  0.0000000  0.6508444  3
   8960   8961   8973   8976     1  0.0000000  1.0460000  1
   8960   8961   8973   8976     1  0.0000000  0.6694400  3
   8960   8974   8980   8981     1  0.0000000  1.0460000  1
   8960   8974   8980   8981     1  0.0000000  0.6694400  3
   8960   8982   8966   8969     1  0.0000000  1.6038667  3
   8961   8960   8974   8978     1  0.0000000  0.6508444  3
   8961   8960   8974   8979     1  0.0000000  0.6508444  3
   8961   8964   8965   8967     1  0.0000000  0.6508444  3
   8961   8964   8972   8975     1  0.0000000  1.0460000  1
   8961   8964   8972   8975     1  0.0000000  0.6694400  3
   8962   8960   8961   8964     1  0.0000000  0.6508444  3
   8962   8960   8961   8973     1  0.0000000  1.0460000  1
   8962   8960   8961   8973     1  0.0000000  0.0000000  3
   8962   8960   8961   8963     1  0.0000000  0.6508444  3
   8962   8960   8974   8980     1  0.0000000  1.0460000  1
   8962   8960   8974   8980     1  0.0000000  0.0000000  3
   8962   8960   8974   8978     1  0.0000000  0.6508444  3
   8962   8960   8974   8979     1  0.0000000  0.6508444  3
   8962   8960   8982   8966     1  0.0000000  1.6038667  3
   8963   8961   8960   8974     1  0.0000000  0.6508444  3
   8963   8961   8960   8982     1  0.0000000  1.0460000  1
   8963   8961   8960   8982     1  0.0000000  0.0000000  3
   8963   8961   8964   8965     1  0.0000000  0.6508444  3
   8963   8961   8964   8972     1  0.0000000  1.0460000  1
   8963   8961   8964   8972     1  0.0000000  0.0000000  3
   8963   8961   8964   8968     1  0.0000000  0.6508444  3
   8963   8961   8973   8976     1  0.0000000  0.6973333  3
   8964   8961   8973   8976     1  0.0000000  1.0460000  1
   8964   8961   8973   8976     1  0.0000000  0.6694400  3
   8964   8965   8966   8969     1  0.0000000  0.6508444  3
   8964   8965   8971   8977     1  0.0000000  1.0460000  1
   8964   8965   8971   8977     1  0.0000000  0.6694400  3
   8965   8964   8972   8975     1  0.0000000  1.0460000  1
   8965   8964   8972   8975     1  0.0000000  0.6694400  3
   8966   8965   8964   8968     1  0.0000000  0.6508444  3
   8966   8965   8971   8977     1  0.0000000  1.0460000  1
   8966   8965   8971   8977     1  0.0000000  0.6694400  3
   8967   8965   8964   8972     1  0.0000000  1.0460000  1
   8967   8965   8964   8972     1  0.0000000  0.0000000  3
   8967   8965   8964   8968     1  0.0000000  0.6508444  3
   8967   8965   8966   8970     1  0.0000000  1.0460000  1
   8967   8965   8966   8970     1  0.0000000  0.0000000  3
   8967   8965   8966   8982     1  0.0000000  1.0460000  1
   8967   8965   8966   8982     1  0.0000000  0.0000000  3
   8967   8965   8966   8969     1  0.0000000  0.6508444  3
   8967   8965   8971   8977     1  0.0000000  0.6973333  3
   8968   8964   8961   8973     1  0.0000000  1.0460000  1
   8968   8964   8961   8973     1  0.0000000  0.0000000  3
   8968   8964   8965   8971     1  0.0000000  1.0460000  1
   8968   8964   8965   8971     1  0.0000000  0.0000000  3
   8968   8964   8972   8975     1  0.0000000  0.6973333  3
   8969   8966   8965   8971     1  0.0000000  0.6508444  3
   8978   8974   8960   8982     1  0.0000000  1.0460000  1
   8978   8974   8960   8982     1  0.0000000  0.0000000  3
   8978   8974   8980   8981     1  0.0000000  0.6973333  3
   8979   8974   8960   8982     1  0.0000000  1.0460000  1
   8979   8974   8960   8982     1  0.0000000  0.0000000  3
   8979   8974   8980   8981     1  0.0000000  0.6973333  3
   8983   8984   8987   8991     1  0.0000000  0.6508444  3
   8983   8984   8996   8999     1  0.0000000  1.0460000  1
   8983   8984   8996   8999     1  0.0000000  0.6694400  3
   8983   8997   9003   9004     1  0.0000000  1.0460000  1
   8983   8997   9003   9004     1  0.0000000  0.6694400  3
   8983   9005   8989   8992     1  0.0000000  1.6038667  3
   8984   8987   8988   8990     1  0.0000000  0.6508444  3
   8984   8987   8995   8998     1  0.0000000  1.0460000  1
   8984   8987   8995   8998     1  0.0000000  0.6694400  3
   8984   8983   8997   9001     1  0.0000000  0.6508444  3
   8984   8983   8997   9002     1  0.0000000  0.6508444  3
   8985   8983   8984   8987     1  0.0000000  0.6508444  3
   8985   8983   8984   8996     1  0.0000000  1.0460000  1
   8985   8983   8984   8996     1  0.0000000  0.0000000  3
   8985   8983   8984   8986     1  0.0000000  0.6508444  3
   8985   8983   8997   9003     1  0.0000000  1.0460000  1
   8985   8983   8997   9003     1  0.0000000  0.0000000  3
   8985   8983   8997   9001     1  0.0000000  0.6508444  3
   8985   8983   8997   9002     1  0.0000000  0.6508444  3
   8985   8983   9005   8989     1  0.0000000  1.6038667  3
   8986   8984   8987   8988     1  0.0000000  0.6508444  3
   8986   8984   8987   8995     1  0.0000000  1.0460000  1
   8986   8984   8987   8995     1  0.0000000  0.0000000  3
   8986   8984   8987   8991     1  0.0000000  0.6508444  3
   8986   8984   8996   8999     1  0.0000000  0.6973333  3
   8986   8984   8983   8997     1  0.0000000  0.6508444  3
   8986   8984   8983   9005     1  0.0000000  1.0460000  1
   8986   8984   8983   9005     1  0.0000000  0.0000000  3
   8987   8988   8989   8992     1  0.0000000  0.6508444  3
   8987   8988   8994   9000     1  0.0000000  1.0460000  1
   8987   8988   8994   9000     1  0.0000000  0.6694400  3
   8987   8984   8996   8999     1  0.0000000  1.0460000  1
   8987   8984   8996   8999     1  0.0000000  0.6694400  3
   8988   8987   8995   8998     1  0.0000000  1.0460000  1
   8988   8987   8995   8998     1  0.0000000  0.6694400  3
   8989   8988   8994   9000     1  0.0000000  1.0460000  1
   8989   8988   8994   9000     1  0.0000000  0.6694400  3
   8989   8988   8987   8991     1  0.0000000  0.6508444  3
   8990   8988   8989   8993     1  0.0000000  1.0460000  1
   8990   8988   8989   8993     1  0.0000000  0.0000000  3
   8990   8988   8989   9005     1  0.0000000  1.0460000  1
   8990   8988   8989   9005     1  0.0000000  0.0000000  3
   8990   8988   8989   8992     1  0.0000000  0.6508444  3
   8990   8988   8994   9000     1  0.0000000  0.6973333  3
   8990   8988   8987   8995     1  0.0000000  1.0460000  1
   8990   8988   8987   8995     1  0.0000000  0.0000000  3
   8990   8988   8987   8991     1  0.0000000  0.6508444  3
   8991   8987   8988   8994     1  0.0000000  1.0460000  1
   8991   8987   8988   8994     1  0.0000000  0.0000000  3
   8991   8987   8995   8998     1  0.0000000  0.6973333  3
   8991   8987   8984   8996     1  0.0000000  1.0460000  1
   8991   8987   8984   8996     1  0.0000000  0.0000000  3
   8992   8989   8988   8994     1  0.0000000  0.6508444  3
   9001   8997   9003   9004     1  0.0000000  0.6973333  3
   9001   8997   8983   9005     1  0.0000000  1.0460000  1
   9001   8997   8983   9005     1  0.0000000  0.0000000  3
   9002   8997   9003   9004     1  0.0000000  0.6973333  3
   9002   8997   8983   9005     1  0.0000000  1.0460000  1
   9002   8997   8983   9005     1  0.0000000  0.0000000  3
   9006   9007   9010   9014     1  0.0000000  0.6508444  3
   9006   9007   9019   9022     1  0.0000000  1.0460000  1
   9006   9007   9019   9022     1  0.0000000  0.6694400  3
   9006   9020   9026   9027     1  0.0000000  1.0460000  1
   9006   9020   9026   9027     1  0.0000000  0.6694400  3
   9006   9028   9012   9015     1  0.0000000  1.6038667  3
   9007   9006   9020   9024     1  0.0000000  0.6508444  3
   9007   9006   9020   9025     1  0.0000000  0.6508444  3
   9007   9010   9011   9013     1  0.0000000  0.6508444  3
   9007   9010   9018   9021     1  0.0000000  1.0460000  1
   9007   9010   9018   9021     1  0.0000000  0.6694400  3
   9008   9006   9007   9010     1  0.0000000  0.6508444  3
   9008   9006   9007   9019     1  0.0000000  1.0460000  1
   9008   9006   9007   9019     1  0.0000000  0.0000000  3
   9008   9006   9007   9009     1  0.0000000  0.6508444  3
   9008   9006   9020   9026     1  0.0000000  1.0460000  1
   9008   9006   9020   9026     1  0.0000000  0.0000000  3
   9008   9006   9020   9024     1  0.0000000  0.6508444  3
   9008   9006   9020   9025     1  0.0000000  0.6508444  3
   9008   9006   9028   9012     1  0.0000000  1.6038667  3
   9009   9007   9006   9020     1  0.0000000  0.6508444  3
   9009   9007   9006   9028     1  0.0000000  1.0460000  1
   9009   9007   9006   9028     1  0.0000000  0.0000000  3
   9009   9007   9010   9011     1  0.0000000  0.6508444  3
   9009   9007   9010   9018     1  0.0000000  1.0460000  1
   9009   9007   9010   9018     1  0.0000000  0.0000000  3
   9009   9007   9010   9014     1  0.0000000  0.6508444  3
   9009   9007   9019   9022     1  0.0000000  0.6973333  3
   9010   9007   9019   9022     1  0.0000000  1.0460000  1
   9010   9007   9019   9022     1  0.0000000  0.6694400  3
   9010   9011   9012   9015     1  0.0000000  0.6508444  3
   9010   9011   9017   9023     1  0.0000000  1.0460000  1
   9010   9011   9017   9023     1  0.0000000  0.6694400  3
   9011   9010   9018   9021     1  0.0000000  1.0460000  1
   9011   9010   9018   9021     1  0.0000000  0.6694400  3
   9012   9011   9010   9014     1  0.0000000  0.6508444  3
   9012   9011   9017   9023     1  0.0000000  1.0460000  1
   9012   9011   9017   9023     1  0.0000000  0.6694400  3
   9013   9011   9010   9018     1  0.0000000  1.0460000  1
   9013   9011   9010   9018     1  0.0000000  0.0000000  3
   9013   9011   9010   9014     1  0.0000000  0.6508444  3
   9013   9011   9012   9016     1  0.0000000  1.0460000  1
   9013   9011   9012   9016     1  0.0000000  0.0000000  3
   9013   9011   9012   9028     1  0.0000000  1.0460000  1
   9013   9011   9012   9028     1  0.0000000  0.0000000  3
   9013   9011   9012   9015     1  0.0000000  0.6508444  3
   9013   9011   9017   9023     1  0.0000000  0.6973333  3
   9014   9010   9007   9019     1  0.0000000  1.0460000  1
   9014   9010   9007   9019     1  0.0000000  0.0000000  3
   9014   9010   9011   9017     1  0.0000000  1.0460000  1
   9014   9010   9011   9017     1  0.0000000  0.0000000  3
   9014   9010   9018   9021     1  0.0000000  0.6973333  3
   9015   9012   9011   9017     1  0.0000000  0.6508444  3
   9024   9020   9006   9028     1  0.0000000  1.0460000  1
   9024   9020   9006   9028     1  0.0000000  0.0000000  3
   9024   9020   9026   9027     1  0.0000000  0.6973333  3
   9025   9020   9006   9028     1  0.0000000  1.0460000  1
   9025   9020   9006   9028     1  0.0000000  0.0000000  3
   9025   9020   9026   9027     1  0.0000000  0.6973333  3
   9029   9030   9033   9037     1  0.0000000  0.6508444  3
   9029   9030   9042   9045     1  0.0000000  1.0460000  1
   9029   9030   9042   9045     1  0.0000000  0.6694400  3
   9029   9043   9049   9050     1  0.0000000  1.0460000  1
   9029   9043   9049   9050     1  0.0000000  0.6694400  3
   9029   9051   9035   9038     1  0.0000000  1.6038667  3
   9030   9033   9034   9036     1  0.0000000  0.6508444  3
   9030   9033   9041   9044     1  0.0000000  1.0460000  1
   9030   9033   9041   9044     1  0.0000000  0.6694400  3
   9030   9029   9043   9047     1  0.0000000  0.6508444  3
   9030   9029   9043   9048     1  0.0000000  0.6508444  3
   9031   9029   9030   9033     1  0.0000000  0.6508444  3
   9031   9029   9030   9042     1  0.0000000  1.0460000  1
   9031   9029   9030   9042     1  0.0000000  0.0000000  3
   9031   9029   9030   9032     1  0.0000000  0.6508444  3
   9031   9029   9043   9049     1  0.0000000  1.0460000  1
   9031   9029   9043   9049     1  0.0000000  0.0000000  3
   9031   9029   9043   9047     1  0.0000000  0.6508444  3
   9031   9029   9043   9048     1  0.0000000  0.6508444  3
   9031   9029   9051   9035     1  0.0000000  1.6038667  3
   9032   9030   9033   9034     1  0.0000000  0.6508444  3
   9032   9030   9033   9041     1  0.0000000  1.0460000  1
   9032   9030   9033   9041     1  0.0000000  0.0000000  3
   9032   9030   9033   9037     1  0.0000000  0.6508444  3
   9032   9030   9042   9045     1  0.0000000  0.6973333  3
   9032   9030   9029   9043     1  0.0000000  0.6508444  3
   9032   9030   9029   9051     1  0.0000000  1.0460000  1
   9032   9030   9029   9051     1  0.0000000  0.0000000  3
   9033   9034   9035   9038     1  0.0000000  0.6508444  3
   9033   9034   9040   9046     1  0.0000000  1.0460000  1
   9033   9034   9040   9046     1  0.0000000  0.6694400  3
   9033   9030   9042   9045     1  0.0000000  1.0460000  1
   9033   9030   9042   9045     1  0.0000000  0.6694400  3
   9034   9033   9041   9044     1  0.0000000  1.0460000  1
   9034   9033   9041   9044     1  0.0000000  0.6694400  3
   9035   9034   9040   9046     1  0.0000000  1.0460000  1
   9035   9034   9040   9046     1  0.0000000  0.6694400  3
   9035   9034   9033   9037     1  0.0000000  0.6508444  3
   9036   9034   9035   9039     1  0.0000000  1.0460000  1
   9036   9034   9035   9039     1  0.0000000  0.0000000  3
   9036   9034   9035   9051     1  0.0000000  1.0460000  1
   9036   9034   9035   9051     1  0.0000000  0.0000000  3
   9036   9034   9035   9038     1  0.0000000  0.6508444  3
   9036   9034   9040   9046     1  0.0000000  0.6973333  3
   9036   9034   9033   9041     1  0.0000000  1.0460000  1
   9036   9034   9033   9041     1  0.0000000  0.0000000  3
   9036   9034   9033   9037     1  0.0000000  0.6508444  3
   9037   9033   9034   9040     1  0.0000000  1.0460000  1
   9037   9033   9034   9040     1  0.0000000  0.0000000  3
   9037   9033   9041   9044     1  0.0000000  0.6973333  3
   9037   9033   9030   9042     1  0.0000000  1.0460000  1
   9037   9033   9030   9042     1  0.0000000  0.0000000  3
   9038   9035   9034   9040     1  0.0000000  0.6508444  3
   9047   9043   9049   9050     1  0.0000000  0.6973333  3
   9047   9043   9029   9051     1  0.0000000  1.0460000  1
   9047   9043   9029   9051     1  0.0000000  0.0000000  3
   9048   9043   9049   9050     1  0.0000000  0.6973333  3
   9048   9043   9029   9051     1  0.0000000  1.0460000  1
   9048   9043   9029   9051     1  0.0000000  0.0000000  3
   9052   9053   9056   9060     1  0.0000000  0.6508444  3
   9052   9053   9065   9068     1  0.0000000  1.0460000  1
   9052   9053   9065   9068     1  0.0000000  0.6694400  3
   9052   9066   9072   9073     1  0.0000000  1.0460000  1
   9052   9066   9072   9073     1  0.0000000  0.6694400  3
   9052   9074   9058   9061     1  0.0000000  1.6038667  3
   9053   9052   9066   9070     1  0.0000000  0.6508444  3
   9053   9052   9066   9071     1  0.0000000  0.6508444  3
   9053   9056   9057   9059     1  0.0000000  0.6508444  3
   9053   9056   9064   9067     1  0.0000000  1.0460000  1
   9053   9056   9064   9067     1  0.0000000  0.6694400  3
   9054   9052   9053   9056     1  0.0000000  0.6508444  3
   9054   9052   9053   9065     1  0.0000000  1.0460000  1
   9054   9052   9053   9065     1  0.0000000  0.0000000  3
   9054   9052   9053   9055     1  0.0000000  0.6508444  3
   9054   9052   9066   9072     1  0.0000000  1.0460000  1
   9054   9052   9066   9072     1  0.0000000  0.0000000  3
   9054   9052   9066   9070     1  0.0000000  0.6508444  3
   9054   9052   9066   9071     1  0.0000000  0.6508444  3
   9054   9052   9074   9058     1  0.0000000  1.6038667  3
   9055   9053   9052   9066     1  0.0000000  0.6508444  3
   9055   9053   9052   9074     1  0.0000000  1.0460000  1
   9055   9053   9052   9074     1  0.0000000  0.0000000  3
   9055   9053   9056   9057     1  0.0000000  0.6508444  3
   9055   9053   9056   9064     1  0.0000000  1.0460000  1
   9055   9053   9056   9064     1  0.0000000  0.0000000  3
   9055   9053   9056   9060     1  0.0000000  0.6508444  3
   9055   9053   9065   9068     1  0.0000000  0.6973333  3
   9056   9053   9065   9068     1  0.0000000  1.0460000  1
   9056   9053   9065   9068     1  0.0000000  0.6694400  3
   9056   9057   9058   9061     1  0.0000000  0.6508444  3
   9056   9057   9063   9069     1  0.0000000  1.0460000  1
   9056   9057   9063   9069     1  0.0000000  0.6694400  3
   9057   9056   9064   9067     1  0.0000000  1.0460000  1
   9057   9056   9064   9067     1  0.0000000  0.6694400  3
   9058   9057   9056   9060     1  0.0000000  0.6508444  3
   9058   9057   9063   9069     1  0.0000000  1.0460000  1
   9058   9057   9063   9069     1  0.0000000  0.6694400  3
   9059   9057   9056   9064     1  0.0000000  1.0460000  1
   9059   9057   9056   9064     1  0.0000000  0.0000000  3
   9059   9057   9056   9060     1  0.0000000  0.6508444  3
   9059   9057   9058   9062     1  0.0000000  1.0460000  1
   9059   9057   9058   9062     1  0.0000000  0.0000000  3
   9059   9057   9058   9074     1  0.0000000  1.0460000  1
   9059   9057   9058   9074     1  0.0000000  0.0000000  3
   9059   9057   9058   9061     1  0.0000000  0.6508444  3
   9059   9057   9063   9069     1  0.0000000  0.6973333  3
   9060   9056   9053   9065     1  0.0000000  1.0460000  1
   9060   9056   9053   9065     1  0.0000000  0.0000000  3
   9060   9056   9057   9063     1  0.0000000  1.0460000  1
   9060   9056   9057   9063     1  0.0000000  0.0000000  3
   9060   9056   9064   9067     1  0.0000000  0.6973333  3
   9061   9058   9057   9063     1  0.0000000  0.6508444  3
   9070   9066   9052   9074     1  0.0000000  1.0460000  1
   9070   9066   9052   9074     1  0.0000000  0.0000000  3
   9070   9066   9072   9073     1  0.0000000  0.6973333  3
   9071   9066   9052   9074     1  0.0000000  1.0460000  1
   9071   9066   9052   9074     1  0.0000000  0.0000000  3
   9071   9066   9072   9073     1  0.0000000  0.6973333  3
   9075   9076   9079   9083     1  0.0000000  0.6508444  3
   9075   9076   9088   9091     1  0.0000000  1.0460000  1
   9075   9076   9088   9091     1  0.0000000  0.6694400  3
   9075   9089   9095   9096     1  0.0000000  1.0460000  1
   9075   9089   9095   9096     1  0.0000000  0.6694400  3
   9075   9097   9081   9084     1  0.0000000  1.6038667  3
   9076   9079   9080   9082     1  0.0000000  0.6508444  3
   9076   9079   9087   9090     1  0.0000000  1.0460000  1
   9076   9079   9087   9090     1  0.0000000  0.6694400  3
   9076   9075   9089   9093     1  0.0000000  0.6508444  3
   9076   9075   9089   9094     1  0.0000000  0.6508444  3
   9077   9075   9076   9079     1  0.0000000  0.6508444  3
   9077   9075   9076   9088     1  0.0000000  1.0460000  1
   9077   9075   9076   9088     1  0.0000000  0.0000000  3
   9077   9075   9076   9078     1  0.0000000  0.6508444  3
   9077   9075   9089   9095     1  0.0000000  1.0460000  1
   9077   9075   9089   9095     1  0.0000000  0.0000000  3
   9077   9075   9089   9093     1  0.0000000  0.6508444  3
   9077   9075   9089   9094     1  0.0000000  0.6508444  3
   9077   9075   9097   9081     1  0.0000000  1.6038667  3
   9078   9076   9079   9080     1  0.0000000  0.6508444  3
   9078   9076   9079   9087     1  0.0000000  1.0460000  1
   9078   9076   9079   9087     1  0.0000000  0.0000000  3
   9078   9076   9079   9083     1  0.0000000  0.6508444  3
   9078   9076   9088   9091     1  0.0000000  0.6973333  3
   9078   9076   9075   9089     1  0.0000000  0.6508444  3
   9078   9076   9075   9097     1  0.0000000  1.0460000  1
   9078   9076   9075   9097     1  0.0000000  0.0000000  3
   9079   9080   9081   9084     1  0.0000000  0.6508444  3
   9079   9080   9086   9092     1  0.0000000  1.0460000  1
   9079   9080   9086   9092     1  0.0000000  0.6694400  3
   9079   9076   9088   9091     1  0.0000000  1.0460000  1
   9079   9076   9088   9091     1  0.0000000  0.6694400  3
   9080   9079   9087   9090     1  0.0000000  1.0460000  1
   9080   9079   9087   9090     1  0.0000000  0.6694400  3
   9081   9080   9086   9092     1  0.0000000  1.0460000  1
   9081   9080   9086   9092     1  0.0000000  0.6694400  3
   9081   9080   9079   9083     1  0.0000000  0.6508444  3
   9082   9080   9081   9085     1  0.0000000  1.0460000  1
   9082   9080   9081   9085     1  0.0000000  0.0000000  3
   9082   9080   9081   9097     1  0.0000000  1.0460000  1
   9082   9080   9081   9097     1  0.0000000  0.0000000  3
   9082   9080   9081   9084     1  0.0000000  0.6508444  3
   9082   9080   9086   9092     1  0.0000000  0.6973333  3
   9082   9080   9079   9087     1  0.0000000  1.0460000  1
   9082   9080   9079   9087     1  0.0000000  0.0000000  3
   9082   9080   9079   9083     1  0.0000000  0.6508444  3
   9083   9079   9080   9086     1  0.0000000  1.0460000  1
   9083   9079   9080   9086     1  0.0000000  0.0000000  3
   9083   9079   9087   9090     1  0.0000000  0.6973333  3
   9083   9079   9076   9088     1  0.0000000  1.0460000  1
   9083   9079   9076   9088     1  0.0000000  0.0000000  3
   9084   9081   9080   9086     1  0.0000000  0.6508444  3
   9093   9089   9095   9096     1  0.0000000  0.6973333  3
   9093   9089   9075   9097     1  0.0000000  1.0460000  1
   9093   9089   9075   9097     1  0.0000000  0.0000000  3
   9094   9089   9095   9096     1  0.0000000  0.6973333  3
   9094   9089   9075   9097     1  0.0000000  1.0460000  1
   9094   9089   9075   9097     1  0.0000000  0.0000000  3
   9098   9099   9102   9106     1  0.0000000  0.6508444  3
   9098   9099   9111   9114     1  0.0000000  1.0460000  1
   9098   9099   9111   9114     1  0.0000000  0.6694400  3
   9098   9112   9118   9119     1  0.0000000  1.0460000  1
   9098   9112   9118   9119     1  0.0000000  0.6694400  3
   9098   9120   9104   9107     1  0.0000000  1.6038667  3
   9099   9098   9112   9116     1  0.0000000  0.6508444  3
   9099   9098   9112   9117     1  0.0000000  0.6508444  3
   9099   9102   9103   9105     1  0.0000000  0.6508444  3
   9099   9102   9110   9113     1  0.0000000  1.0460000  1
   9099   9102   9110   9113     1  0.0000000  0.6694400  3
   9100   9098   9099   9102     1  0.0000000  0.6508444  3
   9100   9098   9099   9111     1  0.0000000  1.0460000  1
   9100   9098   9099   9111     1  0.0000000  0.0000000  3
   9100   9098   9099   9101     1  0.0000000  0.6508444  3
   9100   9098   9112   9118     1  0.0000000  1.0460000  1
   9100   9098   9112   9118     1  0.0000000  0.0000000  3
   9100   9098   9112   9116     1  0.0000000  0.6508444  3
   9100   9098   9112   9117     1  0.0000000  0.6508444  3
   9100   9098   9120   9104     1  0.0000000  1.6038667  3
   9101   9099   9098   9112     1  0.0000000  0.6508444  3
   9101   9099   9098   9120     1  0.0000000  1.0460000  1
   9101   9099   9098   9120     1  0.0000000  0.0000000  3
   9101   9099   9102   9103     1  0.0000000  0.6508444  3
   9101   9099   9102   9110     1  0.0000000  1.0460000  1
   9101   9099   9102   9110     1  0.0000000  0.0000000  3
   9101   9099   9102   9106     1  0.0000000  0.6508444  3
   9101   9099   9111   9114     1  0.0000000  0.6973333  3
   9102   9099   9111   9114     1  0.0000000  1.0460000  1
   9102   9099   9111   9114     1  0.0000000  0.6694400  3
   9102   9103   9104   9107     1  0.0000000  0.6508444  3
   9102   9103   9109   9115     1  0.0000000  1.0460000  1
   9102   9103   9109   9115     1  0.0000000  0.6694400  3
   9103   9102   9110   9113     1  0.0000000  1.0460000  1
   9103   9102   9110   9113     1  0.0000000  0.6694400  3
   9104   9103   9102   9106     1  0.0000000  0.6508444  3
   9104   9103   9109   9115     1  0.0000000  1.0460000  1
   9104   9103   9109   9115     1  0.0000000  0.6694400  3
   9105   9103   9102   9110     1  0.0000000  1.0460000  1
   9105   9103   9102   9110     1  0.0000000  0.0000000  3
   9105   9103   9102   9106     1  0.0000000  0.6508444  3
   9105   9103   9104   9108     1  0.0000000  1.0460000  1
   9105   9103   9104   9108     1  0.0000000  0.0000000  3
   9105   9103   9104   9120     1  0.0000000  1.0460000  1
   9105   9103   9104   9120     1  0.0000000  0.0000000  3
   9105   9103   9104   9107     1  0.0000000  0.6508444  3
   9105   9103   9109   9115     1  0.0000000  0.6973333  3
   9106   9102   9099   9111     1  0.0000000  1.0460000  1
   9106   9102   9099   9111     1  0.0000000  0.0000000  3
   9106   9102   9103   9109     1  0.0000000  1.0460000  1
   9106   9102   9103   9109     1  0.0000000  0.0000000  3
   9106   9102   9110   9113     1  0.0000000  0.6973333  3
   9107   9104   9103   9109     1  0.0000000  0.6508444  3
   9116   9112   9098   9120     1  0.0000000  1.0460000  1
   9116   9112   9098   9120     1  0.0000000  0.0000000  3
   9116   9112   9118   9119     1  0.0000000  0.6973333  3
   9117   9112   9098   9120     1  0.0000000  1.0460000  1
   9117   9112   9098   9120     1  0.0000000  0.0000000  3
   9117   9112   9118   9119     1  0.0000000  0.6973333  3
   9121   9122   9125   9129     1  0.0000000  0.6508444  3
   9121   9122   9134   9137     1  0.0000000  1.0460000  1
   9121   9122   9134   9137     1  0.0000000  0.6694400  3
   9121   9135   9141   9142     1  0.0000000  1.0460000  1
   9121   9135   9141   9142     1  0.0000000  0.6694400  3
   9121   9143   9127   9130     1  0.0000000  1.6038667  3
   9122   9125   9126   9128     1  0.0000000  0.6508444  3
   9122   9125   9133   9136     1  0.0000000  1.0460000  1
   9122   9125   9133   9136     1  0.0000000  0.6694400  3
   9122   9121   9135   9139     1  0.0000000  0.6508444  3
   9122   9121   9135   9140     1  0.0000000  0.6508444  3
   9123   9121   9122   9125     1  0.0000000  0.6508444  3
   9123   9121   9122   9134     1  0.0000000  1.0460000  1
   9123   9121   9122   9134     1  0.0000000  0.0000000  3
   9123   9121   9122   9124     1  0.0000000  0.6508444  3
   9123   9121   9135   9141     1  0.0000000  1.0460000  1
   9123   9121   9135   9141     1  0.0000000  0.0000000  3
   9123   9121   9135   9139     1  0.0000000  0.6508444  3
   9123   9121   9135   9140     1  0.0000000  0.6508444  3
   9123   9121   9143   9127     1  0.0000000  1.6038667  3
   9124   9122   9125   9126     1  0.0000000  0.6508444  3
   9124   9122   9125   9133     1  0.0000000  1.0460000  1
   9124   9122   9125   9133     1  0.0000000  0.0000000  3
   9124   9122   9125   9129     1  0.0000000  0.6508444  3
   9124   9122   9134   9137     1  0.0000000  0.6973333  3
   9124   9122   9121   9135     1  0.0000000  0.6508444  3
   9124   9122   9121   9143     1  0.0000000  1.0460000  1
   9124   9122   9121   9143     1  0.0000000  0.0000000  3
   9125   9126   9127   9130     1  0.0000000  0.6508444  3
   9125   9126   9132   9138     1  0.0000000  1.0460000  1
   9125   9126   9132   9138     1  0.0000000  0.6694400  3
   9125   9122   9134   9137     1  0.0000000  1.0460000  1
   9125   9122   9134   9137     1  0.0000000  0.6694400  3
   9126   9125   9133   9136     1  0.0000000  1.0460000  1
   9126   9125   9133   9136     1  0.0000000  0.6694400  3
   9127   9126   9132   9138     1  0.0000000  1.0460000  1
   9127   9126   9132   9138     1  0.0000000  0.6694400  3
   9127   9126   9125   9129     1  0.0000000  0.6508444  3
   9128   9126   9127   9131     1  0.0000000  1.0460000  1
   9128   9126   9127   9131     1  0.0000000  0.0000000  3
   9128   9126   9127   9143     1  0.0000000  1.0460000  1
   9128   9126   9127   9143     1  0.0000000  0.0000000  3
   9128   9126   9127   9130     1  0.0000000  0.6508444  3
   9128   9126   9132   9138     1  0.0000000  0.6973333  3
   9128   9126   9125   9133     1  0.0000000  1.0460000  1
   9128   9126   9125   9133     1  0.0000000  0.0000000  3
   9128   9126   9125   9129     1  0.0000000  0.6508444  3
   9129   9125   9126   9132     1  0.0000000  1.0460000  1
   9129   9125   9126   9132     1  0.0000000  0.0000000  3
   9129   9125   9133   9136     1  0.0000000  0.6973333  3
   9129   9125   9122   9134     1  0.0000000  1.0460000  1
   9129   9125   9122   9134     1  0.0000000  0.0000000  3
   9130   9127   9126   9132     1  0.0000000  0.6508444  3
   9139   9135   9141   9142     1  0.0000000  0.6973333  3
   9139   9135   9121   9143     1  0.0000000  1.0460000  1
   9139   9135   9121   9143     1  0.0000000  0.0000000  3
   9140   9135   9141   9142     1  0.0000000  0.6973333  3
   9140   9135   9121   9143     1  0.0000000  1.0460000  1
   9140   9135   9121   9143     1  0.0000000  0.0000000  3
   9144   9145   9148   9152     1  0.0000000  0.6508444  3
   9144   9145   9157   9160     1  0.0000000  1.0460000  1
   9144   9145   9157   9160     1  0.0000000  0.6694400  3
   9144   9158   9164   9165     1  0.0000000  1.0460000  1
   9144   9158   9164   9165     1  0.0000000  0.6694400  3
   9144   9166   9150   9153     1  0.0000000  1.6038667  3
   9145   9144   9158   9162     1  0.0000000  0.6508444  3
   9145   9144   9158   9163     1  0.0000000  0.6508444  3
   9145   9148   9149   9151     1  0.0000000  0.6508444  3
   9145   9148   9156   9159     1  0.0000000  1.0460000  1
   9145   9148   9156   9159     1  0.0000000  0.6694400  3
   9146   9144   9145   9148     1  0.0000000  0.6508444  3
   9146   9144   9145   9157     1  0.0000000  1.0460000  1
   9146   9144   9145   9157     1  0.0000000  0.0000000  3
   9146   9144   9145   9147     1  0.0000000  0.6508444  3
   9146   9144   9158   9164     1  0.0000000  1.0460000  1
   9146   9144   9158   9164     1  0.0000000  0.0000000  3
   9146   9144   9158   9162     1  0.0000000  0.6508444  3
   9146   9144   9158   9163     1  0.0000000  0.6508444  3
   9146   9144   9166   9150     1  0.0000000  1.6038667  3
   9147   9145   9144   9158     1  0.0000000  0.6508444  3
   9147   9145   9144   9166     1  0.0000000  1.0460000  1
   9147   9145   9144   9166     1  0.0000000  0.0000000  3
   9147   9145   9148   9149     1  0.0000000  0.6508444  3
   9147   9145   9148   9156     1  0.0000000  1.0460000  1
   9147   9145   9148   9156     1  0.0000000  0.0000000  3
   9147   9145   9148   9152     1  0.0000000  0.6508444  3
   9147   9145   9157   9160     1  0.0000000  0.6973333  3
   9148   9145   9157   9160     1  0.0000000  1.0460000  1
   9148   9145   9157   9160     1  0.0000000  0.6694400  3
   9148   9149   9150   9153     1  0.0000000  0.6508444  3
   9148   9149   9155   9161     1  0.0000000  1.0460000  1
   9148   9149   9155   9161     1  0.0000000  0.6694400  3
   9149   9148   9156   9159     1  0.0000000  1.0460000  1
   9149   9148   9156   9159     1  0.0000000  0.6694400  3
   9150   9149   9148   9152     1  0.0000000  0.6508444  3
   9150   9149   9155   9161     1  0.0000000  1.0460000  1
   9150   9149   9155   9161     1  0.0000000  0.6694400  3
   9151   9149   9148   9156     1  0.0000000  1.0460000  1
   9151   9149   9148   9156     1  0.0000000  0.0000000  3
   9151   9149   9148   9152     1  0.0000000  0.6508444  3
   9151   9149   9150   9154     1  0.0000000  1.0460000  1
   9151   9149   9150   9154     1  0.0000000  0.0000000  3
   9151   9149   9150   9166     1  0.0000000  1.0460000  1
   9151   9149   9150   9166     1  0.0000000  0.0000000  3
   9151   9149   9150   9153     1  0.0000000  0.6508444  3
   9151   9149   9155   9161     1  0.0000000  0.6973333  3
   9152   9148   9145   9157     1  0.0000000  1.0460000  1
   9152   9148   9145   9157     1  0.0000000  0.0000000  3
   9152   9148   9149   9155     1  0.0000000  1.0460000  1
   9152   9148   9149   9155     1  0.0000000  0.0000000  3
   9152   9148   9156   9159     1  0.0000000  0.6973333  3
   9153   9150   9149   9155     1  0.0000000  0.6508444  3
   9162   9158   9144   9166     1  0.0000000  1.0460000  1
   9162   9158   9144   9166     1  0.0000000  0.0000000  3
   9162   9158   9164   9165     1  0.0000000  0.6973333  3
   9163   9158   9144   9166     1  0.0000000  1.0460000  1
   9163   9158   9144   9166     1  0.0000000  0.0000000  3
   9163   9158   9164   9165     1  0.0000000  0.6973333  3
   9167   9168   9171   9175     1  0.0000000  0.6508444  3
   9167   9168   9180   9183     1  0.0000000  1.0460000  1
   9167   9168   9180   9183     1  0.0000000  0.6694400  3
   9167   9181   9187   9188     1  0.0000000  1.0460000  1
   9167   9181   9187   9188     1  0.0000000  0.6694400  3
   9167   9189   9173   9176     1  0.0000000  1.6038667  3
   9168   9171   9172   9174     1  0.0000000  0.6508444  3
   9168   9171   9179   9182     1  0.0000000  1.0460000  1
   9168   9171   9179   9182     1  0.0000000  0.6694400  3
   9168   9167   9181   9185     1  0.0000000  0.6508444  3
   9168   9167   9181   9186     1  0.0000000  0.6508444  3
   9169   9167   9168   9171     1  0.0000000  0.6508444  3
   9169   9167   9168   9180     1  0.0000000  1.0460000  1
   9169   9167   9168   9180     1  0.0000000  0.0000000  3
   9169   9167   9168   9170     1  0.0000000  0.6508444  3
   9169   9167   9181   9187     1  0.0000000  1.0460000  1
   9169   9167   9181   9187     1  0.0000000  0.0000000  3
   9169   9167   9181   9185     1  0.0000000  0.6508444  3
   9169   9167   9181   9186     1  0.0000000  0.6508444  3
   9169   9167   9189   9173     1  0.0000000  1.6038667  3
   9170   9168   9171   9172     1  0.0000000  0.6508444  3
   9170   9168   9171   9179     1  0.0000000  1.0460000  1
   9170   9168   9171   9179     1  0.0000000  0.0000000  3
   9170   9168   9171   9175     1  0.0000000  0.6508444  3
   9170   9168   9180   9183     1  0.0000000  0.6973333  3
   9170   9168   9167   9181     1  0.0000000  0.6508444  3
   9170   9168   9167   9189     1  0.0000000  1.0460000  1
   9170   9168   9167   9189     1  0.0000000  0.0000000  3
   9171   9172   9173   9176     1  0.0000000  0.6508444  3
   9171   9172   9178   9184     1  0.0000000  1.0460000  1
   9171   9172   9178   9184     1  0.0000000  0.6694400  3
   9171   9168   9180   9183     1  0.0000000  1.0460000  1
   9171   9168   9180   9183     1  0.0000000  0.6694400  3
   9172   9171   9179   9182     1  0.0000000  1.0460000  1
   9172   9171   9179   9182     1  0.0000000  0.6694400  3
   9173   9172   9178   9184     1  0.0000000  1.0460000  1
   9173   9172   9178   9184     1  0.0000000  0.6694400  3
   9173   9172   9171   9175     1  0.0000000  0.6508444  3
   9174   9172   9173   9177     1  0.0000000  1.0460000  1
   9174   9172   9173   9177     1  0.0000000  0.0000000  3
   9174   9172   9173   9189     1  0.0000000  1.0460000  1
   9174   9172   9173   9189     1  0.0000000  0.0000000  3
   9174   9172   9173   9176     1  0.0000000  0.6508444  3
   9174   9172   9178   9184     1  0.0000000  0.6973333  3
   9174   9172   9171   9179     1  0.0000000  1.0460000  1
   9174   9172   9171   9179     1  0.0000000  0.0000000  3
   9174   9172   9171   9175     1  0.0000000  0.6508444  3
   9175   9171   9172   9178     1  0.0000000  1.0460000  1
   9175   9171   9172   9178     1  0.0000000  0.0000000  3
   9175   9171   9179   9182     1  0.0000000  0.6973333  3
   9175   9171   9168   9180     1  0.0000000  1.0460000  1
   9175   9171   9168   9180     1  0.0000000  0.0000000  3
   9176   9173   9172   9178     1  0.0000000  0.6508444  3
   9185   9181   9187   9188     1  0.0000000  0.6973333  3
   9185   9181   9167   9189     1  0.0000000  1.0460000  1
   9185   9181   9167   9189     1  0.0000000  0.0000000  3
   9186   9181   9187   9188     1  0.0000000  0.6973333  3
   9186   9181   9167   9189     1  0.0000000  1.0460000  1
   9186   9181   9167   9189     1  0.0000000  0.0000000  3
   9190   9191   9194   9198     1  0.0000000  0.6508444  3
   9190   9191   9203   9206     1  0.0000000  1.0460000  1
   9190   9191   9203   9206     1  0.0000000  0.6694400  3
   9190   9204   9210   9211     1  0.0000000  1.0460000  1
   9190   9204   9210   9211     1  0.0000000  0.6694400  3
   9190   9212   9196   9199     1  0.0000000  1.6038667  3
   9191   9190   9204   9208     1  0.0000000  0.6508444  3
   9191   9190   9204   9209     1  0.0000000  0.6508444  3
   9191   9194   9195   9197     1  0.0000000  0.6508444  3
   9191   9194   9202   9205     1  0.0000000  1.0460000  1
   9191   9194   9202   9205     1  0.0000000  0.6694400  3
   9192   9190   9191   9194     1  0.0000000  0.6508444  3
   9192   9190   9191   9203     1  0.0000000  1.0460000  1
   9192   9190   9191   9203     1  0.0000000  0.0000000  3
   9192   9190   9191   9193     1  0.0000000  0.6508444  3
   9192   9190   9204   9210     1  0.0000000  1.0460000  1
   9192   9190   9204   9210     1  0.0000000  0.0000000  3
   9192   9190   9204   9208     1  0.0000000  0.6508444  3
   9192   9190   9204   9209     1  0.0000000  0.6508444  3
   9192   9190   9212   9196     1  0.0000000  1.6038667  3
   9193   9191   9190   9204     1  0.0000000  0.6508444  3
   9193   9191   9190   9212     1  0.0000000  1.0460000  1
   9193   9191   9190   9212     1  0.0000000  0.0000000  3
   9193   9191   9194   9195     1  0.0000000  0.6508444  3
   9193   9191   9194   9202     1  0.0000000  1.0460000  1
   9193   9191   9194   9202     1  0.0000000  0.0000000  3
   9193   9191   9194   9198     1  0.0000000  0.6508444  3
   9193   9191   9203   9206     1  0.0000000  0.6973333  3
   9194   9191   9203   9206     1  0.0000000  1.0460000  1
   9194   9191   9203   9206     1  0.0000000  0.6694400  3
   9194   9195   9196   9199     1  0.0000000  0.6508444  3
   9194   9195   9201   9207     1  0.0000000  1.0460000  1
   9194   9195   9201   9207     1  0.0000000  0.6694400  3
   9195   9194   9202   9205     1  0.0000000  1.0460000  1
   9195   9194   9202   9205     1  0.0000000  0.6694400  3
   9196   9195   9194   9198     1  0.0000000  0.6508444  3
   9196   9195   9201   9207     1  0.0000000  1.0460000  1
   9196   9195   9201   9207     1  0.0000000  0.6694400  3
   9197   9195   9194   9202     1  0.0000000  1.0460000  1
   9197   9195   9194   9202     1  0.0000000  0.0000000  3
   9197   9195   9194   9198     1  0.0000000  0.6508444  3
   9197   9195   9196   9200     1  0.0000000  1.0460000  1
   9197   9195   9196   9200     1  0.0000000  0.0000000  3
   9197   9195   9196   9212     1  0.0000000  1.0460000  1
   9197   9195   9196   9212     1  0.0000000  0.0000000  3
   9197   9195   9196   9199     1  0.0000000  0.6508444  3
   9197   9195   9201   9207     1  0.0000000  0.6973333  3
   9198   9194   9191   9203     1  0.0000000  1.0460000  1
   9198   9194   9191   9203     1  0.0000000  0.0000000  3
   9198   9194   9195   9201     1  0.0000000  1.0460000  1
   9198   9194   9195   9201     1  0.0000000  0.0000000  3
   9198   9194   9202   9205     1  0.0000000  0.6973333  3
   9199   9196   9195   9201     1  0.0000000  0.6508444  3
   9208   9204   9190   9212     1  0.0000000  1.0460000  1
   9208   9204   9190   9212     1  0.0000000  0.0000000  3
   9208   9204   9210   9211     1  0.0000000  0.6973333  3
   9209   9204   9190   9212     1  0.0000000  1.0460000  1
   9209   9204   9190   9212     1  0.0000000  0.0000000  3
   9209   9204   9210   9211     1  0.0000000  0.6973333  3
   9213   9214   9217   9221     1  0.0000000  0.6508444  3
   9213   9214   9226   9229     1  0.0000000  1.0460000  1
   9213   9214   9226   9229     1  0.0000000  0.6694400  3
   9213   9227   9233   9234     1  0.0000000  1.0460000  1
   9213   9227   9233   9234     1  0.0000000  0.6694400  3
   9213   9235   9219   9222     1  0.0000000  1.6038667  3
   9214   9217   9218   9220     1  0.0000000  0.6508444  3
   9214   9217   9225   9228     1  0.0000000  1.0460000  1
   9214   9217   9225   9228     1  0.0000000  0.6694400  3
   9214   9213   9227   9231     1  0.0000000  0.6508444  3
   9214   9213   9227   9232     1  0.0000000  0.6508444  3
   9215   9213   9214   9217     1  0.0000000  0.6508444  3
   9215   9213   9214   9226     1  0.0000000  1.0460000  1
   9215   9213   9214   9226     1  0.0000000  0.0000000  3
   9215   9213   9214   9216     1  0.0000000  0.6508444  3
   9215   9213   9227   9233     1  0.0000000  1.0460000  1
   9215   9213   9227   9233     1  0.0000000  0.0000000  3
   9215   9213   9227   9231     1  0.0000000  0.6508444  3
   9215   9213   9227   9232     1  0.0000000  0.6508444  3
   9215   9213   9235   9219     1  0.0000000  1.6038667  3
   9216   9214   9217   9218     1  0.0000000  0.6508444  3
   9216   9214   9217   9225     1  0.0000000  1.0460000  1
   9216   9214   9217   9225     1  0.0000000  0.0000000  3
   9216   9214   9217   9221     1  0.0000000  0.6508444  3
   9216   9214   9226   9229     1  0.0000000  0.6973333  3
   9216   9214   9213   9227     1  0.0000000  0.6508444  3
   9216   9214   9213   9235     1  0.0000000  1.0460000  1
   9216   9214   9213   9235     1  0.0000000  0.0000000  3
   9217   9218   9219   9222     1  0.0000000  0.6508444  3
   9217   9218   9224   9230     1  0.0000000  1.0460000  1
   9217   9218   9224   9230     1  0.0000000  0.6694400  3
   9217   9214   9226   9229     1  0.0000000  1.0460000  1
   9217   9214   9226   9229     1  0.0000000  0.6694400  3
   9218   9217   9225   9228     1  0.0000000  1.0460000  1
   9218   9217   9225   9228     1  0.0000000  0.6694400  3
   9219   9218   9224   9230     1  0.0000000  1.0460000  1
   9219   9218   9224   9230     1  0.0000000  0.6694400  3
   9219   9218   9217   9221     1  0.0000000  0.6508444  3
   9220   9218   9219   9223     1  0.0000000  1.0460000  1
   9220   9218   9219   9223     1  0.0000000  0.0000000  3
   9220   9218   9219   9235     1  0.0000000  1.0460000  1
   9220   9218   9219   9235     1  0.0000000  0.0000000  3
   9220   9218   9219   9222     1  0.0000000  0.6508444  3
   9220   9218   9224   9230     1  0.0000000  0.6973333  3
   9220   9218   9217   9225     1  0.0000000  1.0460000  1
   9220   9218   9217   9225     1  0.0000000  0.0000000  3
   9220   9218   9217   9221     1  0.0000000  0.6508444  3
   9221   9217   9218   9224     1  0.0000000  1.0460000  1
   9221   9217   9218   9224     1  0.0000000  0.0000000  3
   9221   9217   9225   9228     1  0.0000000  0.6973333  3
   9221   9217   9214   9226     1  0.0000000  1.0460000  1
   9221   9217   9214   9226     1  0.0000000  0.0000000  3
   9222   9219   9218   9224     1  0.0000000  0.6508444  3
   9231   9227   9233   9234     1  0.0000000  0.6973333  3
   9231   9227   9213   9235     1  0.0000000  1.0460000  1
   9231   9227   9213   9235     1  0.0000000  0.0000000  3
   9232   9227   9233   9234     1  0.0000000  0.6973333  3
   9232   9227   9213   9235     1  0.0000000  1.0460000  1
   9232   9227   9213   9235     1  0.0000000  0.0000000  3
   9236   9237   9240   9244     1  0.0000000  0.6508444  3
   9236   9237   9249   9252     1  0.0000000  1.0460000  1
   9236   9237   9249   9252     1  0.0000000  0.6694400  3
   9236   9250   9256   9257     1  0.0000000  1.0460000  1
   9236   9250   9256   9257     1  0.0000000  0.6694400  3
   9236   9258   9242   9245     1  0.0000000  1.6038667  3
   9237   9236   9250   9254     1  0.0000000  0.6508444  3
   9237   9236   9250   9255     1  0.0000000  0.6508444  3
   9237   9240   9241   9243     1  0.0000000  0.6508444  3
   9237   9240   9248   9251     1  0.0000000  1.0460000  1
   9237   9240   9248   9251     1  0.0000000  0.6694400  3
   9238   9236   9237   9240     1  0.0000000  0.6508444  3
   9238   9236   9237   9249     1  0.0000000  1.0460000  1
   9238   9236   9237   9249     1  0.0000000  0.0000000  3
   9238   9236   9237   9239     1  0.0000000  0.6508444  3
   9238   9236   9250   9256     1  0.0000000  1.0460000  1
   9238   9236   9250   9256     1  0.0000000  0.0000000  3
   9238   9236   9250   9254     1  0.0000000  0.6508444  3
   9238   9236   9250   9255     1  0.0000000  0.6508444  3
   9238   9236   9258   9242     1  0.0000000  1.6038667  3
   9239   9237   9236   9250     1  0.0000000  0.6508444  3
   9239   9237   9236   9258     1  0.0000000  1.0460000  1
   9239   9237   9236   9258     1  0.0000000  0.0000000  3
   9239   9237   9240   9241     1  0.0000000  0.6508444  3
   9239   9237   9240   9248     1  0.0000000  1.0460000  1
   9239   9237   9240   9248     1  0.0000000  0.0000000  3
   9239   9237   9240   9244     1  0.0000000  0.6508444  3
   9239   9237   9249   9252     1  0.0000000  0.6973333  3
   9240   9237   9249   9252     1  0.0000000  1.0460000  1
   9240   9237   9249   9252     1  0.0000000  0.6694400  3
   9240   9241   9242   9245     1  0.0000000  0.6508444  3
   9240   9241   9247   9253     1  0.0000000  1.0460000  1
   9240   9241   9247   9253     1  0.0000000  0.6694400  3
   9241   9240   9248   9251     1  0.0000000  1.0460000  1
   9241   9240   9248   9251     1  0.0000000  0.6694400  3
   9242   9241   9240   9244     1  0.0000000  0.6508444  3
   9242   9241   9247   9253     1  0.0000000  1.0460000  1
   9242   9241   9247   9253     1  0.0000000  0.6694400  3
   9243   9241   9240   9248     1  0.0000000  1.0460000  1
   9243   9241   9240   9248     1  0.0000000  0.0000000  3
   9243   9241   9240   9244     1  0.0000000  0.6508444  3
   9243   9241   9242   9246     1  0.0000000  1.0460000  1
   9243   9241   9242   9246     1  0.0000000  0.0000000  3
   9243   9241   9242   9258     1  0.0000000  1.0460000  1
   9243   9241   9242   9258     1  0.0000000  0.0000000  3
   9243   9241   9242   9245     1  0.0000000  0.6508444  3
   9243   9241   9247   9253     1  0.0000000  0.6973333  3
   9244   9240   9237   9249     1  0.0000000  1.0460000  1
   9244   9240   9237   9249     1  0.0000000  0.0000000  3
   9244   9240   9241   9247     1  0.0000000  1.0460000  1
   9244   9240   9241   9247     1  0.0000000  0.0000000  3
   9244   9240   9248   9251     1  0.0000000  0.6973333  3
   9245   9242   9241   9247     1  0.0000000  0.6508444  3
   9254   9250   9236   9258     1  0.0000000  1.0460000  1
   9254   9250   9236   9258     1  0.0000000  0.0000000  3
   9254   9250   9256   9257     1  0.0000000  0.6973333  3
   9255   9250   9236   9258     1  0.0000000  1.0460000  1
   9255   9250   9236   9258     1  0.0000000  0.0000000  3
   9255   9250   9256   9257     1  0.0000000  0.6973333  3
   9259   9260   9263   9267     1  0.0000000  0.6508444  3
   9259   9260   9272   9275     1  0.0000000  1.0460000  1
   9259   9260   9272   9275     1  0.0000000  0.6694400  3
   9259   9273   9279   9280     1  0.0000000  1.0460000  1
   9259   9273   9279   9280     1  0.0000000  0.6694400  3
   9259   9281   9265   9268     1  0.0000000  1.6038667  3
   9260   9263   9264   9266     1  0.0000000  0.6508444  3
   9260   9263   9271   9274     1  0.0000000  1.0460000  1
   9260   9263   9271   9274     1  0.0000000  0.6694400  3
   9260   9259   9273   9277     1  0.0000000  0.6508444  3
   9260   9259   9273   9278     1  0.0000000  0.6508444  3
   9261   9259   9260   9263     1  0.0000000  0.6508444  3
   9261   9259   9260   9272     1  0.0000000  1.0460000  1
   9261   9259   9260   9272     1  0.0000000  0.0000000  3
   9261   9259   9260   9262     1  0.0000000  0.6508444  3
   9261   9259   9273   9279     1  0.0000000  1.0460000  1
   9261   9259   9273   9279     1  0.0000000  0.0000000  3
   9261   9259   9273   9277     1  0.0000000  0.6508444  3
   9261   9259   9273   9278     1  0.0000000  0.6508444  3
   9261   9259   9281   9265     1  0.0000000  1.6038667  3
   9262   9260   9263   9264     1  0.0000000  0.6508444  3
   9262   9260   9263   9271     1  0.0000000  1.0460000  1
   9262   9260   9263   9271     1  0.0000000  0.0000000  3
   9262   9260   9263   9267     1  0.0000000  0.6508444  3
   9262   9260   9272   9275     1  0.0000000  0.6973333  3
   9262   9260   9259   9273     1  0.0000000  0.6508444  3
   9262   9260   9259   9281     1  0.0000000  1.0460000  1
   9262   9260   9259   9281     1  0.0000000  0.0000000  3
   9263   9264   9265   9268     1  0.0000000  0.6508444  3
   9263   9264   9270   9276     1  0.0000000  1.0460000  1
   9263   9264   9270   9276     1  0.0000000  0.6694400  3
   9263   9260   9272   9275     1  0.0000000  1.0460000  1
   9263   9260   9272   9275     1  0.0000000  0.6694400  3
   9264   9263   9271   9274     1  0.0000000  1.0460000  1
   9264   9263   9271   9274     1  0.0000000  0.6694400  3
   9265   9264   9270   9276     1  0.0000000  1.0460000  1
   9265   9264   9270   9276     1  0.0000000  0.6694400  3
   9265   9264   9263   9267     1  0.0000000  0.6508444  3
   9266   9264   9265   9269     1  0.0000000  1.0460000  1
   9266   9264   9265   9269     1  0.0000000  0.0000000  3
   9266   9264   9265   9281     1  0.0000000  1.0460000  1
   9266   9264   9265   9281     1  0.0000000  0.0000000  3
   9266   9264   9265   9268     1  0.0000000  0.6508444  3
   9266   9264   9270   9276     1  0.0000000  0.6973333  3
   9266   9264   9263   9271     1  0.0000000  1.0460000  1
   9266   9264   9263   9271     1  0.0000000  0.0000000  3
   9266   9264   9263   9267     1  0.0000000  0.6508444  3
   9267   9263   9264   9270     1  0.0000000  1.0460000  1
   9267   9263   9264   9270     1  0.0000000  0.0000000  3
   9267   9263   9271   9274     1  0.0000000  0.6973333  3
   9267   9263   9260   9272     1  0.0000000  1.0460000  1
   9267   9263   9260   9272     1  0.0000000  0.0000000  3
   9268   9265   9264   9270     1  0.0000000  0.6508444  3
   9277   9273   9279   9280     1  0.0000000  0.6973333  3
   9277   9273   9259   9281     1  0.0000000  1.0460000  1
   9277   9273   9259   9281     1  0.0000000  0.0000000  3
   9278   9273   9279   9280     1  0.0000000  0.6973333  3
   9278   9273   9259   9281     1  0.0000000  1.0460000  1
   9278   9273   9259   9281     1  0.0000000  0.0000000  3
   9282   9283   9286   9290     1  0.0000000  0.6508444  3
   9282   9283   9295   9298     1  0.0000000  1.0460000  1
   9282   9283   9295   9298     1  0.0000000  0.6694400  3
   9282   9296   9302   9303     1  0.0000000  1.0460000  1
   9282   9296   9302   9303     1  0.0000000  0.6694400  3
   9282   9304   9288   9291     1  0.0000000  1.6038667  3
   9283   9282   9296   9300     1  0.0000000  0.6508444  3
   9283   9282   9296   9301     1  0.0000000  0.6508444  3
   9283   9286   9287   9289     1  0.0000000  0.6508444  3
   9283   9286   9294   9297     1  0.0000000  1.0460000  1
   9283   9286   9294   9297     1  0.0000000  0.6694400  3
   9284   9282   9283   9286     1  0.0000000  0.6508444  3
   9284   9282   9283   9295     1  0.0000000  1.0460000  1
   9284   9282   9283   9295     1  0.0000000  0.0000000  3
   9284   9282   9283   9285     1  0.0000000  0.6508444  3
   9284   9282   9296   9302     1  0.0000000  1.0460000  1
   9284   9282   9296   9302     1  0.0000000  0.0000000  3
   9284   9282   9296   9300     1  0.0000000  0.6508444  3
   9284   9282   9296   9301     1  0.0000000  0.6508444  3
   9284   9282   9304   9288     1  0.0000000  1.6038667  3
   9285   9283   9282   9296     1  0.0000000  0.6508444  3
   9285   9283   9282   9304     1  0.0000000  1.0460000  1
   9285   9283   9282   9304     1  0.0000000  0.0000000  3
   9285   9283   9286   9287     1  0.0000000  0.6508444  3
   9285   9283   9286   9294     1  0.0000000  1.0460000  1
   9285   9283   9286   9294     1  0.0000000  0.0000000  3
   9285   9283   9286   9290     1  0.0000000  0.6508444  3
   9285   9283   9295   9298     1  0.0000000  0.6973333  3
   9286   9283   9295   9298     1  0.0000000  1.0460000  1
   9286   9283   9295   9298     1  0.0000000  0.6694400  3
   9286   9287   9288   9291     1  0.0000000  0.6508444  3
   9286   9287   9293   9299     1  0.0000000  1.0460000  1
   9286   9287   9293   9299     1  0.0000000  0.6694400  3
   9287   9286   9294   9297     1  0.0000000  1.0460000  1
   9287   9286   9294   9297     1  0.0000000  0.6694400  3
   9288   9287   9286   9290     1  0.0000000  0.6508444  3
   9288   9287   9293   9299     1  0.0000000  1.0460000  1
   9288   9287   9293   9299     1  0.0000000  0.6694400  3
   9289   9287   9286   9294     1  0.0000000  1.0460000  1
   9289   9287   9286   9294     1  0.0000000  0.0000000  3
   9289   9287   9286   9290     1  0.0000000  0.6508444  3
   9289   9287   9288   9292     1  0.0000000  1.0460000  1
   9289   9287   9288   9292     1  0.0000000  0.0000000  3
   9289   9287   9288   9304     1  0.0000000  1.0460000  1
   9289   9287   9288   9304     1  0.0000000  0.0000000  3
   9289   9287   9288   9291     1  0.0000000  0.6508444  3
   9289   9287   9293   9299     1  0.0000000  0.6973333  3
   9290   9286   9283   9295     1  0.0000000  1.0460000  1
   9290   9286   9283   9295     1  0.0000000  0.0000000  3
   9290   9286   9287   9293     1  0.0000000  1.0460000  1
   9290   9286   9287   9293     1  0.0000000  0.0000000  3
   9290   9286   9294   9297     1  0.0000000  0.6973333  3
   9291   9288   9287   9293     1  0.0000000  0.6508444  3
   9300   9296   9282   9304     1  0.0000000  1.0460000  1
   9300   9296   9282   9304     1  0.0000000  0.0000000  3
   9300   9296   9302   9303     1  0.0000000  0.6973333  3
   9301   9296   9282   9304     1  0.0000000  1.0460000  1
   9301   9296   9282   9304     1  0.0000000  0.0000000  3
   9301   9296   9302   9303     1  0.0000000  0.6973333  3
   9305   9306   9309   9313     1  0.0000000  0.6508444  3
   9305   9306   9318   9321     1  0.0000000  1.0460000  1
   9305   9306   9318   9321     1  0.0000000  0.6694400  3
   9305   9319   9325   9326     1  0.0000000  1.0460000  1
   9305   9319   9325   9326     1  0.0000000  0.6694400  3
   9305   9327   9311   9314     1  0.0000000  1.6038667  3
   9306   9309   9310   9312     1  0.0000000  0.6508444  3
   9306   9309   9317   9320     1  0.0000000  1.0460000  1
   9306   9309   9317   9320     1  0.0000000  0.6694400  3
   9306   9305   9319   9323     1  0.0000000  0.6508444  3
   9306   9305   9319   9324     1  0.0000000  0.6508444  3
   9307   9305   9306   9309     1  0.0000000  0.6508444  3
   9307   9305   9306   9318     1  0.0000000  1.0460000  1
   9307   9305   9306   9318     1  0.0000000  0.0000000  3
   9307   9305   9306   9308     1  0.0000000  0.6508444  3
   9307   9305   9319   9325     1  0.0000000  1.0460000  1
   9307   9305   9319   9325     1  0.0000000  0.0000000  3
   9307   9305   9319   9323     1  0.0000000  0.6508444  3
   9307   9305   9319   9324     1  0.0000000  0.6508444  3
   9307   9305   9327   9311     1  0.0000000  1.6038667  3
   9308   9306   9309   9310     1  0.0000000  0.6508444  3
   9308   9306   9309   9317     1  0.0000000  1.0460000  1
   9308   9306   9309   9317     1  0.0000000  0.0000000  3
   9308   9306   9309   9313     1  0.0000000  0.6508444  3
   9308   9306   9318   9321     1  0.0000000  0.6973333  3
   9308   9306   9305   9319     1  0.0000000  0.6508444  3
   9308   9306   9305   9327     1  0.0000000  1.0460000  1
   9308   9306   9305   9327     1  0.0000000  0.0000000  3
   9309   9310   9311   9314     1  0.0000000  0.6508444  3
   9309   9310   9316   9322     1  0.0000000  1.0460000  1
   9309   9310   9316   9322     1  0.0000000  0.6694400  3
   9309   9306   9318   9321     1  0.0000000  1.0460000  1
   9309   9306   9318   9321     1  0.0000000  0.6694400  3
   9310   9309   9317   9320     1  0.0000000  1.0460000  1
   9310   9309   9317   9320     1  0.0000000  0.6694400  3
   9311   9310   9316   9322     1  0.0000000  1.0460000  1
   9311   9310   9316   9322     1  0.0000000  0.6694400  3
   9311   9310   9309   9313     1  0.0000000  0.6508444  3
   9312   9310   9311   9315     1  0.0000000  1.0460000  1
   9312   9310   9311   9315     1  0.0000000  0.0000000  3
   9312   9310   9311   9327     1  0.0000000  1.0460000  1
   9312   9310   9311   9327     1  0.0000000  0.0000000  3
   9312   9310   9311   9314     1  0.0000000  0.6508444  3
   9312   9310   9316   9322     1  0.0000000  0.6973333  3
   9312   9310   9309   9317     1  0.0000000  1.0460000  1
   9312   9310   9309   9317     1  0.0000000  0.0000000  3
   9312   9310   9309   9313     1  0.0000000  0.6508444  3
   9313   9309   9310   9316     1  0.0000000  1.0460000  1
   9313   9309   9310   9316     1  0.0000000  0.0000000  3
   9313   9309   9317   9320     1  0.0000000  0.6973333  3
   9313   9309   9306   9318     1  0.0000000  1.0460000  1
   9313   9309   9306   9318     1  0.0000000  0.0000000  3
   9314   9311   9310   9316     1  0.0000000  0.6508444  3
   9323   9319   9325   9326     1  0.0000000  0.6973333  3
   9323   9319   9305   9327     1  0.0000000  1.0460000  1
   9323   9319   9305   9327     1  0.0000000  0.0000000  3
   9324   9319   9325   9326     1  0.0000000  0.6973333  3
   9324   9319   9305   9327     1  0.0000000  1.0460000  1
   9324   9319   9305   9327     1  0.0000000  0.0000000  3
   9328   9329   9332   9336     1  0.0000000  0.6508444  3
   9328   9329   9341   9344     1  0.0000000  1.0460000  1
   9328   9329   9341   9344     1  0.0000000  0.6694400  3
   9328   9342   9348   9349     1  0.0000000  1.0460000  1
   9328   9342   9348   9349     1  0.0000000  0.6694400  3
   9328   9350   9334   9337     1  0.0000000  1.6038667  3
   9329   9328   9342   9346     1  0.0000000  0.6508444  3
   9329   9328   9342   9347     1  0.0000000  0.6508444  3
   9329   9332   9333   9335     1  0.0000000  0.6508444  3
   9329   9332   9340   9343     1  0.0000000  1.0460000  1
   9329   9332   9340   9343     1  0.0000000  0.6694400  3
   9330   9328   9329   9332     1  0.0000000  0.6508444  3
   9330   9328   9329   9341     1  0.0000000  1.0460000  1
   9330   9328   9329   9341     1  0.0000000  0.0000000  3
   9330   9328   9329   9331     1  0.0000000  0.6508444  3
   9330   9328   9342   9348     1  0.0000000  1.0460000  1
   9330   9328   9342   9348     1  0.0000000  0.0000000  3
   9330   9328   9342   9346     1  0.0000000  0.6508444  3
   9330   9328   9342   9347     1  0.0000000  0.6508444  3
   9330   9328   9350   9334     1  0.0000000  1.6038667  3
   9331   9329   9328   9342     1  0.0000000  0.6508444  3
   9331   9329   9328   9350     1  0.0000000  1.0460000  1
   9331   9329   9328   9350     1  0.0000000  0.0000000  3
   9331   9329   9332   9333     1  0.0000000  0.6508444  3
   9331   9329   9332   9340     1  0.0000000  1.0460000  1
   9331   9329   9332   9340     1  0.0000000  0.0000000  3
   9331   9329   9332   9336     1  0.0000000  0.6508444  3
   9331   9329   9341   9344     1  0.0000000  0.6973333  3
   9332   9329   9341   9344     1  0.0000000  1.0460000  1
   9332   9329   9341   9344     1  0.0000000  0.6694400  3
   9332   9333   9334   9337     1  0.0000000  0.6508444  3
   9332   9333   9339   9345     1  0.0000000  1.0460000  1
   9332   9333   9339   9345     1  0.0000000  0.6694400  3
   9333   9332   9340   9343     1  0.0000000  1.0460000  1
   9333   9332   9340   9343     1  0.0000000  0.6694400  3
   9334   9333   9332   9336     1  0.0000000  0.6508444  3
   9334   9333   9339   9345     1  0.0000000  1.0460000  1
   9334   9333   9339   9345     1  0.0000000  0.6694400  3
   9335   9333   9332   9340     1  0.0000000  1.0460000  1
   9335   9333   9332   9340     1  0.0000000  0.0000000  3
   9335   9333   9332   9336     1  0.0000000  0.6508444  3
   9335   9333   9334   9338     1  0.0000000  1.0460000  1
   9335   9333   9334   9338     1  0.0000000  0.0000000  3
   9335   9333   9334   9350     1  0.0000000  1.0460000  1
   9335   9333   9334   9350     1  0.0000000  0.0000000  3
   9335   9333   9334   9337     1  0.0000000  0.6508444  3
   9335   9333   9339   9345     1  0.0000000  0.6973333  3
   9336   9332   9329   9341     1  0.0000000  1.0460000  1
   9336   9332   9329   9341     1  0.0000000  0.0000000  3
   9336   9332   9333   9339     1  0.0000000  1.0460000  1
   9336   9332   9333   9339     1  0.0000000  0.0000000  3
   9336   9332   9340   9343     1  0.0000000  0.6973333  3
   9337   9334   9333   9339     1  0.0000000  0.6508444  3
   9346   9342   9328   9350     1  0.0000000  1.0460000  1
   9346   9342   9328   9350     1  0.0000000  0.0000000  3
   9346   9342   9348   9349     1  0.0000000  0.6973333  3
   9347   9342   9328   9350     1  0.0000000  1.0460000  1
   9347   9342   9328   9350     1  0.0000000  0.0000000  3
   9347   9342   9348   9349     1  0.0000000  0.6973333  3
   9351   9352   9355   9359     1  0.0000000  0.6508444  3
   9351   9352   9364   9367     1  0.0000000  1.0460000  1
   9351   9352   9364   9367     1  0.0000000  0.6694400  3
   9351   9365   9371   9372     1  0.0000000  1.0460000  1
   9351   9365   9371   9372     1  0.0000000  0.6694400  3
   9351   9373   9357   9360     1  0.0000000  1.6038667  3
   9352   9355   9356   9358     1  0.0000000  0.6508444  3
   9352   9355   9363   9366     1  0.0000000  1.0460000  1
   9352   9355   9363   9366     1  0.0000000  0.6694400  3
   9352   9351   9365   9369     1  0.0000000  0.6508444  3
   9352   9351   9365   9370     1  0.0000000  0.6508444  3
   9353   9351   9352   9355     1  0.0000000  0.6508444  3
   9353   9351   9352   9364     1  0.0000000  1.0460000  1
   9353   9351   9352   9364     1  0.0000000  0.0000000  3
   9353   9351   9352   9354     1  0.0000000  0.6508444  3
   9353   9351   9365   9371     1  0.0000000  1.0460000  1
   9353   9351   9365   9371     1  0.0000000  0.0000000  3
   9353   9351   9365   9369     1  0.0000000  0.6508444  3
   9353   9351   9365   9370     1  0.0000000  0.6508444  3
   9353   9351   9373   9357     1  0.0000000  1.6038667  3
   9354   9352   9355   9356     1  0.0000000  0.6508444  3
   9354   9352   9355   9363     1  0.0000000  1.0460000  1
   9354   9352   9355   9363     1  0.0000000  0.0000000  3
   9354   9352   9355   9359     1  0.0000000  0.6508444  3
   9354   9352   9364   9367     1  0.0000000  0.6973333  3
   9354   9352   9351   9365     1  0.0000000  0.6508444  3
   9354   9352   9351   9373     1  0.0000000  1.0460000  1
   9354   9352   9351   9373     1  0.0000000  0.0000000  3
   9355   9356   9357   9360     1  0.0000000  0.6508444  3
   9355   9356   9362   9368     1  0.0000000  1.0460000  1
   9355   9356   9362   9368     1  0.0000000  0.6694400  3
   9355   9352   9364   9367     1  0.0000000  1.0460000  1
   9355   9352   9364   9367     1  0.0000000  0.6694400  3
   9356   9355   9363   9366     1  0.0000000  1.0460000  1
   9356   9355   9363   9366     1  0.0000000  0.6694400  3
   9357   9356   9362   9368     1  0.0000000  1.0460000  1
   9357   9356   9362   9368     1  0.0000000  0.6694400  3
   9357   9356   9355   9359     1  0.0000000  0.6508444  3
   9358   9356   9357   9361     1  0.0000000  1.0460000  1
   9358   9356   9357   9361     1  0.0000000  0.0000000  3
   9358   9356   9357   9373     1  0.0000000  1.0460000  1
   9358   9356   9357   9373     1  0.0000000  0.0000000  3
   9358   9356   9357   9360     1  0.0000000  0.6508444  3
   9358   9356   9362   9368     1  0.0000000  0.6973333  3
   9358   9356   9355   9363     1  0.0000000  1.0460000  1
   9358   9356   9355   9363     1  0.0000000  0.0000000  3
   9358   9356   9355   9359     1  0.0000000  0.6508444  3
   9359   9355   9356   9362     1  0.0000000  1.0460000  1
   9359   9355   9356   9362     1  0.0000000  0.0000000  3
   9359   9355   9363   9366     1  0.0000000  0.6973333  3
   9359   9355   9352   9364     1  0.0000000  1.0460000  1
   9359   9355   9352   9364     1  0.0000000  0.0000000  3
   9360   9357   9356   9362     1  0.0000000  0.6508444  3
   9369   9365   9371   9372     1  0.0000000  0.6973333  3
   9369   9365   9351   9373     1  0.0000000  1.0460000  1
   9369   9365   9351   9373     1  0.0000000  0.0000000  3
   9370   9365   9371   9372     1  0.0000000  0.6973333  3
   9370   9365   9351   9373     1  0.0000000  1.0460000  1
   9370   9365   9351   9373     1  0.0000000  0.0000000  3
   9374   9375   9378   9382     1  0.0000000  0.6508444  3
   9374   9375   9387   9390     1  0.0000000  1.0460000  1
   9374   9375   9387   9390     1  0.0000000  0.6694400  3
   9374   9388   9394   9395     1  0.0000000  1.0460000  1
   9374   9388   9394   9395     1  0.0000000  0.6694400  3
   9374   9396   9380   9383     1  0.0000000  1.6038667  3
   9375   9374   9388   9392     1  0.0000000  0.6508444  3
   9375   9374   9388   9393     1  0.0000000  0.6508444  3
   9375   9378   9379   9381     1  0.0000000  0.6508444  3
   9375   9378   9386   9389     1  0.0000000  1.0460000  1
   9375   9378   9386   9389     1  0.0000000  0.6694400  3
   9376   9374   9375   9378     1  0.0000000  0.6508444  3
   9376   9374   9375   9387     1  0.0000000  1.0460000  1
   9376   9374   9375   9387     1  0.0000000  0.0000000  3
   9376   9374   9375   9377     1  0.0000000  0.6508444  3
   9376   9374   9388   9394     1  0.0000000  1.0460000  1
   9376   9374   9388   9394     1  0.0000000  0.0000000  3
   9376   9374   9388   9392     1  0.0000000  0.6508444  3
   9376   9374   9388   9393     1  0.0000000  0.6508444  3
   9376   9374   9396   9380     1  0.0000000  1.6038667  3
   9377   9375   9374   9388     1  0.0000000  0.6508444  3
   9377   9375   9374   9396     1  0.0000000  1.0460000  1
   9377   9375   9374   9396     1  0.0000000  0.0000000  3
   9377   9375   9378   9379     1  0.0000000  0.6508444  3
   9377   9375   9378   9386     1  0.0000000  1.0460000  1
   9377   9375   9378   9386     1  0.0000000  0.0000000  3
   9377   9375   9378   9382     1  0.0000000  0.6508444  3
   9377   9375   9387   9390     1  0.0000000  0.6973333  3
   9378   9375   9387   9390     1  0.0000000  1.0460000  1
   9378   9375   9387   9390     1  0.0000000  0.6694400  3
   9378   9379   9380   9383     1  0.0000000  0.6508444  3
   9378   9379   9385   9391     1  0.0000000  1.0460000  1
   9378   9379   9385   9391     1  0.0000000  0.6694400  3
   9379   9378   9386   9389     1  0.0000000  1.0460000  1
   9379   9378   9386   9389     1  0.0000000  0.6694400  3
   9380   9379   9378   9382     1  0.0000000  0.6508444  3
   9380   9379   9385   9391     1  0.0000000  1.0460000  1
   9380   9379   9385   9391     1  0.0000000  0.6694400  3
   9381   9379   9378   9386     1  0.0000000  1.0460000  1
   9381   9379   9378   9386     1  0.0000000  0.0000000  3
   9381   9379   9378   9382     1  0.0000000  0.6508444  3
   9381   9379   9380   9384     1  0.0000000  1.0460000  1
   9381   9379   9380   9384     1  0.0000000  0.0000000  3
   9381   9379   9380   9396     1  0.0000000  1.0460000  1
   9381   9379   9380   9396     1  0.0000000  0.0000000  3
   9381   9379   9380   9383     1  0.0000000  0.6508444  3
   9381   9379   9385   9391     1  0.0000000  0.6973333  3
   9382   9378   9375   9387     1  0.0000000  1.0460000  1
   9382   9378   9375   9387     1  0.0000000  0.0000000  3
   9382   9378   9379   9385     1  0.0000000  1.0460000  1
   9382   9378   9379   9385     1  0.0000000  0.0000000  3
   9382   9378   9386   9389     1  0.0000000  0.6973333  3
   9383   9380   9379   9385     1  0.0000000  0.6508444  3
   9392   9388   9374   9396     1  0.0000000  1.0460000  1
   9392   9388   9374   9396     1  0.0000000  0.0000000  3
   9392   9388   9394   9395     1  0.0000000  0.6973333  3
   9393   9388   9374   9396     1  0.0000000  1.0460000  1
   9393   9388   9374   9396     1  0.0000000  0.0000000  3
   9393   9388   9394   9395     1  0.0000000  0.6973333  3
   9397   9398   9401   9405     1  0.0000000  0.6508444  3
   9397   9398   9410   9413     1  0.0000000  1.0460000  1
   9397   9398   9410   9413     1  0.0000000  0.6694400  3
   9397   9411   9417   9418     1  0.0000000  1.0460000  1
   9397   9411   9417   9418     1  0.0000000  0.6694400  3
   9397   9419   9403   9406     1  0.0000000  1.6038667  3
   9398   9401   9402   9404     1  0.0000000  0.6508444  3
   9398   9401   9409   9412     1  0.0000000  1.0460000  1
   9398   9401   9409   9412     1  0.0000000  0.6694400  3
   9398   9397   9411   9415     1  0.0000000  0.6508444  3
   9398   9397   9411   9416     1  0.0000000  0.6508444  3
   9399   9397   9398   9401     1  0.0000000  0.6508444  3
   9399   9397   9398   9410     1  0.0000000  1.0460000  1
   9399   9397   9398   9410     1  0.0000000  0.0000000  3
   9399   9397   9398   9400     1  0.0000000  0.6508444  3
   9399   9397   9411   9417     1  0.0000000  1.0460000  1
   9399   9397   9411   9417     1  0.0000000  0.0000000  3
   9399   9397   9411   9415     1  0.0000000  0.6508444  3
   9399   9397   9411   9416     1  0.0000000  0.6508444  3
   9399   9397   9419   9403     1  0.0000000  1.6038667  3
   9400   9398   9401   9402     1  0.0000000  0.6508444  3
   9400   9398   9401   9409     1  0.0000000  1.0460000  1
   9400   9398   9401   9409     1  0.0000000  0.0000000  3
   9400   9398   9401   9405     1  0.0000000  0.6508444  3
   9400   9398   9410   9413     1  0.0000000  0.6973333  3
   9400   9398   9397   9411     1  0.0000000  0.6508444  3
   9400   9398   9397   9419     1  0.0000000  1.0460000  1
   9400   9398   9397   9419     1  0.0000000  0.0000000  3
   9401   9402   9403   9406     1  0.0000000  0.6508444  3
   9401   9402   9408   9414     1  0.0000000  1.0460000  1
   9401   9402   9408   9414     1  0.0000000  0.6694400  3
   9401   9398   9410   9413     1  0.0000000  1.0460000  1
   9401   9398   9410   9413     1  0.0000000  0.6694400  3
   9402   9401   9409   9412     1  0.0000000  1.0460000  1
   9402   9401   9409   9412     1  0.0000000  0.6694400  3
   9403   9402   9408   9414     1  0.0000000  1.0460000  1
   9403   9402   9408   9414     1  0.0000000  0.6694400  3
   9403   9402   9401   9405     1  0.0000000  0.6508444  3
   9404   9402   9403   9407     1  0.0000000  1.0460000  1
   9404   9402   9403   9407     1  0.0000000  0.0000000  3
   9404   9402   9403   9419     1  0.0000000  1.0460000  1
   9404   9402   9403   9419     1  0.0000000  0.0000000  3
   9404   9402   9403   9406     1  0.0000000  0.6508444  3
   9404   9402   9408   9414     1  0.0000000  0.6973333  3
   9404   9402   9401   9409     1  0.0000000  1.0460000  1
   9404   9402   9401   9409     1  0.0000000  0.0000000  3
   9404   9402   9401   9405     1  0.0000000  0.6508444  3
   9405   9401   9402   9408     1  0.0000000  1.0460000  1
   9405   9401   9402   9408     1  0.0000000  0.0000000  3
   9405   9401   9409   9412     1  0.0000000  0.6973333  3
   9405   9401   9398   9410     1  0.0000000  1.0460000  1
   9405   9401   9398   9410     1  0.0000000  0.0000000  3
   9406   9403   9402   9408     1  0.0000000  0.6508444  3
   9415   9411   9417   9418     1  0.0000000  0.6973333  3
   9415   9411   9397   9419     1  0.0000000  1.0460000  1
   9415   9411   9397   9419     1  0.0000000  0.0000000  3
   9416   9411   9417   9418     1  0.0000000  0.6973333  3
   9416   9411   9397   9419     1  0.0000000  1.0460000  1
   9416   9411   9397   9419     1  0.0000000  0.0000000  3
   9420   9421   9424   9428     1  0.0000000  0.6508444  3
   9420   9421   9433   9436     1  0.0000000  1.0460000  1
   9420   9421   9433   9436     1  0.0000000  0.6694400  3
   9420   9434   9440   9441     1  0.0000000  1.0460000  1
   9420   9434   9440   9441     1  0.0000000  0.6694400  3
   9420   9442   9426   9429     1  0.0000000  1.6038667  3
   9421   9420   9434   9438     1  0.0000000  0.6508444  3
   9421   9420   9434   9439     1  0.0000000  0.6508444  3
   9421   9424   9425   9427     1  0.0000000  0.6508444  3
   9421   9424   9432   9435     1  0.0000000  1.0460000  1
   9421   9424   9432   9435     1  0.0000000  0.6694400  3
   9422   9420   9421   9424     1  0.0000000  0.6508444  3
   9422   9420   9421   9433     1  0.0000000  1.0460000  1
   9422   9420   9421   9433     1  0.0000000  0.0000000  3
   9422   9420   9421   9423     1  0.0000000  0.6508444  3
   9422   9420   9434   9440     1  0.0000000  1.0460000  1
   9422   9420   9434   9440     1  0.0000000  0.0000000  3
   9422   9420   9434   9438     1  0.0000000  0.6508444  3
   9422   9420   9434   9439     1  0.0000000  0.6508444  3
   9422   9420   9442   9426     1  0.0000000  1.6038667  3
   9423   9421   9420   9434     1  0.0000000  0.6508444  3
   9423   9421   9420   9442     1  0.0000000  1.0460000  1
   9423   9421   9420   9442     1  0.0000000  0.0000000  3
   9423   9421   9424   9425     1  0.0000000  0.6508444  3
   9423   9421   9424   9432     1  0.0000000  1.0460000  1
   9423   9421   9424   9432     1  0.0000000  0.0000000  3
   9423   9421   9424   9428     1  0.0000000  0.6508444  3
   9423   9421   9433   9436     1  0.0000000  0.6973333  3
   9424   9421   9433   9436     1  0.0000000  1.0460000  1
   9424   9421   9433   9436     1  0.0000000  0.6694400  3
   9424   9425   9426   9429     1  0.0000000  0.6508444  3
   9424   9425   9431   9437     1  0.0000000  1.0460000  1
   9424   9425   9431   9437     1  0.0000000  0.6694400  3
   9425   9424   9432   9435     1  0.0000000  1.0460000  1
   9425   9424   9432   9435     1  0.0000000  0.6694400  3
   9426   9425   9424   9428     1  0.0000000  0.6508444  3
   9426   9425   9431   9437     1  0.0000000  1.0460000  1
   9426   9425   9431   9437     1  0.0000000  0.6694400  3
   9427   9425   9424   9432     1  0.0000000  1.0460000  1
   9427   9425   9424   9432     1  0.0000000  0.0000000  3
   9427   9425   9424   9428     1  0.0000000  0.6508444  3
   9427   9425   9426   9430     1  0.0000000  1.0460000  1
   9427   9425   9426   9430     1  0.0000000  0.0000000  3
   9427   9425   9426   9442     1  0.0000000  1.0460000  1
   9427   9425   9426   9442     1  0.0000000  0.0000000  3
   9427   9425   9426   9429     1  0.0000000  0.6508444  3
   9427   9425   9431   9437     1  0.0000000  0.6973333  3
   9428   9424   9421   9433     1  0.0000000  1.0460000  1
   9428   9424   9421   9433     1  0.0000000  0.0000000  3
   9428   9424   9425   9431     1  0.0000000  1.0460000  1
   9428   9424   9425   9431     1  0.0000000  0.0000000  3
   9428   9424   9432   9435     1  0.0000000  0.6973333  3
   9429   9426   9425   9431     1  0.0000000  0.6508444  3
   9438   9434   9420   9442     1  0.0000000  1.0460000  1
   9438   9434   9420   9442     1  0.0000000  0.0000000  3
   9438   9434   9440   9441     1  0.0000000  0.6973333  3
   9439   9434   9420   9442     1  0.0000000  1.0460000  1
   9439   9434   9420   9442     1  0.0000000  0.0000000  3
   9439   9434   9440   9441     1  0.0000000  0.6973333  3
   9443   9444   9447   9451     1  0.0000000  0.6508444  3
   9443   9444   9456   9459     1  0.0000000  1.0460000  1
   9443   9444   9456   9459     1  0.0000000  0.6694400  3
   9443   9457   9463   9464     1  0.0000000  1.0460000  1
   9443   9457   9463   9464     1  0.0000000  0.6694400  3
   9443   9465   9449   9452     1  0.0000000  1.6038667  3
   9444   9447   9448   9450     1  0.0000000  0.6508444  3
   9444   9447   9455   9458     1  0.0000000  1.0460000  1
   9444   9447   9455   9458     1  0.0000000  0.6694400  3
   9444   9443   9457   9461     1  0.0000000  0.6508444  3
   9444   9443   9457   9462     1  0.0000000  0.6508444  3
   9445   9443   9444   9447     1  0.0000000  0.6508444  3
   9445   9443   9444   9456     1  0.0000000  1.0460000  1
   9445   9443   9444   9456     1  0.0000000  0.0000000  3
   9445   9443   9444   9446     1  0.0000000  0.6508444  3
   9445   9443   9457   9463     1  0.0000000  1.0460000  1
   9445   9443   9457   9463     1  0.0000000  0.0000000  3
   9445   9443   9457   9461     1  0.0000000  0.6508444  3
   9445   9443   9457   9462     1  0.0000000  0.6508444  3
   9445   9443   9465   9449     1  0.0000000  1.6038667  3
   9446   9444   9447   9448     1  0.0000000  0.6508444  3
   9446   9444   9447   9455     1  0.0000000  1.0460000  1
   9446   9444   9447   9455     1  0.0000000  0.0000000  3
   9446   9444   9447   9451     1  0.0000000  0.6508444  3
   9446   9444   9456   9459     1  0.0000000  0.6973333  3
   9446   9444   9443   9457     1  0.0000000  0.6508444  3
   9446   9444   9443   9465     1  0.0000000  1.0460000  1
   9446   9444   9443   9465     1  0.0000000  0.0000000  3
   9447   9448   9449   9452     1  0.0000000  0.6508444  3
   9447   9448   9454   9460     1  0.0000000  1.0460000  1
   9447   9448   9454   9460     1  0.0000000  0.6694400  3
   9447   9444   9456   9459     1  0.0000000  1.0460000  1
   9447   9444   9456   9459     1  0.0000000  0.6694400  3
   9448   9447   9455   9458     1  0.0000000  1.0460000  1
   9448   9447   9455   9458     1  0.0000000  0.6694400  3
   9449   9448   9454   9460     1  0.0000000  1.0460000  1
   9449   9448   9454   9460     1  0.0000000  0.6694400  3
   9449   9448   9447   9451     1  0.0000000  0.6508444  3
   9450   9448   9449   9453     1  0.0000000  1.0460000  1
   9450   9448   9449   9453     1  0.0000000  0.0000000  3
   9450   9448   9449   9465     1  0.0000000  1.0460000  1
   9450   9448   9449   9465     1  0.0000000  0.0000000  3
   9450   9448   9449   9452     1  0.0000000  0.6508444  3
   9450   9448   9454   9460     1  0.0000000  0.6973333  3
   9450   9448   9447   9455     1  0.0000000  1.0460000  1
   9450   9448   9447   9455     1  0.0000000  0.0000000  3
   9450   9448   9447   9451     1  0.0000000  0.6508444  3
   9451   9447   9448   9454     1  0.0000000  1.0460000  1
   9451   9447   9448   9454     1  0.0000000  0.0000000  3
   9451   9447   9455   9458     1  0.0000000  0.6973333  3
   9451   9447   9444   9456     1  0.0000000  1.0460000  1
   9451   9447   9444   9456     1  0.0000000  0.0000000  3
   9452   9449   9448   9454     1  0.0000000  0.6508444  3
   9461   9457   9463   9464     1  0.0000000  0.6973333  3
   9461   9457   9443   9465     1  0.0000000  1.0460000  1
   9461   9457   9443   9465     1  0.0000000  0.0000000  3
   9462   9457   9463   9464     1  0.0000000  0.6973333  3
   9462   9457   9443   9465     1  0.0000000  1.0460000  1
   9462   9457   9443   9465     1  0.0000000  0.0000000  3
   9466   9467   9470   9474     1  0.0000000  0.6508444  3
   9466   9467   9479   9482     1  0.0000000  1.0460000  1
   9466   9467   9479   9482     1  0.0000000  0.6694400  3
   9466   9480   9486   9487     1  0.0000000  1.0460000  1
   9466   9480   9486   9487     1  0.0000000  0.6694400  3
   9466   9488   9472   9475     1  0.0000000  1.6038667  3
   9467   9466   9480   9484     1  0.0000000  0.6508444  3
   9467   9466   9480   9485     1  0.0000000  0.6508444  3
   9467   9470   9471   9473     1  0.0000000  0.6508444  3
   9467   9470   9478   9481     1  0.0000000  1.0460000  1
   9467   9470   9478   9481     1  0.0000000  0.6694400  3
   9468   9466   9467   9470     1  0.0000000  0.6508444  3
   9468   9466   9467   9479     1  0.0000000  1.0460000  1
   9468   9466   9467   9479     1  0.0000000  0.0000000  3
   9468   9466   9467   9469     1  0.0000000  0.6508444  3
   9468   9466   9480   9486     1  0.0000000  1.0460000  1
   9468   9466   9480   9486     1  0.0000000  0.0000000  3
   9468   9466   9480   9484     1  0.0000000  0.6508444  3
   9468   9466   9480   9485     1  0.0000000  0.6508444  3
   9468   9466   9488   9472     1  0.0000000  1.6038667  3
   9469   9467   9466   9480     1  0.0000000  0.6508444  3
   9469   9467   9466   9488     1  0.0000000  1.0460000  1
   9469   9467   9466   9488     1  0.0000000  0.0000000  3
   9469   9467   9470   9471     1  0.0000000  0.6508444  3
   9469   9467   9470   9478     1  0.0000000  1.0460000  1
   9469   9467   9470   9478     1  0.0000000  0.0000000  3
   9469   9467   9470   9474     1  0.0000000  0.6508444  3
   9469   9467   9479   9482     1  0.0000000  0.6973333  3
   9470   9467   9479   9482     1  0.0000000  1.0460000  1
   9470   9467   9479   9482     1  0.0000000  0.6694400  3
   9470   9471   9472   9475     1  0.0000000  0.6508444  3
   9470   9471   9477   9483     1  0.0000000  1.0460000  1
   9470   9471   9477   9483     1  0.0000000  0.6694400  3
   9471   9470   9478   9481     1  0.0000000  1.0460000  1
   9471   9470   9478   9481     1  0.0000000  0.6694400  3
   9472   9471   9470   9474     1  0.0000000  0.6508444  3
   9472   9471   9477   9483     1  0.0000000  1.0460000  1
   9472   9471   9477   9483     1  0.0000000  0.6694400  3
   9473   9471   9470   9478     1  0.0000000  1.0460000  1
   9473   9471   9470   9478     1  0.0000000  0.0000000  3
   9473   9471   9470   9474     1  0.0000000  0.6508444  3
   9473   9471   9472   9476     1  0.0000000  1.0460000  1
   9473   9471   9472   9476     1  0.0000000  0.0000000  3
   9473   9471   9472   9488     1  0.0000000  1.0460000  1
   9473   9471   9472   9488     1  0.0000000  0.0000000  3
   9473   9471   9472   9475     1  0.0000000  0.6508444  3
   9473   9471   9477   9483     1  0.0000000  0.6973333  3
   9474   9470   9467   9479     1  0.0000000  1.0460000  1
   9474   9470   9467   9479     1  0.0000000  0.0000000  3
   9474   9470   9471   9477     1  0.0000000  1.0460000  1
   9474   9470   9471   9477     1  0.0000000  0.0000000  3
   9474   9470   9478   9481     1  0.0000000  0.6973333  3
   9475   9472   9471   9477     1  0.0000000  0.6508444  3
   9484   9480   9466   9488     1  0.0000000  1.0460000  1
   9484   9480   9466   9488     1  0.0000000  0.0000000  3
   9484   9480   9486   9487     1  0.0000000  0.6973333  3
   9485   9480   9466   9488     1  0.0000000  1.0460000  1
   9485   9480   9466   9488     1  0.0000000  0.0000000  3
   9485   9480   9486   9487     1  0.0000000  0.6973333  3
   9489   9490   9493   9497     1  0.0000000  0.6508444  3
   9489   9490   9502   9505     1  0.0000000  1.0460000  1
   9489   9490   9502   9505     1  0.0000000  0.6694400  3
   9489   9503   9509   9510     1  0.0000000  1.0460000  1
   9489   9503   9509   9510     1  0.0000000  0.6694400  3
   9489   9511   9495   9498     1  0.0000000  1.6038667  3
   9490   9493   9494   9496     1  0.0000000  0.6508444  3
   9490   9493   9501   9504     1  0.0000000  1.0460000  1
   9490   9493   9501   9504     1  0.0000000  0.6694400  3
   9490   9489   9503   9507     1  0.0000000  0.6508444  3
   9490   9489   9503   9508     1  0.0000000  0.6508444  3
   9491   9489   9490   9493     1  0.0000000  0.6508444  3
   9491   9489   9490   9502     1  0.0000000  1.0460000  1
   9491   9489   9490   9502     1  0.0000000  0.0000000  3
   9491   9489   9490   9492     1  0.0000000  0.6508444  3
   9491   9489   9503   9509     1  0.0000000  1.0460000  1
   9491   9489   9503   9509     1  0.0000000  0.0000000  3
   9491   9489   9503   9507     1  0.0000000  0.6508444  3
   9491   9489   9503   9508     1  0.0000000  0.6508444  3
   9491   9489   9511   9495     1  0.0000000  1.6038667  3
   9492   9490   9493   9494     1  0.0000000  0.6508444  3
   9492   9490   9493   9501     1  0.0000000  1.0460000  1
   9492   9490   9493   9501     1  0.0000000  0.0000000  3
   9492   9490   9493   9497     1  0.0000000  0.6508444  3
   9492   9490   9502   9505     1  0.0000000  0.6973333  3
   9492   9490   9489   9503     1  0.0000000  0.6508444  3
   9492   9490   9489   9511     1  0.0000000  1.0460000  1
   9492   9490   9489   9511     1  0.0000000  0.0000000  3
   9493   9494   9495   9498     1  0.0000000  0.6508444  3
   9493   9494   9500   9506     1  0.0000000  1.0460000  1
   9493   9494   9500   9506     1  0.0000000  0.6694400  3
   9493   9490   9502   9505     1  0.0000000  1.0460000  1
   9493   9490   9502   9505     1  0.0000000  0.6694400  3
   9494   9493   9501   9504     1  0.0000000  1.0460000  1
   9494   9493   9501   9504     1  0.0000000  0.6694400  3
   9495   9494   9500   9506     1  0.0000000  1.0460000  1
   9495   9494   9500   9506     1  0.0000000  0.6694400  3
   9495   9494   9493   9497     1  0.0000000  0.6508444  3
   9496   9494   9495   9499     1  0.0000000  1.0460000  1
   9496   9494   9495   9499     1  0.0000000  0.0000000  3
   9496   9494   9495   9511     1  0.0000000  1.0460000  1
   9496   9494   9495   9511     1  0.0000000  0.0000000  3
   9496   9494   9495   9498     1  0.0000000  0.6508444  3
   9496   9494   9500   9506     1  0.0000000  0.6973333  3
   9496   9494   9493   9501     1  0.0000000  1.0460000  1
   9496   9494   9493   9501     1  0.0000000  0.0000000  3
   9496   9494   9493   9497     1  0.0000000  0.6508444  3
   9497   9493   9494   9500     1  0.0000000  1.0460000  1
   9497   9493   9494   9500     1  0.0000000  0.0000000  3
   9497   9493   9501   9504     1  0.0000000  0.6973333  3
   9497   9493   9490   9502     1  0.0000000  1.0460000  1
   9497   9493   9490   9502     1  0.0000000  0.0000000  3
   9498   9495   9494   9500     1  0.0000000  0.6508444  3
   9507   9503   9509   9510     1  0.0000000  0.6973333  3
   9507   9503   9489   9511     1  0.0000000  1.0460000  1
   9507   9503   9489   9511     1  0.0000000  0.0000000  3
   9508   9503   9509   9510     1  0.0000000  0.6973333  3
   9508   9503   9489   9511     1  0.0000000  1.0460000  1
   9508   9503   9489   9511     1  0.0000000  0.0000000  3
   9512   9513   9516   9520     1  0.0000000  0.6508444  3
   9512   9513   9525   9528     1  0.0000000  1.0460000  1
   9512   9513   9525   9528     1  0.0000000  0.6694400  3
   9512   9526   9532   9533     1  0.0000000  1.0460000  1
   9512   9526   9532   9533     1  0.0000000  0.6694400  3
   9512   9534   9518   9521     1  0.0000000  1.6038667  3
   9513   9512   9526   9530     1  0.0000000  0.6508444  3
   9513   9512   9526   9531     1  0.0000000  0.6508444  3
   9513   9516   9517   9519     1  0.0000000  0.6508444  3
   9513   9516   9524   9527     1  0.0000000  1.0460000  1
   9513   9516   9524   9527     1  0.0000000  0.6694400  3
   9514   9512   9513   9516     1  0.0000000  0.6508444  3
   9514   9512   9513   9525     1  0.0000000  1.0460000  1
   9514   9512   9513   9525     1  0.0000000  0.0000000  3
   9514   9512   9513   9515     1  0.0000000  0.6508444  3
   9514   9512   9526   9532     1  0.0000000  1.0460000  1
   9514   9512   9526   9532     1  0.0000000  0.0000000  3
   9514   9512   9526   9530     1  0.0000000  0.6508444  3
   9514   9512   9526   9531     1  0.0000000  0.6508444  3
   9514   9512   9534   9518     1  0.0000000  1.6038667  3
   9515   9513   9512   9526     1  0.0000000  0.6508444  3
   9515   9513   9512   9534     1  0.0000000  1.0460000  1
   9515   9513   9512   9534     1  0.0000000  0.0000000  3
   9515   9513   9516   9517     1  0.0000000  0.6508444  3
   9515   9513   9516   9524     1  0.0000000  1.0460000  1
   9515   9513   9516   9524     1  0.0000000  0.0000000  3
   9515   9513   9516   9520     1  0.0000000  0.6508444  3
   9515   9513   9525   9528     1  0.0000000  0.6973333  3
   9516   9513   9525   9528     1  0.0000000  1.0460000  1
   9516   9513   9525   9528     1  0.0000000  0.6694400  3
   9516   9517   9518   9521     1  0.0000000  0.6508444  3
   9516   9517   9523   9529     1  0.0000000  1.0460000  1
   9516   9517   9523   9529     1  0.0000000  0.6694400  3
   9517   9516   9524   9527     1  0.0000000  1.0460000  1
   9517   9516   9524   9527     1  0.0000000  0.6694400  3
   9518   9517   9516   9520     1  0.0000000  0.6508444  3
   9518   9517   9523   9529     1  0.0000000  1.0460000  1
   9518   9517   9523   9529     1  0.0000000  0.6694400  3
   9519   9517   9516   9524     1  0.0000000  1.0460000  1
   9519   9517   9516   9524     1  0.0000000  0.0000000  3
   9519   9517   9516   9520     1  0.0000000  0.6508444  3
   9519   9517   9518   9522     1  0.0000000  1.0460000  1
   9519   9517   9518   9522     1  0.0000000  0.0000000  3
   9519   9517   9518   9534     1  0.0000000  1.0460000  1
   9519   9517   9518   9534     1  0.0000000  0.0000000  3
   9519   9517   9518   9521     1  0.0000000  0.6508444  3
   9519   9517   9523   9529     1  0.0000000  0.6973333  3
   9520   9516   9513   9525     1  0.0000000  1.0460000  1
   9520   9516   9513   9525     1  0.0000000  0.0000000  3
   9520   9516   9517   9523     1  0.0000000  1.0460000  1
   9520   9516   9517   9523     1  0.0000000  0.0000000  3
   9520   9516   9524   9527     1  0.0000000  0.6973333  3
   9521   9518   9517   9523     1  0.0000000  0.6508444  3
   9530   9526   9512   9534     1  0.0000000  1.0460000  1
   9530   9526   9512   9534     1  0.0000000  0.0000000  3
   9530   9526   9532   9533     1  0.0000000  0.6973333  3
   9531   9526   9512   9534     1  0.0000000  1.0460000  1
   9531   9526   9512   9534     1  0.0000000  0.0000000  3
   9531   9526   9532   9533     1  0.0000000  0.6973333  3
   9535   9536   9539   9543     1  0.0000000  0.6508444  3
   9535   9536   9548   9551     1  0.0000000  1.0460000  1
   9535   9536   9548   9551     1  0.0000000  0.6694400  3
   9535   9549   9555   9556     1  0.0000000  1.0460000  1
   9535   9549   9555   9556     1  0.0000000  0.6694400  3
   9535   9557   9541   9544     1  0.0000000  1.6038667  3
   9536   9539   9540   9542     1  0.0000000  0.6508444  3
   9536   9539   9547   9550     1  0.0000000  1.0460000  1
   9536   9539   9547   9550     1  0.0000000  0.6694400  3
   9536   9535   9549   9553     1  0.0000000  0.6508444  3
   9536   9535   9549   9554     1  0.0000000  0.6508444  3
   9537   9535   9536   9539     1  0.0000000  0.6508444  3
   9537   9535   9536   9548     1  0.0000000  1.0460000  1
   9537   9535   9536   9548     1  0.0000000  0.0000000  3
   9537   9535   9536   9538     1  0.0000000  0.6508444  3
   9537   9535   9549   9555     1  0.0000000  1.0460000  1
   9537   9535   9549   9555     1  0.0000000  0.0000000  3
   9537   9535   9549   9553     1  0.0000000  0.6508444  3
   9537   9535   9549   9554     1  0.0000000  0.6508444  3
   9537   9535   9557   9541     1  0.0000000  1.6038667  3
   9538   9536   9539   9540     1  0.0000000  0.6508444  3
   9538   9536   9539   9547     1  0.0000000  1.0460000  1
   9538   9536   9539   9547     1  0.0000000  0.0000000  3
   9538   9536   9539   9543     1  0.0000000  0.6508444  3
   9538   9536   9548   9551     1  0.0000000  0.6973333  3
   9538   9536   9535   9549     1  0.0000000  0.6508444  3
   9538   9536   9535   9557     1  0.0000000  1.0460000  1
   9538   9536   9535   9557     1  0.0000000  0.0000000  3
   9539   9540   9541   9544     1  0.0000000  0.6508444  3
   9539   9540   9546   9552     1  0.0000000  1.0460000  1
   9539   9540   9546   9552     1  0.0000000  0.6694400  3
   9539   9536   9548   9551     1  0.0000000  1.0460000  1
   9539   9536   9548   9551     1  0.0000000  0.6694400  3
   9540   9539   9547   9550     1  0.0000000  1.0460000  1
   9540   9539   9547   9550     1  0.0000000  0.6694400  3
   9541   9540   9546   9552     1  0.0000000  1.0460000  1
   9541   9540   9546   9552     1  0.0000000  0.6694400  3
   9541   9540   9539   9543     1  0.0000000  0.6508444  3
   9542   9540   9541   9545     1  0.0000000  1.0460000  1
   9542   9540   9541   9545     1  0.0000000  0.0000000  3
   9542   9540   9541   9557     1  0.0000000  1.0460000  1
   9542   9540   9541   9557     1  0.0000000  0.0000000  3
   9542   9540   9541   9544     1  0.0000000  0.6508444  3
   9542   9540   9546   9552     1  0.0000000  0.6973333  3
   9542   9540   9539   9547     1  0.0000000  1.0460000  1
   9542   9540   9539   9547     1  0.0000000  0.0000000  3
   9542   9540   9539   9543     1  0.0000000  0.6508444  3
   9543   9539   9540   9546     1  0.0000000  1.0460000  1
   9543   9539   9540   9546     1  0.0000000  0.0000000  3
   9543   9539   9547   9550     1  0.0000000  0.6973333  3
   9543   9539   9536   9548     1  0.0000000  1.0460000  1
   9543   9539   9536   9548     1  0.0000000  0.0000000  3
   9544   9541   9540   9546     1  0.0000000  0.6508444  3
   9553   9549   9555   9556     1  0.0000000  0.6973333  3
   9553   9549   9535   9557     1  0.0000000  1.0460000  1
   9553   9549   9535   9557     1  0.0000000  0.0000000  3
   9554   9549   9555   9556     1  0.0000000  0.6973333  3
   9554   9549   9535   9557     1  0.0000000  1.0460000  1
   9554   9549   9535   9557     1  0.0000000  0.0000000  3
   9558   9559   9562   9566     1  0.0000000  0.6508444  3
   9558   9559   9571   9574     1  0.0000000  1.0460000  1
   9558   9559   9571   9574     1  0.0000000  0.6694400  3
   9558   9572   9578   9579     1  0.0000000  1.0460000  1
   9558   9572   9578   9579     1  0.0000000  0.6694400  3
   9558   9580   9564   9567     1  0.0000000  1.6038667  3
   9559   9558   9572   9576     1  0.0000000  0.6508444  3
   9559   9558   9572   9577     1  0.0000000  0.6508444  3
   9559   9562   9563   9565     1  0.0000000  0.6508444  3
   9559   9562   9570   9573     1  0.0000000  1.0460000  1
   9559   9562   9570   9573     1  0.0000000  0.6694400  3
   9560   9558   9559   9562     1  0.0000000  0.6508444  3
   9560   9558   9559   9571     1  0.0000000  1.0460000  1
   9560   9558   9559   9571     1  0.0000000  0.0000000  3
   9560   9558   9559   9561     1  0.0000000  0.6508444  3
   9560   9558   9572   9578     1  0.0000000  1.0460000  1
   9560   9558   9572   9578     1  0.0000000  0.0000000  3
   9560   9558   9572   9576     1  0.0000000  0.6508444  3
   9560   9558   9572   9577     1  0.0000000  0.6508444  3
   9560   9558   9580   9564     1  0.0000000  1.6038667  3
   9561   9559   9558   9572     1  0.0000000  0.6508444  3
   9561   9559   9558   9580     1  0.0000000  1.0460000  1
   9561   9559   9558   9580     1  0.0000000  0.0000000  3
   9561   9559   9562   9563     1  0.0000000  0.6508444  3
   9561   9559   9562   9570     1  0.0000000  1.0460000  1
   9561   9559   9562   9570     1  0.0000000  0.0000000  3
   9561   9559   9562   9566     1  0.0000000  0.6508444  3
   9561   9559   9571   9574     1  0.0000000  0.6973333  3
   9562   9559   9571   9574     1  0.0000000  1.0460000  1
   9562   9559   9571   9574     1  0.0000000  0.6694400  3
   9562   9563   9564   9567     1  0.0000000  0.6508444  3
   9562   9563   9569   9575     1  0.0000000  1.0460000  1
   9562   9563   9569   9575     1  0.0000000  0.6694400  3
   9563   9562   9570   9573     1  0.0000000  1.0460000  1
   9563   9562   9570   9573     1  0.0000000  0.6694400  3
   9564   9563   9562   9566     1  0.0000000  0.6508444  3
   9564   9563   9569   9575     1  0.0000000  1.0460000  1
   9564   9563   9569   9575     1  0.0000000  0.6694400  3
   9565   9563   9562   9570     1  0.0000000  1.0460000  1
   9565   9563   9562   9570     1  0.0000000  0.0000000  3
   9565   9563   9562   9566     1  0.0000000  0.6508444  3
   9565   9563   9564   9568     1  0.0000000  1.0460000  1
   9565   9563   9564   9568     1  0.0000000  0.0000000  3
   9565   9563   9564   9580     1  0.0000000  1.0460000  1
   9565   9563   9564   9580     1  0.0000000  0.0000000  3
   9565   9563   9564   9567     1  0.0000000  0.6508444  3
   9565   9563   9569   9575     1  0.0000000  0.6973333  3
   9566   9562   9559   9571     1  0.0000000  1.0460000  1
   9566   9562   9559   9571     1  0.0000000  0.0000000  3
   9566   9562   9563   9569     1  0.0000000  1.0460000  1
   9566   9562   9563   9569     1  0.0000000  0.0000000  3
   9566   9562   9570   9573     1  0.0000000  0.6973333  3
   9567   9564   9563   9569     1  0.0000000  0.6508444  3
   9576   9572   9558   9580     1  0.0000000  1.0460000  1
   9576   9572   9558   9580     1  0.0000000  0.0000000  3
   9576   9572   9578   9579     1  0.0000000  0.6973333  3
   9577   9572   9558   9580     1  0.0000000  1.0460000  1
   9577   9572   9558   9580     1  0.0000000  0.0000000  3
   9577   9572   9578   9579     1  0.0000000  0.6973333  3
   9581   9582   9585   9589     1  0.0000000  0.6508444  3
   9581   9582   9594   9597     1  0.0000000  1.0460000  1
   9581   9582   9594   9597     1  0.0000000  0.6694400  3
   9581   9595   9601   9602     1  0.0000000  1.0460000  1
   9581   9595   9601   9602     1  0.0000000  0.6694400  3
   9581   9603   9587   9590     1  0.0000000  1.6038667  3
   9582   9585   9586   9588     1  0.0000000  0.6508444  3
   9582   9585   9593   9596     1  0.0000000  1.0460000  1
   9582   9585   9593   9596     1  0.0000000  0.6694400  3
   9582   9581   9595   9599     1  0.0000000  0.6508444  3
   9582   9581   9595   9600     1  0.0000000  0.6508444  3
   9583   9581   9582   9585     1  0.0000000  0.6508444  3
   9583   9581   9582   9594     1  0.0000000  1.0460000  1
   9583   9581   9582   9594     1  0.0000000  0.0000000  3
   9583   9581   9582   9584     1  0.0000000  0.6508444  3
   9583   9581   9595   9601     1  0.0000000  1.0460000  1
   9583   9581   9595   9601     1  0.0000000  0.0000000  3
   9583   9581   9595   9599     1  0.0000000  0.6508444  3
   9583   9581   9595   9600     1  0.0000000  0.6508444  3
   9583   9581   9603   9587     1  0.0000000  1.6038667  3
   9584   9582   9585   9586     1  0.0000000  0.6508444  3
   9584   9582   9585   9593     1  0.0000000  1.0460000  1
   9584   9582   9585   9593     1  0.0000000  0.0000000  3
   9584   9582   9585   9589     1  0.0000000  0.6508444  3
   9584   9582   9594   9597     1  0.0000000  0.6973333  3
   9584   9582   9581   9595     1  0.0000000  0.6508444  3
   9584   9582   9581   9603     1  0.0000000  1.0460000  1
   9584   9582   9581   9603     1  0.0000000  0.0000000  3
   9585   9586   9587   9590     1  0.0000000  0.6508444  3
   9585   9586   9592   9598     1  0.0000000  1.0460000  1
   9585   9586   9592   9598     1  0.0000000  0.6694400  3
   9585   9582   9594   9597     1  0.0000000  1.0460000  1
   9585   9582   9594   9597     1  0.0000000  0.6694400  3
   9586   9585   9593   9596     1  0.0000000  1.0460000  1
   9586   9585   9593   9596     1  0.0000000  0.6694400  3
   9587   9586   9592   9598     1  0.0000000  1.0460000  1
   9587   9586   9592   9598     1  0.0000000  0.6694400  3
   9587   9586   9585   9589     1  0.0000000  0.6508444  3
   9588   9586   9587   9591     1  0.0000000  1.0460000  1
   9588   9586   9587   9591     1  0.0000000  0.0000000  3
   9588   9586   9587   9603     1  0.0000000  1.0460000  1
   9588   9586   9587   9603     1  0.0000000  0.0000000  3
   9588   9586   9587   9590     1  0.0000000  0.6508444  3
   9588   9586   9592   9598     1  0.0000000  0.6973333  3
   9588   9586   9585   9593     1  0.0000000  1.0460000  1
   9588   9586   9585   9593     1  0.0000000  0.0000000  3
   9588   9586   9585   9589     1  0.0000000  0.6508444  3
   9589   9585   9586   9592     1  0.0000000  1.0460000  1
   9589   9585   9586   9592     1  0.0000000  0.0000000  3
   9589   9585   9593   9596     1  0.0000000  0.6973333  3
   9589   9585   9582   9594     1  0.0000000  1.0460000  1
   9589   9585   9582   9594     1  0.0000000  0.0000000  3
   9590   9587   9586   9592     1  0.0000000  0.6508444  3
   9599   9595   9601   9602     1  0.0000000  0.6973333  3
   9599   9595   9581   9603     1  0.0000000  1.0460000  1
   9599   9595   9581   9603     1  0.0000000  0.0000000  3
   9600   9595   9601   9602     1  0.0000000  0.6973333  3
   9600   9595   9581   9603     1  0.0000000  1.0460000  1
   9600   9595   9581   9603     1  0.0000000  0.0000000  3
   9604   9605   9608   9612     1  0.0000000  0.6508444  3
   9604   9605   9617   9620     1  0.0000000  1.0460000  1
   9604   9605   9617   9620     1  0.0000000  0.6694400  3
   9604   9618   9624   9625     1  0.0000000  1.0460000  1
   9604   9618   9624   9625     1  0.0000000  0.6694400  3
   9604   9626   9610   9613     1  0.0000000  1.6038667  3
   9605   9604   9618   9622     1  0.0000000  0.6508444  3
   9605   9604   9618   9623     1  0.0000000  0.6508444  3
   9605   9608   9609   9611     1  0.0000000  0.6508444  3
   9605   9608   9616   9619     1  0.0000000  1.0460000  1
   9605   9608   9616   9619     1  0.0000000  0.6694400  3
   9606   9604   9605   9608     1  0.0000000  0.6508444  3
   9606   9604   9605   9617     1  0.0000000  1.0460000  1
   9606   9604   9605   9617     1  0.0000000  0.0000000  3
   9606   9604   9605   9607     1  0.0000000  0.6508444  3
   9606   9604   9618   9624     1  0.0000000  1.0460000  1
   9606   9604   9618   9624     1  0.0000000  0.0000000  3
   9606   9604   9618   9622     1  0.0000000  0.6508444  3
   9606   9604   9618   9623     1  0.0000000  0.6508444  3
   9606   9604   9626   9610     1  0.0000000  1.6038667  3
   9607   9605   9604   9618     1  0.0000000  0.6508444  3
   9607   9605   9604   9626     1  0.0000000  1.0460000  1
   9607   9605   9604   9626     1  0.0000000  0.0000000  3
   9607   9605   9608   9609     1  0.0000000  0.6508444  3
   9607   9605   9608   9616     1  0.0000000  1.0460000  1
   9607   9605   9608   9616     1  0.0000000  0.0000000  3
   9607   9605   9608   9612     1  0.0000000  0.6508444  3
   9607   9605   9617   9620     1  0.0000000  0.6973333  3
   9608   9605   9617   9620     1  0.0000000  1.0460000  1
   9608   9605   9617   9620     1  0.0000000  0.6694400  3
   9608   9609   9610   9613     1  0.0000000  0.6508444  3
   9608   9609   9615   9621     1  0.0000000  1.0460000  1
   9608   9609   9615   9621     1  0.0000000  0.6694400  3
   9609   9608   9616   9619     1  0.0000000  1.0460000  1
   9609   9608   9616   9619     1  0.0000000  0.6694400  3
   9610   9609   9608   9612     1  0.0000000  0.6508444  3
   9610   9609   9615   9621     1  0.0000000  1.0460000  1
   9610   9609   9615   9621     1  0.0000000  0.6694400  3
   9611   9609   9608   9616     1  0.0000000  1.0460000  1
   9611   9609   9608   9616     1  0.0000000  0.0000000  3
   9611   9609   9608   9612     1  0.0000000  0.6508444  3
   9611   9609   9610   9614     1  0.0000000  1.0460000  1
   9611   9609   9610   9614     1  0.0000000  0.0000000  3
   9611   9609   9610   9626     1  0.0000000  1.0460000  1
   9611   9609   9610   9626     1  0.0000000  0.0000000  3
   9611   9609   9610   9613     1  0.0000000  0.6508444  3
   9611   9609   9615   9621     1  0.0000000  0.6973333  3
   9612   9608   9605   9617     1  0.0000000  1.0460000  1
   9612   9608   9605   9617     1  0.0000000  0.0000000  3
   9612   9608   9609   9615     1  0.0000000  1.0460000  1
   9612   9608   9609   9615     1  0.0000000  0.0000000  3
   9612   9608   9616   9619     1  0.0000000  0.6973333  3
   9613   9610   9609   9615     1  0.0000000  0.6508444  3
   9622   9618   9604   9626     1  0.0000000  1.0460000  1
   9622   9618   9604   9626     1  0.0000000  0.0000000  3
   9622   9618   9624   9625     1  0.0000000  0.6973333  3
   9623   9618   9604   9626     1  0.0000000  1.0460000  1
   9623   9618   9604   9626     1  0.0000000  0.0000000  3
   9623   9618   9624   9625     1  0.0000000  0.6973333  3
   9627   9628   9631   9635     1  0.0000000  0.6508444  3
   9627   9628   9640   9643     1  0.0000000  1.0460000  1
   9627   9628   9640   9643     1  0.0000000  0.6694400  3
   9627   9641   9647   9648     1  0.0000000  1.0460000  1
   9627   9641   9647   9648     1  0.0000000  0.6694400  3
   9627   9649   9633   9636     1  0.0000000  1.6038667  3
   9628   9631   9632   9634     1  0.0000000  0.6508444  3
   9628   9631   9639   9642     1  0.0000000  1.0460000  1
   9628   9631   9639   9642     1  0.0000000  0.6694400  3
   9628   9627   9641   9645     1  0.0000000  0.6508444  3
   9628   9627   9641   9646     1  0.0000000  0.6508444  3
   9629   9627   9628   9631     1  0.0000000  0.6508444  3
   9629   9627   9628   9640     1  0.0000000  1.0460000  1
   9629   9627   9628   9640     1  0.0000000  0.0000000  3
   9629   9627   9628   9630     1  0.0000000  0.6508444  3
   9629   9627   9641   9647     1  0.0000000  1.0460000  1
   9629   9627   9641   9647     1  0.0000000  0.0000000  3
   9629   9627   9641   9645     1  0.0000000  0.6508444  3
   9629   9627   9641   9646     1  0.0000000  0.6508444  3
   9629   9627   9649   9633     1  0.0000000  1.6038667  3
   9630   9628   9631   9632     1  0.0000000  0.6508444  3
   9630   9628   9631   9639     1  0.0000000  1.0460000  1
   9630   9628   9631   9639     1  0.0000000  0.0000000  3
   9630   9628   9631   9635     1  0.0000000  0.6508444  3
   9630   9628   9640   9643     1  0.0000000  0.6973333  3
   9630   9628   9627   9641     1  0.0000000  0.6508444  3
   9630   9628   9627   9649     1  0.0000000  1.0460000  1
   9630   9628   9627   9649     1  0.0000000  0.0000000  3
   9631   9632   9633   9636     1  0.0000000  0.6508444  3
   9631   9632   9638   9644     1  0.0000000  1.0460000  1
   9631   9632   9638   9644     1  0.0000000  0.6694400  3
   9631   9628   9640   9643     1  0.0000000  1.0460000  1
   9631   9628   9640   9643     1  0.0000000  0.6694400  3
   9632   9631   9639   9642     1  0.0000000  1.0460000  1
   9632   9631   9639   9642     1  0.0000000  0.6694400  3
   9633   9632   9638   9644     1  0.0000000  1.0460000  1
   9633   9632   9638   9644     1  0.0000000  0.6694400  3
   9633   9632   9631   9635     1  0.0000000  0.6508444  3
   9634   9632   9633   9637     1  0.0000000  1.0460000  1
   9634   9632   9633   9637     1  0.0000000  0.0000000  3
   9634   9632   9633   9649     1  0.0000000  1.0460000  1
   9634   9632   9633   9649     1  0.0000000  0.0000000  3
   9634   9632   9633   9636     1  0.0000000  0.6508444  3
   9634   9632   9638   9644     1  0.0000000  0.6973333  3
   9634   9632   9631   9639     1  0.0000000  1.0460000  1
   9634   9632   9631   9639     1  0.0000000  0.0000000  3
   9634   9632   9631   9635     1  0.0000000  0.6508444  3
   9635   9631   9632   9638     1  0.0000000  1.0460000  1
   9635   9631   9632   9638     1  0.0000000  0.0000000  3
   9635   9631   9639   9642     1  0.0000000  0.6973333  3
   9635   9631   9628   9640     1  0.0000000  1.0460000  1
   9635   9631   9628   9640     1  0.0000000  0.0000000  3
   9636   9633   9632   9638     1  0.0000000  0.6508444  3
   9645   9641   9647   9648     1  0.0000000  0.6973333  3
   9645   9641   9627   9649     1  0.0000000  1.0460000  1
   9645   9641   9627   9649     1  0.0000000  0.0000000  3
   9646   9641   9647   9648     1  0.0000000  0.6973333  3
   9646   9641   9627   9649     1  0.0000000  1.0460000  1
   9646   9641   9627   9649     1  0.0000000  0.0000000  3
   9650   9651   9654   9658     1  0.0000000  0.6508444  3
   9650   9651   9663   9666     1  0.0000000  1.0460000  1
   9650   9651   9663   9666     1  0.0000000  0.6694400  3
   9650   9664   9670   9671     1  0.0000000  1.0460000  1
   9650   9664   9670   9671     1  0.0000000  0.6694400  3
   9650   9672   9656   9659     1  0.0000000  1.6038667  3
   9651   9650   9664   9668     1  0.0000000  0.6508444  3
   9651   9650   9664   9669     1  0.0000000  0.6508444  3
   9651   9654   9655   9657     1  0.0000000  0.6508444  3
   9651   9654   9662   9665     1  0.0000000  1.0460000  1
   9651   9654   9662   9665     1  0.0000000  0.6694400  3
   9652   9650   9651   9654     1  0.0000000  0.6508444  3
   9652   9650   9651   9663     1  0.0000000  1.0460000  1
   9652   9650   9651   9663     1  0.0000000  0.0000000  3
   9652   9650   9651   9653     1  0.0000000  0.6508444  3
   9652   9650   9664   9670     1  0.0000000  1.0460000  1
   9652   9650   9664   9670     1  0.0000000  0.0000000  3
   9652   9650   9664   9668     1  0.0000000  0.6508444  3
   9652   9650   9664   9669     1  0.0000000  0.6508444  3
   9652   9650   9672   9656     1  0.0000000  1.6038667  3
   9653   9651   9650   9664     1  0.0000000  0.6508444  3
   9653   9651   9650   9672     1  0.0000000  1.0460000  1
   9653   9651   9650   9672     1  0.0000000  0.0000000  3
   9653   9651   9654   9655     1  0.0000000  0.6508444  3
   9653   9651   9654   9662     1  0.0000000  1.0460000  1
   9653   9651   9654   9662     1  0.0000000  0.0000000  3
   9653   9651   9654   9658     1  0.0000000  0.6508444  3
   9653   9651   9663   9666     1  0.0000000  0.6973333  3
   9654   9651   9663   9666     1  0.0000000  1.0460000  1
   9654   9651   9663   9666     1  0.0000000  0.6694400  3
   9654   9655   9656   9659     1  0.0000000  0.6508444  3
   9654   9655   9661   9667     1  0.0000000  1.0460000  1
   9654   9655   9661   9667     1  0.0000000  0.6694400  3
   9655   9654   9662   9665     1  0.0000000  1.0460000  1
   9655   9654   9662   9665     1  0.0000000  0.6694400  3
   9656   9655   9654   9658     1  0.0000000  0.6508444  3
   9656   9655   9661   9667     1  0.0000000  1.0460000  1
   9656   9655   9661   9667     1  0.0000000  0.6694400  3
   9657   9655   9654   9662     1  0.0000000  1.0460000  1
   9657   9655   9654   9662     1  0.0000000  0.0000000  3
   9657   9655   9654   9658     1  0.0000000  0.6508444  3
   9657   9655   9656   9660     1  0.0000000  1.0460000  1
   9657   9655   9656   9660     1  0.0000000  0.0000000  3
   9657   9655   9656   9672     1  0.0000000  1.0460000  1
   9657   9655   9656   9672     1  0.0000000  0.0000000  3
   9657   9655   9656   9659     1  0.0000000  0.6508444  3
   9657   9655   9661   9667     1  0.0000000  0.6973333  3
   9658   9654   9651   9663     1  0.0000000  1.0460000  1
   9658   9654   9651   9663     1  0.0000000  0.0000000  3
   9658   9654   9655   9661     1  0.0000000  1.0460000  1
   9658   9654   9655   9661     1  0.0000000  0.0000000  3
   9658   9654   9662   9665     1  0.0000000  0.6973333  3
   9659   9656   9655   9661     1  0.0000000  0.6508444  3
   9668   9664   9650   9672     1  0.0000000  1.0460000  1
   9668   9664   9650   9672     1  0.0000000  0.0000000  3
   9668   9664   9670   9671     1  0.0000000  0.6973333  3
   9669   9664   9650   9672     1  0.0000000  1.0460000  1
   9669   9664   9650   9672     1  0.0000000  0.0000000  3
   9669   9664   9670   9671     1  0.0000000  0.6973333  3
   9673   9674   9677   9681     1  0.0000000  0.6508444  3
   9673   9674   9686   9689     1  0.0000000  1.0460000  1
   9673   9674   9686   9689     1  0.0000000  0.6694400  3
   9673   9687   9693   9694     1  0.0000000  1.0460000  1
   9673   9687   9693   9694     1  0.0000000  0.6694400  3
   9673   9695   9679   9682     1  0.0000000  1.6038667  3
   9674   9677   9678   9680     1  0.0000000  0.6508444  3
   9674   9677   9685   9688     1  0.0000000  1.0460000  1
   9674   9677   9685   9688     1  0.0000000  0.6694400  3
   9674   9673   9687   9691     1  0.0000000  0.6508444  3
   9674   9673   9687   9692     1  0.0000000  0.6508444  3
   9675   9673   9674   9677     1  0.0000000  0.6508444  3
   9675   9673   9674   9686     1  0.0000000  1.0460000  1
   9675   9673   9674   9686     1  0.0000000  0.0000000  3
   9675   9673   9674   9676     1  0.0000000  0.6508444  3
   9675   9673   9687   9693     1  0.0000000  1.0460000  1
   9675   9673   9687   9693     1  0.0000000  0.0000000  3
   9675   9673   9687   9691     1  0.0000000  0.6508444  3
   9675   9673   9687   9692     1  0.0000000  0.6508444  3
   9675   9673   9695   9679     1  0.0000000  1.6038667  3
   9676   9674   9677   9678     1  0.0000000  0.6508444  3
   9676   9674   9677   9685     1  0.0000000  1.0460000  1
   9676   9674   9677   9685     1  0.0000000  0.0000000  3
   9676   9674   9677   9681     1  0.0000000  0.6508444  3
   9676   9674   9686   9689     1  0.0000000  0.6973333  3
   9676   9674   9673   9687     1  0.0000000  0.6508444  3
   9676   9674   9673   9695     1  0.0000000  1.0460000  1
   9676   9674   9673   9695     1  0.0000000  0.0000000  3
   9677   9678   9679   9682     1  0.0000000  0.6508444  3
   9677   9678   9684   9690     1  0.0000000  1.0460000  1
   9677   9678   9684   9690     1  0.0000000  0.6694400  3
   9677   9674   9686   9689     1  0.0000000  1.0460000  1
   9677   9674   9686   9689     1  0.0000000  0.6694400  3
   9678   9677   9685   9688     1  0.0000000  1.0460000  1
   9678   9677   9685   9688     1  0.0000000  0.6694400  3
   9679   9678   9684   9690     1  0.0000000  1.0460000  1
   9679   9678   9684   9690     1  0.0000000  0.6694400  3
   9679   9678   9677   9681     1  0.0000000  0.6508444  3
   9680   9678   9679   9683     1  0.0000000  1.0460000  1
   9680   9678   9679   9683     1  0.0000000  0.0000000  3
   9680   9678   9679   9695     1  0.0000000  1.0460000  1
   9680   9678   9679   9695     1  0.0000000  0.0000000  3
   9680   9678   9679   9682     1  0.0000000  0.6508444  3
   9680   9678   9684   9690     1  0.0000000  0.6973333  3
   9680   9678   9677   9685     1  0.0000000  1.0460000  1
   9680   9678   9677   9685     1  0.0000000  0.0000000  3
   9680   9678   9677   9681     1  0.0000000  0.6508444  3
   9681   9677   9678   9684     1  0.0000000  1.0460000  1
   9681   9677   9678   9684     1  0.0000000  0.0000000  3
   9681   9677   9685   9688     1  0.0000000  0.6973333  3
   9681   9677   9674   9686     1  0.0000000  1.0460000  1
   9681   9677   9674   9686     1  0.0000000  0.0000000  3
   9682   9679   9678   9684     1  0.0000000  0.6508444  3
   9691   9687   9693   9694     1  0.0000000  0.6973333  3
   9691   9687   9673   9695     1  0.0000000  1.0460000  1
   9691   9687   9673   9695     1  0.0000000  0.0000000  3
   9692   9687   9693   9694     1  0.0000000  0.6973333  3
   9692   9687   9673   9695     1  0.0000000  1.0460000  1
   9692   9687   9673   9695     1  0.0000000  0.0000000  3
   9696   9697   9700   9704     1  0.0000000  0.6508444  3
   9696   9697   9709   9712     1  0.0000000  1.0460000  1
   9696   9697   9709   9712     1  0.0000000  0.6694400  3
   9696   9710   9716   9717     1  0.0000000  1.0460000  1
   9696   9710   9716   9717     1  0.0000000  0.6694400  3
   9696   9718   9702   9705     1  0.0000000  1.6038667  3
   9697   9696   9710   9714     1  0.0000000  0.6508444  3
   9697   9696   9710   9715     1  0.0000000  0.6508444  3
   9697   9700   9701   9703     1  0.0000000  0.6508444  3
   9697   9700   9708   9711     1  0.0000000  1.0460000  1
   9697   9700   9708   9711     1  0.0000000  0.6694400  3
   9698   9696   9697   9700     1  0.0000000  0.6508444  3
   9698   9696   9697   9709     1  0.0000000  1.0460000  1
   9698   9696   9697   9709     1  0.0000000  0.0000000  3
   9698   9696   9697   9699     1  0.0000000  0.6508444  3
   9698   9696   9710   9716     1  0.0000000  1.0460000  1
   9698   9696   9710   9716     1  0.0000000  0.0000000  3
   9698   9696   9710   9714     1  0.0000000  0.6508444  3
   9698   9696   9710   9715     1  0.0000000  0.6508444  3
   9698   9696   9718   9702     1  0.0000000  1.6038667  3
   9699   9697   9696   9710     1  0.0000000  0.6508444  3
   9699   9697   9696   9718     1  0.0000000  1.0460000  1
   9699   9697   9696   9718     1  0.0000000  0.0000000  3
   9699   9697   9700   9701     1  0.0000000  0.6508444  3
   9699   9697   9700   9708     1  0.0000000  1.0460000  1
   9699   9697   9700   9708     1  0.0000000  0.0000000  3
   9699   9697   9700   9704     1  0.0000000  0.6508444  3
   9699   9697   9709   9712     1  0.0000000  0.6973333  3
   9700   9697   9709   9712     1  0.0000000  1.0460000  1
   9700   9697   9709   9712     1  0.0000000  0.6694400  3
   9700   9701   9702   9705     1  0.0000000  0.6508444  3
   9700   9701   9707   9713     1  0.0000000  1.0460000  1
   9700   9701   9707   9713     1  0.0000000  0.6694400  3
   9701   9700   9708   9711     1  0.0000000  1.0460000  1
   9701   9700   9708   9711     1  0.0000000  0.6694400  3
   9702   9701   9700   9704     1  0.0000000  0.6508444  3
   9702   9701   9707   9713     1  0.0000000  1.0460000  1
   9702   9701   9707   9713     1  0.0000000  0.6694400  3
   9703   9701   9700   9708     1  0.0000000  1.0460000  1
   9703   9701   9700   9708     1  0.0000000  0.0000000  3
   9703   9701   9700   9704     1  0.0000000  0.6508444  3
   9703   9701   9702   9706     1  0.0000000  1.0460000  1
   9703   9701   9702   9706     1  0.0000000  0.0000000  3
   9703   9701   9702   9718     1  0.0000000  1.0460000  1
   9703   9701   9702   9718     1  0.0000000  0.0000000  3
   9703   9701   9702   9705     1  0.0000000  0.6508444  3
   9703   9701   9707   9713     1  0.0000000  0.6973333  3
   9704   9700   9697   9709     1  0.0000000  1.0460000  1
   9704   9700   9697   9709     1  0.0000000  0.0000000  3
   9704   9700   9701   9707     1  0.0000000  1.0460000  1
   9704   9700   9701   9707     1  0.0000000  0.0000000  3
   9704   9700   9708   9711     1  0.0000000  0.6973333  3
   9705   9702   9701   9707     1  0.0000000  0.6508444  3
   9714   9710   9696   9718     1  0.0000000  1.0460000  1
   9714   9710   9696   9718     1  0.0000000  0.0000000  3
   9714   9710   9716   9717     1  0.0000000  0.6973333  3
   9715   9710   9696   9718     1  0.0000000  1.0460000  1
   9715   9710   9696   9718     1  0.0000000  0.0000000  3
   9715   9710   9716   9717     1  0.0000000  0.6973333  3
   9719   9720   9723   9727     1  0.0000000  0.6508444  3
   9719   9720   9732   9735     1  0.0000000  1.0460000  1
   9719   9720   9732   9735     1  0.0000000  0.6694400  3
   9719   9733   9739   9740     1  0.0000000  1.0460000  1
   9719   9733   9739   9740     1  0.0000000  0.6694400  3
   9719   9741   9725   9728     1  0.0000000  1.6038667  3
   9720   9723   9724   9726     1  0.0000000  0.6508444  3
   9720   9723   9731   9734     1  0.0000000  1.0460000  1
   9720   9723   9731   9734     1  0.0000000  0.6694400  3
   9720   9719   9733   9737     1  0.0000000  0.6508444  3
   9720   9719   9733   9738     1  0.0000000  0.6508444  3
   9721   9719   9720   9723     1  0.0000000  0.6508444  3
   9721   9719   9720   9732     1  0.0000000  1.0460000  1
   9721   9719   9720   9732     1  0.0000000  0.0000000  3
   9721   9719   9720   9722     1  0.0000000  0.6508444  3
   9721   9719   9733   9739     1  0.0000000  1.0460000  1
   9721   9719   9733   9739     1  0.0000000  0.0000000  3
   9721   9719   9733   9737     1  0.0000000  0.6508444  3
   9721   9719   9733   9738     1  0.0000000  0.6508444  3
   9721   9719   9741   9725     1  0.0000000  1.6038667  3
   9722   9720   9723   9724     1  0.0000000  0.6508444  3
   9722   9720   9723   9731     1  0.0000000  1.0460000  1
   9722   9720   9723   9731     1  0.0000000  0.0000000  3
   9722   9720   9723   9727     1  0.0000000  0.6508444  3
   9722   9720   9732   9735     1  0.0000000  0.6973333  3
   9722   9720   9719   9733     1  0.0000000  0.6508444  3
   9722   9720   9719   9741     1  0.0000000  1.0460000  1
   9722   9720   9719   9741     1  0.0000000  0.0000000  3
   9723   9724   9725   9728     1  0.0000000  0.6508444  3
   9723   9724   9730   9736     1  0.0000000  1.0460000  1
   9723   9724   9730   9736     1  0.0000000  0.6694400  3
   9723   9720   9732   9735     1  0.0000000  1.0460000  1
   9723   9720   9732   9735     1  0.0000000  0.6694400  3
   9724   9723   9731   9734     1  0.0000000  1.0460000  1
   9724   9723   9731   9734     1  0.0000000  0.6694400  3
   9725   9724   9730   9736     1  0.0000000  1.0460000  1
   9725   9724   9730   9736     1  0.0000000  0.6694400  3
   9725   9724   9723   9727     1  0.0000000  0.6508444  3
   9726   9724   9725   9729     1  0.0000000  1.0460000  1
   9726   9724   9725   9729     1  0.0000000  0.0000000  3
   9726   9724   9725   9741     1  0.0000000  1.0460000  1
   9726   9724   9725   9741     1  0.0000000  0.0000000  3
   9726   9724   9725   9728     1  0.0000000  0.6508444  3
   9726   9724   9730   9736     1  0.0000000  0.6973333  3
   9726   9724   9723   9731     1  0.0000000  1.0460000  1
   9726   9724   9723   9731     1  0.0000000  0.0000000  3
   9726   9724   9723   9727     1  0.0000000  0.6508444  3
   9727   9723   9724   9730     1  0.0000000  1.0460000  1
   9727   9723   9724   9730     1  0.0000000  0.0000000  3
   9727   9723   9731   9734     1  0.0000000  0.6973333  3
   9727   9723   9720   9732     1  0.0000000  1.0460000  1
   9727   9723   9720   9732     1  0.0000000  0.0000000  3
   9728   9725   9724   9730     1  0.0000000  0.6508444  3
   9737   9733   9739   9740     1  0.0000000  0.6973333  3
   9737   9733   9719   9741     1  0.0000000  1.0460000  1
   9737   9733   9719   9741     1  0.0000000  0.0000000  3
   9738   9733   9739   9740     1  0.0000000  0.6973333  3
   9738   9733   9719   9741     1  0.0000000  1.0460000  1
   9738   9733   9719   9741     1  0.0000000  0.0000000  3
   9742   9743   9746   9750     1  0.0000000  0.6508444  3
   9742   9743   9755   9758     1  0.0000000  1.0460000  1
   9742   9743   9755   9758     1  0.0000000  0.6694400  3
   9742   9756   9762   9763     1  0.0000000  1.0460000  1
   9742   9756   9762   9763     1  0.0000000  0.6694400  3
   9742   9764   9748   9751     1  0.0000000  1.6038667  3
   9743   9742   9756   9760     1  0.0000000  0.6508444  3
   9743   9742   9756   9761     1  0.0000000  0.6508444  3
   9743   9746   9747   9749     1  0.0000000  0.6508444  3
   9743   9746   9754   9757     1  0.0000000  1.0460000  1
   9743   9746   9754   9757     1  0.0000000  0.6694400  3
   9744   9742   9743   9746     1  0.0000000  0.6508444  3
   9744   9742   9743   9755     1  0.0000000  1.0460000  1
   9744   9742   9743   9755     1  0.0000000  0.0000000  3
   9744   9742   9743   9745     1  0.0000000  0.6508444  3
   9744   9742   9756   9762     1  0.0000000  1.0460000  1
   9744   9742   9756   9762     1  0.0000000  0.0000000  3
   9744   9742   9756   9760     1  0.0000000  0.6508444  3
   9744   9742   9756   9761     1  0.0000000  0.6508444  3
   9744   9742   9764   9748     1  0.0000000  1.6038667  3
   9745   9743   9742   9756     1  0.0000000  0.6508444  3
   9745   9743   9742   9764     1  0.0000000  1.0460000  1
   9745   9743   9742   9764     1  0.0000000  0.0000000  3
   9745   9743   9746   9747     1  0.0000000  0.6508444  3
   9745   9743   9746   9754     1  0.0000000  1.0460000  1
   9745   9743   9746   9754     1  0.0000000  0.0000000  3
   9745   9743   9746   9750     1  0.0000000  0.6508444  3
   9745   9743   9755   9758     1  0.0000000  0.6973333  3
   9746   9743   9755   9758     1  0.0000000  1.0460000  1
   9746   9743   9755   9758     1  0.0000000  0.6694400  3
   9746   9747   9748   9751     1  0.0000000  0.6508444  3
   9746   9747   9753   9759     1  0.0000000  1.0460000  1
   9746   9747   9753   9759     1  0.0000000  0.6694400  3
   9747   9746   9754   9757     1  0.0000000  1.0460000  1
   9747   9746   9754   9757     1  0.0000000  0.6694400  3
   9748   9747   9746   9750     1  0.0000000  0.6508444  3
   9748   9747   9753   9759     1  0.0000000  1.0460000  1
   9748   9747   9753   9759     1  0.0000000  0.6694400  3
   9749   9747   9746   9754     1  0.0000000  1.0460000  1
   9749   9747   9746   9754     1  0.0000000  0.0000000  3
   9749   9747   9746   9750     1  0.0000000  0.6508444  3
   9749   9747   9748   9752     1  0.0000000  1.0460000  1
   9749   9747   9748   9752     1  0.0000000  0.0000000  3
   9749   9747   9748   9764     1  0.0000000  1.0460000  1
   9749   9747   9748   9764     1  0.0000000  0.0000000  3
   9749   9747   9748   9751     1  0.0000000  0.6508444  3
   9749   9747   9753   9759     1  0.0000000  0.6973333  3
   9750   9746   9743   9755     1  0.0000000  1.0460000  1
   9750   9746   9743   9755     1  0.0000000  0.0000000  3
   9750   9746   9747   9753     1  0.0000000  1.0460000  1
   9750   9746   9747   9753     1  0.0000000  0.0000000  3
   9750   9746   9754   9757     1  0.0000000  0.6973333  3
   9751   9748   9747   9753     1  0.0000000  0.6508444  3
   9760   9756   9742   9764     1  0.0000000  1.0460000  1
   9760   9756   9742   9764     1  0.0000000  0.0000000  3
   9760   9756   9762   9763     1  0.0000000  0.6973333  3
   9761   9756   9742   9764     1  0.0000000  1.0460000  1
   9761   9756   9742   9764     1  0.0000000  0.0000000  3
   9761   9756   9762   9763     1  0.0000000  0.6973333  3
   9765   9766   9769   9773     1  0.0000000  0.6508444  3
   9765   9766   9778   9781     1  0.0000000  1.0460000  1
   9765   9766   9778   9781     1  0.0000000  0.6694400  3
   9765   9779   9785   9786     1  0.0000000  1.0460000  1
   9765   9779   9785   9786     1  0.0000000  0.6694400  3
   9765   9787   9771   9774     1  0.0000000  1.6038667  3
   9766   9769   9770   9772     1  0.0000000  0.6508444  3
   9766   9769   9777   9780     1  0.0000000  1.0460000  1
   9766   9769   9777   9780     1  0.0000000  0.6694400  3
   9766   9765   9779   9783     1  0.0000000  0.6508444  3
   9766   9765   9779   9784     1  0.0000000  0.6508444  3
   9767   9765   9766   9769     1  0.0000000  0.6508444  3
   9767   9765   9766   9778     1  0.0000000  1.0460000  1
   9767   9765   9766   9778     1  0.0000000  0.0000000  3
   9767   9765   9766   9768     1  0.0000000  0.6508444  3
   9767   9765   9779   9785     1  0.0000000  1.0460000  1
   9767   9765   9779   9785     1  0.0000000  0.0000000  3
   9767   9765   9779   9783     1  0.0000000  0.6508444  3
   9767   9765   9779   9784     1  0.0000000  0.6508444  3
   9767   9765   9787   9771     1  0.0000000  1.6038667  3
   9768   9766   9769   9770     1  0.0000000  0.6508444  3
   9768   9766   9769   9777     1  0.0000000  1.0460000  1
   9768   9766   9769   9777     1  0.0000000  0.0000000  3
   9768   9766   9769   9773     1  0.0000000  0.6508444  3
   9768   9766   9778   9781     1  0.0000000  0.6973333  3
   9768   9766   9765   9779     1  0.0000000  0.6508444  3
   9768   9766   9765   9787     1  0.0000000  1.0460000  1
   9768   9766   9765   9787     1  0.0000000  0.0000000  3
   9769   9770   9771   9774     1  0.0000000  0.6508444  3
   9769   9770   9776   9782     1  0.0000000  1.0460000  1
   9769   9770   9776   9782     1  0.0000000  0.6694400  3
   9769   9766   9778   9781     1  0.0000000  1.0460000  1
   9769   9766   9778   9781     1  0.0000000  0.6694400  3
   9770   9769   9777   9780     1  0.0000000  1.0460000  1
   9770   9769   9777   9780     1  0.0000000  0.6694400  3
   9771   9770   9776   9782     1  0.0000000  1.0460000  1
   9771   9770   9776   9782     1  0.0000000  0.6694400  3
   9771   9770   9769   9773     1  0.0000000  0.6508444  3
   9772   9770   9771   9775     1  0.0000000  1.0460000  1
   9772   9770   9771   9775     1  0.0000000  0.0000000  3
   9772   9770   9771   9787     1  0.0000000  1.0460000  1
   9772   9770   9771   9787     1  0.0000000  0.0000000  3
   9772   9770   9771   9774     1  0.0000000  0.6508444  3
   9772   9770   9776   9782     1  0.0000000  0.6973333  3
   9772   9770   9769   9777     1  0.0000000  1.0460000  1
   9772   9770   9769   9777     1  0.0000000  0.0000000  3
   9772   9770   9769   9773     1  0.0000000  0.6508444  3
   9773   9769   9770   9776     1  0.0000000  1.0460000  1
   9773   9769   9770   9776     1  0.0000000  0.0000000  3
   9773   9769   9777   9780     1  0.0000000  0.6973333  3
   9773   9769   9766   9778     1  0.0000000  1.0460000  1
   9773   9769   9766   9778     1  0.0000000  0.0000000  3
   9774   9771   9770   9776     1  0.0000000  0.6508444  3
   9783   9779   9785   9786     1  0.0000000  0.6973333  3
   9783   9779   9765   9787     1  0.0000000  1.0460000  1
   9783   9779   9765   9787     1  0.0000000  0.0000000  3
   9784   9779   9785   9786     1  0.0000000  0.6973333  3
   9784   9779   9765   9787     1  0.0000000  1.0460000  1
   9784   9779   9765   9787     1  0.0000000  0.0000000  3
   9788   9789   9792   9796     1  0.0000000  0.6508444  3
   9788   9789   9801   9804     1  0.0000000  1.0460000  1
   9788   9789   9801   9804     1  0.0000000  0.6694400  3
   9788   9802   9808   9809     1  0.0000000  1.0460000  1
   9788   9802   9808   9809     1  0.0000000  0.6694400  3
   9788   9810   9794   9797     1  0.0000000  1.6038667  3
   9789   9788   9802   9806     1  0.0000000  0.6508444  3
   9789   9788   9802   9807     1  0.0000000  0.6508444  3
   9789   9792   9793   9795     1  0.0000000  0.6508444  3
   9789   9792   9800   9803     1  0.0000000  1.0460000  1
   9789   9792   9800   9803     1  0.0000000  0.6694400  3
   9790   9788   9789   9792     1  0.0000000  0.6508444  3
   9790   9788   9789   9801     1  0.0000000  1.0460000  1
   9790   9788   9789   9801     1  0.0000000  0.0000000  3
   9790   9788   9789   9791     1  0.0000000  0.6508444  3
   9790   9788   9802   9808     1  0.0000000  1.0460000  1
   9790   9788   9802   9808     1  0.0000000  0.0000000  3
   9790   9788   9802   9806     1  0.0000000  0.6508444  3
   9790   9788   9802   9807     1  0.0000000  0.6508444  3
   9790   9788   9810   9794     1  0.0000000  1.6038667  3
   9791   9789   9788   9802     1  0.0000000  0.6508444  3
   9791   9789   9788   9810     1  0.0000000  1.0460000  1
   9791   9789   9788   9810     1  0.0000000  0.0000000  3
   9791   9789   9792   9793     1  0.0000000  0.6508444  3
   9791   9789   9792   9800     1  0.0000000  1.0460000  1
   9791   9789   9792   9800     1  0.0000000  0.0000000  3
   9791   9789   9792   9796     1  0.0000000  0.6508444  3
   9791   9789   9801   9804     1  0.0000000  0.6973333  3
   9792   9789   9801   9804     1  0.0000000  1.0460000  1
   9792   9789   9801   9804     1  0.0000000  0.6694400  3
   9792   9793   9794   9797     1  0.0000000  0.6508444  3
   9792   9793   9799   9805     1  0.0000000  1.0460000  1
   9792   9793   9799   9805     1  0.0000000  0.6694400  3
   9793   9792   9800   9803     1  0.0000000  1.0460000  1
   9793   9792   9800   9803     1  0.0000000  0.6694400  3
   9794   9793   9792   9796     1  0.0000000  0.6508444  3
   9794   9793   9799   9805     1  0.0000000  1.0460000  1
   9794   9793   9799   9805     1  0.0000000  0.6694400  3
   9795   9793   9792   9800     1  0.0000000  1.0460000  1
   9795   9793   9792   9800     1  0.0000000  0.0000000  3
   9795   9793   9792   9796     1  0.0000000  0.6508444  3
   9795   9793   9794   9798     1  0.0000000  1.0460000  1
   9795   9793   9794   9798     1  0.0000000  0.0000000  3
   9795   9793   9794   9810     1  0.0000000  1.0460000  1
   9795   9793   9794   9810     1  0.0000000  0.0000000  3
   9795   9793   9794   9797     1  0.0000000  0.6508444  3
   9795   9793   9799   9805     1  0.0000000  0.6973333  3
   9796   9792   9789   9801     1  0.0000000  1.0460000  1
   9796   9792   9789   9801     1  0.0000000  0.0000000  3
   9796   9792   9793   9799     1  0.0000000  1.0460000  1
   9796   9792   9793   9799     1  0.0000000  0.0000000  3
   9796   9792   9800   9803     1  0.0000000  0.6973333  3
   9797   9794   9793   9799     1  0.0000000  0.6508444  3
   9806   9802   9788   9810     1  0.0000000  1.0460000  1
   9806   9802   9788   9810     1  0.0000000  0.0000000  3
   9806   9802   9808   9809     1  0.0000000  0.6973333  3
   9807   9802   9788   9810     1  0.0000000  1.0460000  1
   9807   9802   9788   9810     1  0.0000000  0.0000000  3
   9807   9802   9808   9809     1  0.0000000  0.6973333  3
   9811   9812   9815   9819     1  0.0000000  0.6508444  3
   9811   9812   9824   9827     1  0.0000000  1.0460000  1
   9811   9812   9824   9827     1  0.0000000  0.6694400  3
   9811   9825   9831   9832     1  0.0000000  1.0460000  1
   9811   9825   9831   9832     1  0.0000000  0.6694400  3
   9811   9833   9817   9820     1  0.0000000  1.6038667  3
   9812   9815   9816   9818     1  0.0000000  0.6508444  3
   9812   9815   9823   9826     1  0.0000000  1.0460000  1
   9812   9815   9823   9826     1  0.0000000  0.6694400  3
   9812   9811   9825   9829     1  0.0000000  0.6508444  3
   9812   9811   9825   9830     1  0.0000000  0.6508444  3
   9813   9811   9812   9815     1  0.0000000  0.6508444  3
   9813   9811   9812   9824     1  0.0000000  1.0460000  1
   9813   9811   9812   9824     1  0.0000000  0.0000000  3
   9813   9811   9812   9814     1  0.0000000  0.6508444  3
   9813   9811   9825   9831     1  0.0000000  1.0460000  1
   9813   9811   9825   9831     1  0.0000000  0.0000000  3
   9813   9811   9825   9829     1  0.0000000  0.6508444  3
   9813   9811   9825   9830     1  0.0000000  0.6508444  3
   9813   9811   9833   9817     1  0.0000000  1.6038667  3
   9814   9812   9815   9816     1  0.0000000  0.6508444  3
   9814   9812   9815   9823     1  0.0000000  1.0460000  1
   9814   9812   9815   9823     1  0.0000000  0.0000000  3
   9814   9812   9815   9819     1  0.0000000  0.6508444  3
   9814   9812   9824   9827     1  0.0000000  0.6973333  3
   9814   9812   9811   9825     1  0.0000000  0.6508444  3
   9814   9812   9811   9833     1  0.0000000  1.0460000  1
   9814   9812   9811   9833     1  0.0000000  0.0000000  3
   9815   9816   9817   9820     1  0.0000000  0.6508444  3
   9815   9816   9822   9828     1  0.0000000  1.0460000  1
   9815   9816   9822   9828     1  0.0000000  0.6694400  3
   9815   9812   9824   9827     1  0.0000000  1.0460000  1
   9815   9812   9824   9827     1  0.0000000  0.6694400  3
   9816   9815   9823   9826     1  0.0000000  1.0460000  1
   9816   9815   9823   9826     1  0.0000000  0.6694400  3
   9817   9816   9822   9828     1  0.0000000  1.0460000  1
   9817   9816   9822   9828     1  0.0000000  0.6694400  3
   9817   9816   9815   9819     1  0.0000000  0.6508444  3
   9818   9816   9817   9821     1  0.0000000  1.0460000  1
   9818   9816   9817   9821     1  0.0000000  0.0000000  3
   9818   9816   9817   9833     1  0.0000000  1.0460000  1
   9818   9816   9817   9833     1  0.0000000  0.0000000  3
   9818   9816   9817   9820     1  0.0000000  0.6508444  3
   9818   9816   9822   9828     1  0.0000000  0.6973333  3
   9818   9816   9815   9823     1  0.0000000  1.0460000  1
   9818   9816   9815   9823     1  0.0000000  0.0000000  3
   9818   9816   9815   9819     1  0.0000000  0.6508444  3
   9819   9815   9816   9822     1  0.0000000  1.0460000  1
   9819   9815   9816   9822     1  0.0000000  0.0000000  3
   9819   9815   9823   9826     1  0.0000000  0.6973333  3
   9819   9815   9812   9824     1  0.0000000  1.0460000  1
   9819   9815   9812   9824     1  0.0000000  0.0000000  3
   9820   9817   9816   9822     1  0.0000000  0.6508444  3
   9829   9825   9831   9832     1  0.0000000  0.6973333  3
   9829   9825   9811   9833     1  0.0000000  1.0460000  1
   9829   9825   9811   9833     1  0.0000000  0.0000000  3
   9830   9825   9831   9832     1  0.0000000  0.6973333  3
   9830   9825   9811   9833     1  0.0000000  1.0460000  1
   9830   9825   9811   9833     1  0.0000000  0.0000000  3
   9834   9835   9838   9842     1  0.0000000  0.6508444  3
   9834   9835   9847   9850     1  0.0000000  1.0460000  1
   9834   9835   9847   9850     1  0.0000000  0.6694400  3
   9834   9848   9854   9855     1  0.0000000  1.0460000  1
   9834   9848   9854   9855     1  0.0000000  0.6694400  3
   9834   9856   9840   9843     1  0.0000000  1.6038667  3
   9835   9834   9848   9852     1  0.0000000  0.6508444  3
   9835   9834   9848   9853     1  0.0000000  0.6508444  3
   9835   9838   9839   9841     1  0.0000000  0.6508444  3
   9835   9838   9846   9849     1  0.0000000  1.0460000  1
   9835   9838   9846   9849     1  0.0000000  0.6694400  3
   9836   9834   9835   9838     1  0.0000000  0.6508444  3
   9836   9834   9835   9847     1  0.0000000  1.0460000  1
   9836   9834   9835   9847     1  0.0000000  0.0000000  3
   9836   9834   9835   9837     1  0.0000000  0.6508444  3
   9836   9834   9848   9854     1  0.0000000  1.0460000  1
   9836   9834   9848   9854     1  0.0000000  0.0000000  3
   9836   9834   9848   9852     1  0.0000000  0.6508444  3
   9836   9834   9848   9853     1  0.0000000  0.6508444  3
   9836   9834   9856   9840     1  0.0000000  1.6038667  3
   9837   9835   9834   9848     1  0.0000000  0.6508444  3
   9837   9835   9834   9856     1  0.0000000  1.0460000  1
   9837   9835   9834   9856     1  0.0000000  0.0000000  3
   9837   9835   9838   9839     1  0.0000000  0.6508444  3
   9837   9835   9838   9846     1  0.0000000  1.0460000  1
   9837   9835   9838   9846     1  0.0000000  0.0000000  3
   9837   9835   9838   9842     1  0.0000000  0.6508444  3
   9837   9835   9847   9850     1  0.0000000  0.6973333  3
   9838   9835   9847   9850     1  0.0000000  1.0460000  1
   9838   9835   9847   9850     1  0.0000000  0.6694400  3
   9838   9839   9840   9843     1  0.0000000  0.6508444  3
   9838   9839   9845   9851     1  0.0000000  1.0460000  1
   9838   9839   9845   9851     1  0.0000000  0.6694400  3
   9839   9838   9846   9849     1  0.0000000  1.0460000  1
   9839   9838   9846   9849     1  0.0000000  0.6694400  3
   9840   9839   9838   9842     1  0.0000000  0.6508444  3
   9840   9839   9845   9851     1  0.0000000  1.0460000  1
   9840   9839   9845   9851     1  0.0000000  0.6694400  3
   9841   9839   9838   9846     1  0.0000000  1.0460000  1
   9841   9839   9838   9846     1  0.0000000  0.0000000  3
   9841   9839   9838   9842     1  0.0000000  0.6508444  3
   9841   9839   9840   9844     1  0.0000000  1.0460000  1
   9841   9839   9840   9844     1  0.0000000  0.0000000  3
   9841   9839   9840   9856     1  0.0000000  1.0460000  1
   9841   9839   9840   9856     1  0.0000000  0.0000000  3
   9841   9839   9840   9843     1  0.0000000  0.6508444  3
   9841   9839   9845   9851     1  0.0000000  0.6973333  3
   9842   9838   9835   9847     1  0.0000000  1.0460000  1
   9842   9838   9835   9847     1  0.0000000  0.0000000  3
   9842   9838   9839   9845     1  0.0000000  1.0460000  1
   9842   9838   9839   9845     1  0.0000000  0.0000000  3
   9842   9838   9846   9849     1  0.0000000  0.6973333  3
   9843   9840   9839   9845     1  0.0000000  0.6508444  3
   9852   9848   9834   9856     1  0.0000000  1.0460000  1
   9852   9848   9834   9856     1  0.0000000  0.0000000  3
   9852   9848   9854   9855     1  0.0000000  0.6973333  3
   9853   9848   9834   9856     1  0.0000000  1.0460000  1
   9853   9848   9834   9856     1  0.0000000  0.0000000  3
   9853   9848   9854   9855     1  0.0000000  0.6973333  3
   9857   9858   9861   9865     1  0.0000000  0.6508444  3
   9857   9858   9870   9873     1  0.0000000  1.0460000  1
   9857   9858   9870   9873     1  0.0000000  0.6694400  3
   9857   9871   9877   9878     1  0.0000000  1.0460000  1
   9857   9871   9877   9878     1  0.0000000  0.6694400  3
   9857   9879   9863   9866     1  0.0000000  1.6038667  3
   9858   9861   9862   9864     1  0.0000000  0.6508444  3
   9858   9861   9869   9872     1  0.0000000  1.0460000  1
   9858   9861   9869   9872     1  0.0000000  0.6694400  3
   9858   9857   9871   9875     1  0.0000000  0.6508444  3
   9858   9857   9871   9876     1  0.0000000  0.6508444  3
   9859   9857   9858   9861     1  0.0000000  0.6508444  3
   9859   9857   9858   9870     1  0.0000000  1.0460000  1
   9859   9857   9858   9870     1  0.0000000  0.0000000  3
   9859   9857   9858   9860     1  0.0000000  0.6508444  3
   9859   9857   9871   9877     1  0.0000000  1.0460000  1
   9859   9857   9871   9877     1  0.0000000  0.0000000  3
   9859   9857   9871   9875     1  0.0000000  0.6508444  3
   9859   9857   9871   9876     1  0.0000000  0.6508444  3
   9859   9857   9879   9863     1  0.0000000  1.6038667  3
   9860   9858   9861   9862     1  0.0000000  0.6508444  3
   9860   9858   9861   9869     1  0.0000000  1.0460000  1
   9860   9858   9861   9869     1  0.0000000  0.0000000  3
   9860   9858   9861   9865     1  0.0000000  0.6508444  3
   9860   9858   9870   9873     1  0.0000000  0.6973333  3
   9860   9858   9857   9871     1  0.0000000  0.6508444  3
   9860   9858   9857   9879     1  0.0000000  1.0460000  1
   9860   9858   9857   9879     1  0.0000000  0.0000000  3
   9861   9862   9863   9866     1  0.0000000  0.6508444  3
   9861   9862   9868   9874     1  0.0000000  1.0460000  1
   9861   9862   9868   9874     1  0.0000000  0.6694400  3
   9861   9858   9870   9873     1  0.0000000  1.0460000  1
   9861   9858   9870   9873     1  0.0000000  0.6694400  3
   9862   9861   9869   9872     1  0.0000000  1.0460000  1
   9862   9861   9869   9872     1  0.0000000  0.6694400  3
   9863   9862   9868   9874     1  0.0000000  1.0460000  1
   9863   9862   9868   9874     1  0.0000000  0.6694400  3
   9863   9862   9861   9865     1  0.0000000  0.6508444  3
   9864   9862   9863   9867     1  0.0000000  1.0460000  1
   9864   9862   9863   9867     1  0.0000000  0.0000000  3
   9864   9862   9863   9879     1  0.0000000  1.0460000  1
   9864   9862   9863   9879     1  0.0000000  0.0000000  3
   9864   9862   9863   9866     1  0.0000000  0.6508444  3
   9864   9862   9868   9874     1  0.0000000  0.6973333  3
   9864   9862   9861   9869     1  0.0000000  1.0460000  1
   9864   9862   9861   9869     1  0.0000000  0.0000000  3
   9864   9862   9861   9865     1  0.0000000  0.6508444  3
   9865   9861   9862   9868     1  0.0000000  1.0460000  1
   9865   9861   9862   9868     1  0.0000000  0.0000000  3
   9865   9861   9869   9872     1  0.0000000  0.6973333  3
   9865   9861   9858   9870     1  0.0000000  1.0460000  1
   9865   9861   9858   9870     1  0.0000000  0.0000000  3
   9866   9863   9862   9868     1  0.0000000  0.6508444  3
   9875   9871   9877   9878     1  0.0000000  0.6973333  3
   9875   9871   9857   9879     1  0.0000000  1.0460000  1
   9875   9871   9857   9879     1  0.0000000  0.0000000  3
   9876   9871   9877   9878     1  0.0000000  0.6973333  3
   9876   9871   9857   9879     1  0.0000000  1.0460000  1
   9876   9871   9857   9879     1  0.0000000  0.0000000  3
   9880   9881   9884   9888     1  0.0000000  0.6508444  3
   9880   9881   9893   9896     1  0.0000000  1.0460000  1
   9880   9881   9893   9896     1  0.0000000  0.6694400  3
   9880   9894   9900   9901     1  0.0000000  1.0460000  1
   9880   9894   9900   9901     1  0.0000000  0.6694400  3
   9880   9902   9886   9889     1  0.0000000  1.6038667  3
   9881   9880   9894   9898     1  0.0000000  0.6508444  3
   9881   9880   9894   9899     1  0.0000000  0.6508444  3
   9881   9884   9885   9887     1  0.0000000  0.6508444  3
   9881   9884   9892   9895     1  0.0000000  1.0460000  1
   9881   9884   9892   9895     1  0.0000000  0.6694400  3
   9882   9880   9881   9884     1  0.0000000  0.6508444  3
   9882   9880   9881   9893     1  0.0000000  1.0460000  1
   9882   9880   9881   9893     1  0.0000000  0.0000000  3
   9882   9880   9881   9883     1  0.0000000  0.6508444  3
   9882   9880   9894   9900     1  0.0000000  1.0460000  1
   9882   9880   9894   9900     1  0.0000000  0.0000000  3
   9882   9880   9894   9898     1  0.0000000  0.6508444  3
   9882   9880   9894   9899     1  0.0000000  0.6508444  3
   9882   9880   9902   9886     1  0.0000000  1.6038667  3
   9883   9881   9880   9894     1  0.0000000  0.6508444  3
   9883   9881   9880   9902     1  0.0000000  1.0460000  1
   9883   9881   9880   9902     1  0.0000000  0.0000000  3
   9883   9881   9884   9885     1  0.0000000  0.6508444  3
   9883   9881   9884   9892     1  0.0000000  1.0460000  1
   9883   9881   9884   9892     1  0.0000000  0.0000000  3
   9883   9881   9884   9888     1  0.0000000  0.6508444  3
   9883   9881   9893   9896     1  0.0000000  0.6973333  3
   9884   9881   9893   9896     1  0.0000000  1.0460000  1
   9884   9881   9893   9896     1  0.0000000  0.6694400  3
   9884   9885   9886   9889     1  0.0000000  0.6508444  3
   9884   9885   9891   9897     1  0.0000000  1.0460000  1
   9884   9885   9891   9897     1  0.0000000  0.6694400  3
   9885   9884   9892   9895     1  0.0000000  1.0460000  1
   9885   9884   9892   9895     1  0.0000000  0.6694400  3
   9886   9885   9884   9888     1  0.0000000  0.6508444  3
   9886   9885   9891   9897     1  0.0000000  1.0460000  1
   9886   9885   9891   9897     1  0.0000000  0.6694400  3
   9887   9885   9884   9892     1  0.0000000  1.0460000  1
   9887   9885   9884   9892     1  0.0000000  0.0000000  3
   9887   9885   9884   9888     1  0.0000000  0.6508444  3
   9887   9885   9886   9890     1  0.0000000  1.0460000  1
   9887   9885   9886   9890     1  0.0000000  0.0000000  3
   9887   9885   9886   9902     1  0.0000000  1.0460000  1
   9887   9885   9886   9902     1  0.0000000  0.0000000  3
   9887   9885   9886   9889     1  0.0000000  0.6508444  3
   9887   9885   9891   9897     1  0.0000000  0.6973333  3
   9888   9884   9881   9893     1  0.0000000  1.0460000  1
   9888   9884   9881   9893     1  0.0000000  0.0000000  3
   9888   9884   9885   9891     1  0.0000000  1.0460000  1
   9888   9884   9885   9891     1  0.0000000  0.0000000  3
   9888   9884   9892   9895     1  0.0000000  0.6973333  3
   9889   9886   9885   9891     1  0.0000000  0.6508444  3
   9898   9894   9880   9902     1  0.0000000  1.0460000  1
   9898   9894   9880   9902     1  0.0000000  0.0000000  3
   9898   9894   9900   9901     1  0.0000000  0.6973333  3
   9899   9894   9880   9902     1  0.0000000  1.0460000  1
   9899   9894   9880   9902     1  0.0000000  0.0000000  3
   9899   9894   9900   9901     1  0.0000000  0.6973333  3
   9903   9904   9907   9911     1  0.0000000  0.6508444  3
   9903   9904   9916   9919     1  0.0000000  1.0460000  1
   9903   9904   9916   9919     1  0.0000000  0.6694400  3
   9903   9917   9923   9924     1  0.0000000  1.0460000  1
   9903   9917   9923   9924     1  0.0000000  0.6694400  3
   9903   9925   9909   9912     1  0.0000000  1.6038667  3
   9904   9907   9908   9910     1  0.0000000  0.6508444  3
   9904   9907   9915   9918     1  0.0000000  1.0460000  1
   9904   9907   9915   9918     1  0.0000000  0.6694400  3
   9904   9903   9917   9921     1  0.0000000  0.6508444  3
   9904   9903   9917   9922     1  0.0000000  0.6508444  3
   9905   9903   9904   9907     1  0.0000000  0.6508444  3
   9905   9903   9904   9916     1  0.0000000  1.0460000  1
   9905   9903   9904   9916     1  0.0000000  0.0000000  3
   9905   9903   9904   9906     1  0.0000000  0.6508444  3
   9905   9903   9917   9923     1  0.0000000  1.0460000  1
   9905   9903   9917   9923     1  0.0000000  0.0000000  3
   9905   9903   9917   9921     1  0.0000000  0.6508444  3
   9905   9903   9917   9922     1  0.0000000  0.6508444  3
   9905   9903   9925   9909     1  0.0000000  1.6038667  3
   9906   9904   9907   9908     1  0.0000000  0.6508444  3
   9906   9904   9907   9915     1  0.0000000  1.0460000  1
   9906   9904   9907   9915     1  0.0000000  0.0000000  3
   9906   9904   9907   9911     1  0.0000000  0.6508444  3
   9906   9904   9916   9919     1  0.0000000  0.6973333  3
   9906   9904   9903   9917     1  0.0000000  0.6508444  3
   9906   9904   9903   9925     1  0.0000000  1.0460000  1
   9906   9904   9903   9925     1  0.0000000  0.0000000  3
   9907   9908   9909   9912     1  0.0000000  0.6508444  3
   9907   9908   9914   9920     1  0.0000000  1.0460000  1
   9907   9908   9914   9920     1  0.0000000  0.6694400  3
   9907   9904   9916   9919     1  0.0000000  1.0460000  1
   9907   9904   9916   9919     1  0.0000000  0.6694400  3
   9908   9907   9915   9918     1  0.0000000  1.0460000  1
   9908   9907   9915   9918     1  0.0000000  0.6694400  3
   9909   9908   9914   9920     1  0.0000000  1.0460000  1
   9909   9908   9914   9920     1  0.0000000  0.6694400  3
   9909   9908   9907   9911     1  0.0000000  0.6508444  3
   9910   9908   9909   9913     1  0.0000000  1.0460000  1
   9910   9908   9909   9913     1  0.0000000  0.0000000  3
   9910   9908   9909   9925     1  0.0000000  1.0460000  1
   9910   9908   9909   9925     1  0.0000000  0.0000000  3
   9910   9908   9909   9912     1  0.0000000  0.6508444  3
   9910   9908   9914   9920     1  0.0000000  0.6973333  3
   9910   9908   9907   9915     1  0.0000000  1.0460000  1
   9910   9908   9907   9915     1  0.0000000  0.0000000  3
   9910   9908   9907   9911     1  0.0000000  0.6508444  3
   9911   9907   9908   9914     1  0.0000000  1.0460000  1
   9911   9907   9908   9914     1  0.0000000  0.0000000  3
   9911   9907   9915   9918     1  0.0000000  0.6973333  3
   9911   9907   9904   9916     1  0.0000000  1.0460000  1
   9911   9907   9904   9916     1  0.0000000  0.0000000  3
   9912   9909   9908   9914     1  0.0000000  0.6508444  3
   9921   9917   9923   9924     1  0.0000000  0.6973333  3
   9921   9917   9903   9925     1  0.0000000  1.0460000  1
   9921   9917   9903   9925     1  0.0000000  0.0000000  3
   9922   9917   9923   9924     1  0.0000000  0.6973333  3
   9922   9917   9903   9925     1  0.0000000  1.0460000  1
   9922   9917   9903   9925     1  0.0000000  0.0000000  3

;[ system ]
;; Name
;Generic title
;
;[ molecules ]
;; Compound       #mols
;g5npncore_petim_betagalactose       1
