;
;   File g2dpncore_petim_betagalactose.itp  was generated
;   By user: sairam (1000)
;   On host: sairam
;   At date: Sat. January  6 14:59:36 2025
;
;   This is a standalone topology file
;
;   Created by:
;   ParmEd:       amb2gro_top_gro.py, VERSION 3.4.1
;   Executable:   amb2gro_top_gro.py
;   Library dir:  /usr/local/gromacs/share/gromacs/top
;   Command line:
;     ./amb2gro_top_gro.py -p g2dpncore_petim_betagalactose.prmtop -c g2dpncore_petim_betagalactose.inpcrd -t g2dpncore_petim_betagalactose.itp -g g2dpncore_petim_betagalactose.gro -b g2dpncore_petim_betagalactose.pdb
;

;[ defaults ]
;; nbfunc        comb-rule       gen-pairs       fudgeLJ fudgeQQ
;1               2               yes             0.5          0.83333333  
;
;[ atomtypes ]
;; name    at.num    mass    charge ptype  sigma      epsilon
;n4             7  14.010000  0.00000000  A     0.32499985        0.71128
;c3             6  12.010000  0.00000000  A     0.33996695      0.4577296
;hx             1   1.008000  0.00000000  A     0.19599772      0.0656888
;hc             1   1.008000  0.00000000  A     0.26495328      0.0656888
;h1             1   1.008000  0.00000000  A      0.2471353      0.0656888
;hn             1   1.008000  0.00000000  A     0.10690785      0.0656888
;os             8  16.000000  0.00000000  A     0.30000123        0.71128
;h2             1   1.008000  0.00000000  A     0.22931733      0.0656888
;oh             8  16.000000  0.00000000  A     0.30664734      0.8803136
;ho             1   1.008000  0.00000000  A              0              0


[ moleculetype ]
; Name            nrexcl
g2dpncore_petim_betagalactose          3

[ atoms ]
;   nr       type  resnr residue  atom   cgnr    charge       mass  typeB    chargeB      massB
; residue    1 aaa rtp aaa q 1.0
    1         n4      1    aaa     N1      1 -0.24795800  14.010000   ; qtot -0.247958
    2         c3      1    aaa     C1      2 0.15727100  12.010000   ; qtot -0.090687
    3         hx      1    aaa     H1      3 0.05072400   1.008000   ; qtot -0.039963
    4         hx      1    aaa     H2      4 0.05072400   1.008000   ; qtot 0.010761
    5         c3      1    aaa     C2      5 0.15727100  12.010000   ; qtot 0.168032
    6         hx      1    aaa     H3      6 0.05072400   1.008000   ; qtot 0.218756
    7         hx      1    aaa     H4      7 0.05072400   1.008000   ; qtot 0.269480
    8         c3      1    aaa     C3      8 0.15727100  12.010000   ; qtot 0.426751
    9         hx      1    aaa     H5      9 0.05072400   1.008000   ; qtot 0.477475
   10         hx      1    aaa     H6     10 0.05072400   1.008000   ; qtot 0.528199
   11         c3      1    aaa     C4     11 0.05437700  12.010000   ; qtot 0.582576
   12         hc      1    aaa     H7     12 0.07708700   1.008000   ; qtot 0.659663
   13         hc      1    aaa     H8     13 0.07708700   1.008000   ; qtot 0.736750
   14         c3      1    aaa     C5     14 0.05437700  12.010000   ; qtot 0.791127
   15         hc      1    aaa     H9     15 0.07708700   1.008000   ; qtot 0.868214
   16         hc      1    aaa    H10     16 0.07708700   1.008000   ; qtot 0.945301
   17         c3      1    aaa     C6     17 0.05437700  12.010000   ; qtot 0.999678
   18         hc      1    aaa    H11     18 0.07708700   1.008000   ; qtot 1.076765
   19         hc      1    aaa    H12     19 0.07708700   1.008000   ; qtot 1.153852
   20         c3      1    aaa     C7     20 -0.74569400  12.010000   ; qtot 0.408158
   21         h1      1    aaa    H13     21 0.30837900   1.008000   ; qtot 0.716537
   22         h1      1    aaa    H14     22 0.30837900   1.008000   ; qtot 1.024916
   23         c3      1    aaa     C8     23 -0.74569400  12.010000   ; qtot 0.279222
   24         h1      1    aaa    H15     24 0.30837900   1.008000   ; qtot 0.587601
   25         h1      1    aaa    H16     25 0.30837900   1.008000   ; qtot 0.895980
   26         c3      1    aaa     C9     26 -0.74569400  12.010000   ; qtot 0.150286
   27         h1      1    aaa    H17     27 0.30837900   1.008000   ; qtot 0.458665
   28         h1      1    aaa    H18     28 0.30837900   1.008000   ; qtot 0.767044
   29         hn      1    aaa    H19     29 0.23295100   1.008000   ; qtot 0.999995
; residue    2 bbb rtp bbb q 1.0
   30         n4      2    bbb     N1     30 0.03726400  14.010000   ; qtot 1.037259
   31         c3      2    bbb     C1     31 -0.07020100  12.010000   ; qtot 0.967058
   32         hx      2    bbb     H1     32 0.12219000   1.008000   ; qtot 1.089248
   33         hx      2    bbb     H2     33 0.12219000   1.008000   ; qtot 1.211438
   34         c3      2    bbb     C2     34 -0.07020100  12.010000   ; qtot 1.141237
   35         hx      2    bbb     H3     35 0.12219000   1.008000   ; qtot 1.263427
   36         hx      2    bbb     H4     36 0.12219000   1.008000   ; qtot 1.385617
   37         c3      2    bbb     C3     37 -0.39007700  12.010000   ; qtot 0.995540
   38         hx      2    bbb     H5     38 0.14940300   1.008000   ; qtot 1.144943
   39         hx      2    bbb     H6     39 0.14940300   1.008000   ; qtot 1.294346
   40         c3      2    bbb     C4     40 0.18057300  12.010000   ; qtot 1.474919
   41         hc      2    bbb     H7     41 0.01788900   1.008000   ; qtot 1.492808
   42         hc      2    bbb     H8     42 0.01788900   1.008000   ; qtot 1.510697
   43         c3      2    bbb     C5     43 -0.11337700  12.010000   ; qtot 1.397320
   44         hc      2    bbb     H9     44 0.09515400   1.008000   ; qtot 1.492474
   45         hc      2    bbb    H10     45 0.09515400   1.008000   ; qtot 1.587628
   46         c3      2    bbb     C6     46 -0.11337700  12.010000   ; qtot 1.474251
   47         hc      2    bbb    H11     47 0.09515400   1.008000   ; qtot 1.569405
   48         hc      2    bbb    H12     48 0.09515400   1.008000   ; qtot 1.664559
   49         c3      2    bbb     C7     49 0.21842400  12.010000   ; qtot 1.882983
   50         h1      2    bbb    H13     50 0.04500300   1.008000   ; qtot 1.927986
   51         h1      2    bbb    H14     51 0.04500300   1.008000   ; qtot 1.972989
   52         c3      2    bbb     C8     52 -0.06455200  12.010000   ; qtot 1.908437
   53         h1      2    bbb    H15     53 0.13554100   1.008000   ; qtot 2.043978
   54         h1      2    bbb    H16     54 0.13554100   1.008000   ; qtot 2.179519
   55         c3      2    bbb     C9     55 -0.06455200  12.010000   ; qtot 2.114967
   56         h1      2    bbb    H17     56 0.13554100   1.008000   ; qtot 2.250508
   57         h1      2    bbb    H18     57 0.13554100   1.008000   ; qtot 2.386049
   58         os      2    bbb     O1     58 -0.62587700  16.000000   ; qtot 1.760172
   59         hn      2    bbb    H19     59 0.23982500   1.008000   ; qtot 1.999997
; residue    3 bbb rtp bbb q 1.0
   60         n4      3    bbb     N1     60 0.03726400  14.010000   ; qtot 2.037261
   61         c3      3    bbb     C1     61 -0.07020100  12.010000   ; qtot 1.967060
   62         hx      3    bbb     H1     62 0.12219000   1.008000   ; qtot 2.089250
   63         hx      3    bbb     H2     63 0.12219000   1.008000   ; qtot 2.211440
   64         c3      3    bbb     C2     64 -0.07020100  12.010000   ; qtot 2.141239
   65         hx      3    bbb     H3     65 0.12219000   1.008000   ; qtot 2.263429
   66         hx      3    bbb     H4     66 0.12219000   1.008000   ; qtot 2.385619
   67         c3      3    bbb     C3     67 -0.39007700  12.010000   ; qtot 1.995542
   68         hx      3    bbb     H5     68 0.14940300   1.008000   ; qtot 2.144945
   69         hx      3    bbb     H6     69 0.14940300   1.008000   ; qtot 2.294348
   70         c3      3    bbb     C4     70 0.18057300  12.010000   ; qtot 2.474921
   71         hc      3    bbb     H7     71 0.01788900   1.008000   ; qtot 2.492810
   72         hc      3    bbb     H8     72 0.01788900   1.008000   ; qtot 2.510699
   73         c3      3    bbb     C5     73 -0.11337700  12.010000   ; qtot 2.397322
   74         hc      3    bbb     H9     74 0.09515400   1.008000   ; qtot 2.492476
   75         hc      3    bbb    H10     75 0.09515400   1.008000   ; qtot 2.587630
   76         c3      3    bbb     C6     76 -0.11337700  12.010000   ; qtot 2.474253
   77         hc      3    bbb    H11     77 0.09515400   1.008000   ; qtot 2.569407
   78         hc      3    bbb    H12     78 0.09515400   1.008000   ; qtot 2.664561
   79         c3      3    bbb     C7     79 0.21842400  12.010000   ; qtot 2.882985
   80         h1      3    bbb    H13     80 0.04500300   1.008000   ; qtot 2.927988
   81         h1      3    bbb    H14     81 0.04500300   1.008000   ; qtot 2.972991
   82         c3      3    bbb     C8     82 -0.06455200  12.010000   ; qtot 2.908439
   83         h1      3    bbb    H15     83 0.13554100   1.008000   ; qtot 3.043980
   84         h1      3    bbb    H16     84 0.13554100   1.008000   ; qtot 3.179521
   85         c3      3    bbb     C9     85 -0.06455200  12.010000   ; qtot 3.114969
   86         h1      3    bbb    H17     86 0.13554100   1.008000   ; qtot 3.250510
   87         h1      3    bbb    H18     87 0.13554100   1.008000   ; qtot 3.386051
   88         os      3    bbb     O1     88 -0.62587700  16.000000   ; qtot 2.760174
   89         hn      3    bbb    H19     89 0.23982500   1.008000   ; qtot 2.999999
; residue    4 bbb rtp bbb q 1.0
   90         n4      4    bbb     N1     90 0.03726400  14.010000   ; qtot 3.037263
   91         c3      4    bbb     C1     91 -0.07020100  12.010000   ; qtot 2.967062
   92         hx      4    bbb     H1     92 0.12219000   1.008000   ; qtot 3.089252
   93         hx      4    bbb     H2     93 0.12219000   1.008000   ; qtot 3.211442
   94         c3      4    bbb     C2     94 -0.07020100  12.010000   ; qtot 3.141241
   95         hx      4    bbb     H3     95 0.12219000   1.008000   ; qtot 3.263431
   96         hx      4    bbb     H4     96 0.12219000   1.008000   ; qtot 3.385621
   97         c3      4    bbb     C3     97 -0.39007700  12.010000   ; qtot 2.995544
   98         hx      4    bbb     H5     98 0.14940300   1.008000   ; qtot 3.144947
   99         hx      4    bbb     H6     99 0.14940300   1.008000   ; qtot 3.294350
  100         c3      4    bbb     C4    100 0.18057300  12.010000   ; qtot 3.474923
  101         hc      4    bbb     H7    101 0.01788900   1.008000   ; qtot 3.492812
  102         hc      4    bbb     H8    102 0.01788900   1.008000   ; qtot 3.510701
  103         c3      4    bbb     C5    103 -0.11337700  12.010000   ; qtot 3.397324
  104         hc      4    bbb     H9    104 0.09515400   1.008000   ; qtot 3.492478
  105         hc      4    bbb    H10    105 0.09515400   1.008000   ; qtot 3.587632
  106         c3      4    bbb     C6    106 -0.11337700  12.010000   ; qtot 3.474255
  107         hc      4    bbb    H11    107 0.09515400   1.008000   ; qtot 3.569409
  108         hc      4    bbb    H12    108 0.09515400   1.008000   ; qtot 3.664563
  109         c3      4    bbb     C7    109 0.21842400  12.010000   ; qtot 3.882987
  110         h1      4    bbb    H13    110 0.04500300   1.008000   ; qtot 3.927990
  111         h1      4    bbb    H14    111 0.04500300   1.008000   ; qtot 3.972993
  112         c3      4    bbb     C8    112 -0.06455200  12.010000   ; qtot 3.908441
  113         h1      4    bbb    H15    113 0.13554100   1.008000   ; qtot 4.043982
  114         h1      4    bbb    H16    114 0.13554100   1.008000   ; qtot 4.179523
  115         c3      4    bbb     C9    115 -0.06455200  12.010000   ; qtot 4.114971
  116         h1      4    bbb    H17    116 0.13554100   1.008000   ; qtot 4.250512
  117         h1      4    bbb    H18    117 0.13554100   1.008000   ; qtot 4.386053
  118         os      4    bbb     O1    118 -0.62587700  16.000000   ; qtot 3.760176
  119         hn      4    bbb    H19    119 0.23982500   1.008000   ; qtot 4.000001
; residue    5 bbb rtp bbb q 1.0
  120         n4      5    bbb     N1    120 0.03726400  14.010000   ; qtot 4.037265
  121         c3      5    bbb     C1    121 -0.07020100  12.010000   ; qtot 3.967064
  122         hx      5    bbb     H1    122 0.12219000   1.008000   ; qtot 4.089254
  123         hx      5    bbb     H2    123 0.12219000   1.008000   ; qtot 4.211444
  124         c3      5    bbb     C2    124 -0.07020100  12.010000   ; qtot 4.141243
  125         hx      5    bbb     H3    125 0.12219000   1.008000   ; qtot 4.263433
  126         hx      5    bbb     H4    126 0.12219000   1.008000   ; qtot 4.385623
  127         c3      5    bbb     C3    127 -0.39007700  12.010000   ; qtot 3.995546
  128         hx      5    bbb     H5    128 0.14940300   1.008000   ; qtot 4.144949
  129         hx      5    bbb     H6    129 0.14940300   1.008000   ; qtot 4.294352
  130         c3      5    bbb     C4    130 0.18057300  12.010000   ; qtot 4.474925
  131         hc      5    bbb     H7    131 0.01788900   1.008000   ; qtot 4.492814
  132         hc      5    bbb     H8    132 0.01788900   1.008000   ; qtot 4.510703
  133         c3      5    bbb     C5    133 -0.11337700  12.010000   ; qtot 4.397326
  134         hc      5    bbb     H9    134 0.09515400   1.008000   ; qtot 4.492480
  135         hc      5    bbb    H10    135 0.09515400   1.008000   ; qtot 4.587634
  136         c3      5    bbb     C6    136 -0.11337700  12.010000   ; qtot 4.474257
  137         hc      5    bbb    H11    137 0.09515400   1.008000   ; qtot 4.569411
  138         hc      5    bbb    H12    138 0.09515400   1.008000   ; qtot 4.664565
  139         c3      5    bbb     C7    139 0.21842400  12.010000   ; qtot 4.882989
  140         h1      5    bbb    H13    140 0.04500300   1.008000   ; qtot 4.927992
  141         h1      5    bbb    H14    141 0.04500300   1.008000   ; qtot 4.972995
  142         c3      5    bbb     C8    142 -0.06455200  12.010000   ; qtot 4.908443
  143         h1      5    bbb    H15    143 0.13554100   1.008000   ; qtot 5.043984
  144         h1      5    bbb    H16    144 0.13554100   1.008000   ; qtot 5.179525
  145         c3      5    bbb     C9    145 -0.06455200  12.010000   ; qtot 5.114973
  146         h1      5    bbb    H17    146 0.13554100   1.008000   ; qtot 5.250514
  147         h1      5    bbb    H18    147 0.13554100   1.008000   ; qtot 5.386055
  148         os      5    bbb     O1    148 -0.62587700  16.000000   ; qtot 4.760178
  149         hn      5    bbb    H19    149 0.23982500   1.008000   ; qtot 5.000003
; residue    6 bbb rtp bbb q 1.0
  150         n4      6    bbb     N1    150 0.03726400  14.010000   ; qtot 5.037267
  151         c3      6    bbb     C1    151 -0.07020100  12.010000   ; qtot 4.967066
  152         hx      6    bbb     H1    152 0.12219000   1.008000   ; qtot 5.089256
  153         hx      6    bbb     H2    153 0.12219000   1.008000   ; qtot 5.211446
  154         c3      6    bbb     C2    154 -0.07020100  12.010000   ; qtot 5.141245
  155         hx      6    bbb     H3    155 0.12219000   1.008000   ; qtot 5.263435
  156         hx      6    bbb     H4    156 0.12219000   1.008000   ; qtot 5.385625
  157         c3      6    bbb     C3    157 -0.39007700  12.010000   ; qtot 4.995548
  158         hx      6    bbb     H5    158 0.14940300   1.008000   ; qtot 5.144951
  159         hx      6    bbb     H6    159 0.14940300   1.008000   ; qtot 5.294354
  160         c3      6    bbb     C4    160 0.18057300  12.010000   ; qtot 5.474927
  161         hc      6    bbb     H7    161 0.01788900   1.008000   ; qtot 5.492816
  162         hc      6    bbb     H8    162 0.01788900   1.008000   ; qtot 5.510705
  163         c3      6    bbb     C5    163 -0.11337700  12.010000   ; qtot 5.397328
  164         hc      6    bbb     H9    164 0.09515400   1.008000   ; qtot 5.492482
  165         hc      6    bbb    H10    165 0.09515400   1.008000   ; qtot 5.587636
  166         c3      6    bbb     C6    166 -0.11337700  12.010000   ; qtot 5.474259
  167         hc      6    bbb    H11    167 0.09515400   1.008000   ; qtot 5.569413
  168         hc      6    bbb    H12    168 0.09515400   1.008000   ; qtot 5.664567
  169         c3      6    bbb     C7    169 0.21842400  12.010000   ; qtot 5.882991
  170         h1      6    bbb    H13    170 0.04500300   1.008000   ; qtot 5.927994
  171         h1      6    bbb    H14    171 0.04500300   1.008000   ; qtot 5.972997
  172         c3      6    bbb     C8    172 -0.06455200  12.010000   ; qtot 5.908445
  173         h1      6    bbb    H15    173 0.13554100   1.008000   ; qtot 6.043986
  174         h1      6    bbb    H16    174 0.13554100   1.008000   ; qtot 6.179527
  175         c3      6    bbb     C9    175 -0.06455200  12.010000   ; qtot 6.114975
  176         h1      6    bbb    H17    176 0.13554100   1.008000   ; qtot 6.250516
  177         h1      6    bbb    H18    177 0.13554100   1.008000   ; qtot 6.386057
  178         os      6    bbb     O1    178 -0.62587700  16.000000   ; qtot 5.760180
  179         hn      6    bbb    H19    179 0.23982500   1.008000   ; qtot 6.000005
; residue    7 bbb rtp bbb q 1.0
  180         n4      7    bbb     N1    180 0.03726400  14.010000   ; qtot 6.037269
  181         c3      7    bbb     C1    181 -0.07020100  12.010000   ; qtot 5.967068
  182         hx      7    bbb     H1    182 0.12219000   1.008000   ; qtot 6.089258
  183         hx      7    bbb     H2    183 0.12219000   1.008000   ; qtot 6.211448
  184         c3      7    bbb     C2    184 -0.07020100  12.010000   ; qtot 6.141247
  185         hx      7    bbb     H3    185 0.12219000   1.008000   ; qtot 6.263437
  186         hx      7    bbb     H4    186 0.12219000   1.008000   ; qtot 6.385627
  187         c3      7    bbb     C3    187 -0.39007700  12.010000   ; qtot 5.995550
  188         hx      7    bbb     H5    188 0.14940300   1.008000   ; qtot 6.144953
  189         hx      7    bbb     H6    189 0.14940300   1.008000   ; qtot 6.294356
  190         c3      7    bbb     C4    190 0.18057300  12.010000   ; qtot 6.474929
  191         hc      7    bbb     H7    191 0.01788900   1.008000   ; qtot 6.492818
  192         hc      7    bbb     H8    192 0.01788900   1.008000   ; qtot 6.510707
  193         c3      7    bbb     C5    193 -0.11337700  12.010000   ; qtot 6.397330
  194         hc      7    bbb     H9    194 0.09515400   1.008000   ; qtot 6.492484
  195         hc      7    bbb    H10    195 0.09515400   1.008000   ; qtot 6.587638
  196         c3      7    bbb     C6    196 -0.11337700  12.010000   ; qtot 6.474261
  197         hc      7    bbb    H11    197 0.09515400   1.008000   ; qtot 6.569415
  198         hc      7    bbb    H12    198 0.09515400   1.008000   ; qtot 6.664569
  199         c3      7    bbb     C7    199 0.21842400  12.010000   ; qtot 6.882993
  200         h1      7    bbb    H13    200 0.04500300   1.008000   ; qtot 6.927996
  201         h1      7    bbb    H14    201 0.04500300   1.008000   ; qtot 6.972999
  202         c3      7    bbb     C8    202 -0.06455200  12.010000   ; qtot 6.908447
  203         h1      7    bbb    H15    203 0.13554100   1.008000   ; qtot 7.043988
  204         h1      7    bbb    H16    204 0.13554100   1.008000   ; qtot 7.179529
  205         c3      7    bbb     C9    205 -0.06455200  12.010000   ; qtot 7.114977
  206         h1      7    bbb    H17    206 0.13554100   1.008000   ; qtot 7.250518
  207         h1      7    bbb    H18    207 0.13554100   1.008000   ; qtot 7.386059
  208         os      7    bbb     O1    208 -0.62587700  16.000000   ; qtot 6.760182
  209         hn      7    bbb    H19    209 0.23982500   1.008000   ; qtot 7.000007
; residue    8 bbb rtp bbb q 1.0
  210         n4      8    bbb     N1    210 0.03726400  14.010000   ; qtot 7.037271
  211         c3      8    bbb     C1    211 -0.07020100  12.010000   ; qtot 6.967070
  212         hx      8    bbb     H1    212 0.12219000   1.008000   ; qtot 7.089260
  213         hx      8    bbb     H2    213 0.12219000   1.008000   ; qtot 7.211450
  214         c3      8    bbb     C2    214 -0.07020100  12.010000   ; qtot 7.141249
  215         hx      8    bbb     H3    215 0.12219000   1.008000   ; qtot 7.263439
  216         hx      8    bbb     H4    216 0.12219000   1.008000   ; qtot 7.385629
  217         c3      8    bbb     C3    217 -0.39007700  12.010000   ; qtot 6.995552
  218         hx      8    bbb     H5    218 0.14940300   1.008000   ; qtot 7.144955
  219         hx      8    bbb     H6    219 0.14940300   1.008000   ; qtot 7.294358
  220         c3      8    bbb     C4    220 0.18057300  12.010000   ; qtot 7.474931
  221         hc      8    bbb     H7    221 0.01788900   1.008000   ; qtot 7.492820
  222         hc      8    bbb     H8    222 0.01788900   1.008000   ; qtot 7.510709
  223         c3      8    bbb     C5    223 -0.11337700  12.010000   ; qtot 7.397332
  224         hc      8    bbb     H9    224 0.09515400   1.008000   ; qtot 7.492486
  225         hc      8    bbb    H10    225 0.09515400   1.008000   ; qtot 7.587640
  226         c3      8    bbb     C6    226 -0.11337700  12.010000   ; qtot 7.474263
  227         hc      8    bbb    H11    227 0.09515400   1.008000   ; qtot 7.569417
  228         hc      8    bbb    H12    228 0.09515400   1.008000   ; qtot 7.664571
  229         c3      8    bbb     C7    229 0.21842400  12.010000   ; qtot 7.882995
  230         h1      8    bbb    H13    230 0.04500300   1.008000   ; qtot 7.927998
  231         h1      8    bbb    H14    231 0.04500300   1.008000   ; qtot 7.973001
  232         c3      8    bbb     C8    232 -0.06455200  12.010000   ; qtot 7.908449
  233         h1      8    bbb    H15    233 0.13554100   1.008000   ; qtot 8.043990
  234         h1      8    bbb    H16    234 0.13554100   1.008000   ; qtot 8.179531
  235         c3      8    bbb     C9    235 -0.06455200  12.010000   ; qtot 8.114979
  236         h1      8    bbb    H17    236 0.13554100   1.008000   ; qtot 8.250520
  237         h1      8    bbb    H18    237 0.13554100   1.008000   ; qtot 8.386061
  238         os      8    bbb     O1    238 -0.62587700  16.000000   ; qtot 7.760184
  239         hn      8    bbb    H19    239 0.23982500   1.008000   ; qtot 8.000009
; residue    9 bbb rtp bbb q 1.0
  240         n4      9    bbb     N1    240 0.03726400  14.010000   ; qtot 8.037273
  241         c3      9    bbb     C1    241 -0.07020100  12.010000   ; qtot 7.967072
  242         hx      9    bbb     H1    242 0.12219000   1.008000   ; qtot 8.089262
  243         hx      9    bbb     H2    243 0.12219000   1.008000   ; qtot 8.211452
  244         c3      9    bbb     C2    244 -0.07020100  12.010000   ; qtot 8.141251
  245         hx      9    bbb     H3    245 0.12219000   1.008000   ; qtot 8.263441
  246         hx      9    bbb     H4    246 0.12219000   1.008000   ; qtot 8.385631
  247         c3      9    bbb     C3    247 -0.39007700  12.010000   ; qtot 7.995554
  248         hx      9    bbb     H5    248 0.14940300   1.008000   ; qtot 8.144957
  249         hx      9    bbb     H6    249 0.14940300   1.008000   ; qtot 8.294360
  250         c3      9    bbb     C4    250 0.18057300  12.010000   ; qtot 8.474933
  251         hc      9    bbb     H7    251 0.01788900   1.008000   ; qtot 8.492822
  252         hc      9    bbb     H8    252 0.01788900   1.008000   ; qtot 8.510711
  253         c3      9    bbb     C5    253 -0.11337700  12.010000   ; qtot 8.397334
  254         hc      9    bbb     H9    254 0.09515400   1.008000   ; qtot 8.492488
  255         hc      9    bbb    H10    255 0.09515400   1.008000   ; qtot 8.587642
  256         c3      9    bbb     C6    256 -0.11337700  12.010000   ; qtot 8.474265
  257         hc      9    bbb    H11    257 0.09515400   1.008000   ; qtot 8.569419
  258         hc      9    bbb    H12    258 0.09515400   1.008000   ; qtot 8.664573
  259         c3      9    bbb     C7    259 0.21842400  12.010000   ; qtot 8.882997
  260         h1      9    bbb    H13    260 0.04500300   1.008000   ; qtot 8.928000
  261         h1      9    bbb    H14    261 0.04500300   1.008000   ; qtot 8.973003
  262         c3      9    bbb     C8    262 -0.06455200  12.010000   ; qtot 8.908451
  263         h1      9    bbb    H15    263 0.13554100   1.008000   ; qtot 9.043992
  264         h1      9    bbb    H16    264 0.13554100   1.008000   ; qtot 9.179533
  265         c3      9    bbb     C9    265 -0.06455200  12.010000   ; qtot 9.114981
  266         h1      9    bbb    H17    266 0.13554100   1.008000   ; qtot 9.250522
  267         h1      9    bbb    H18    267 0.13554100   1.008000   ; qtot 9.386063
  268         os      9    bbb     O1    268 -0.62587700  16.000000   ; qtot 8.760186
  269         hn      9    bbb    H19    269 0.23982500   1.008000   ; qtot 9.000011
; residue   10 bbb rtp bbb q 1.0
  270         n4     10    bbb     N1    270 0.03726400  14.010000   ; qtot 9.037275
  271         c3     10    bbb     C1    271 -0.07020100  12.010000   ; qtot 8.967074
  272         hx     10    bbb     H1    272 0.12219000   1.008000   ; qtot 9.089264
  273         hx     10    bbb     H2    273 0.12219000   1.008000   ; qtot 9.211454
  274         c3     10    bbb     C2    274 -0.07020100  12.010000   ; qtot 9.141253
  275         hx     10    bbb     H3    275 0.12219000   1.008000   ; qtot 9.263443
  276         hx     10    bbb     H4    276 0.12219000   1.008000   ; qtot 9.385633
  277         c3     10    bbb     C3    277 -0.39007700  12.010000   ; qtot 8.995556
  278         hx     10    bbb     H5    278 0.14940300   1.008000   ; qtot 9.144959
  279         hx     10    bbb     H6    279 0.14940300   1.008000   ; qtot 9.294362
  280         c3     10    bbb     C4    280 0.18057300  12.010000   ; qtot 9.474935
  281         hc     10    bbb     H7    281 0.01788900   1.008000   ; qtot 9.492824
  282         hc     10    bbb     H8    282 0.01788900   1.008000   ; qtot 9.510713
  283         c3     10    bbb     C5    283 -0.11337700  12.010000   ; qtot 9.397336
  284         hc     10    bbb     H9    284 0.09515400   1.008000   ; qtot 9.492490
  285         hc     10    bbb    H10    285 0.09515400   1.008000   ; qtot 9.587644
  286         c3     10    bbb     C6    286 -0.11337700  12.010000   ; qtot 9.474267
  287         hc     10    bbb    H11    287 0.09515400   1.008000   ; qtot 9.569421
  288         hc     10    bbb    H12    288 0.09515400   1.008000   ; qtot 9.664575
  289         c3     10    bbb     C7    289 0.21842400  12.010000   ; qtot 9.882999
  290         h1     10    bbb    H13    290 0.04500300   1.008000   ; qtot 9.928002
  291         h1     10    bbb    H14    291 0.04500300   1.008000   ; qtot 9.973005
  292         c3     10    bbb     C8    292 -0.06455200  12.010000   ; qtot 9.908453
  293         h1     10    bbb    H15    293 0.13554100   1.008000   ; qtot 10.043994
  294         h1     10    bbb    H16    294 0.13554100   1.008000   ; qtot 10.179535
  295         c3     10    bbb     C9    295 -0.06455200  12.010000   ; qtot 10.114983
  296         h1     10    bbb    H17    296 0.13554100   1.008000   ; qtot 10.250524
  297         h1     10    bbb    H18    297 0.13554100   1.008000   ; qtot 10.386065
  298         os     10    bbb     O1    298 -0.62587700  16.000000   ; qtot 9.760188
  299         hn     10    bbb    H19    299 0.23982500   1.008000   ; qtot 10.000013
; residue   11 bbb rtp bbb q 1.0
  300         n4     11    bbb     N1    300 0.03726400  14.010000   ; qtot 10.037277
  301         c3     11    bbb     C1    301 -0.07020100  12.010000   ; qtot 9.967076
  302         hx     11    bbb     H1    302 0.12219000   1.008000   ; qtot 10.089266
  303         hx     11    bbb     H2    303 0.12219000   1.008000   ; qtot 10.211456
  304         c3     11    bbb     C2    304 -0.07020100  12.010000   ; qtot 10.141255
  305         hx     11    bbb     H3    305 0.12219000   1.008000   ; qtot 10.263445
  306         hx     11    bbb     H4    306 0.12219000   1.008000   ; qtot 10.385635
  307         c3     11    bbb     C3    307 -0.39007700  12.010000   ; qtot 9.995558
  308         hx     11    bbb     H5    308 0.14940300   1.008000   ; qtot 10.144961
  309         hx     11    bbb     H6    309 0.14940300   1.008000   ; qtot 10.294364
  310         c3     11    bbb     C4    310 0.18057300  12.010000   ; qtot 10.474937
  311         hc     11    bbb     H7    311 0.01788900   1.008000   ; qtot 10.492826
  312         hc     11    bbb     H8    312 0.01788900   1.008000   ; qtot 10.510715
  313         c3     11    bbb     C5    313 -0.11337700  12.010000   ; qtot 10.397338
  314         hc     11    bbb     H9    314 0.09515400   1.008000   ; qtot 10.492492
  315         hc     11    bbb    H10    315 0.09515400   1.008000   ; qtot 10.587646
  316         c3     11    bbb     C6    316 -0.11337700  12.010000   ; qtot 10.474269
  317         hc     11    bbb    H11    317 0.09515400   1.008000   ; qtot 10.569423
  318         hc     11    bbb    H12    318 0.09515400   1.008000   ; qtot 10.664577
  319         c3     11    bbb     C7    319 0.21842400  12.010000   ; qtot 10.883001
  320         h1     11    bbb    H13    320 0.04500300   1.008000   ; qtot 10.928004
  321         h1     11    bbb    H14    321 0.04500300   1.008000   ; qtot 10.973007
  322         c3     11    bbb     C8    322 -0.06455200  12.010000   ; qtot 10.908455
  323         h1     11    bbb    H15    323 0.13554100   1.008000   ; qtot 11.043996
  324         h1     11    bbb    H16    324 0.13554100   1.008000   ; qtot 11.179537
  325         c3     11    bbb     C9    325 -0.06455200  12.010000   ; qtot 11.114985
  326         h1     11    bbb    H17    326 0.13554100   1.008000   ; qtot 11.250526
  327         h1     11    bbb    H18    327 0.13554100   1.008000   ; qtot 11.386067
  328         os     11    bbb     O1    328 -0.62587700  16.000000   ; qtot 10.760190
  329         hn     11    bbb    H19    329 0.23982500   1.008000   ; qtot 11.000015
; residue   12 bbb rtp bbb q 1.0
  330         n4     12    bbb     N1    330 0.03726400  14.010000   ; qtot 11.037279
  331         c3     12    bbb     C1    331 -0.07020100  12.010000   ; qtot 10.967078
  332         hx     12    bbb     H1    332 0.12219000   1.008000   ; qtot 11.089268
  333         hx     12    bbb     H2    333 0.12219000   1.008000   ; qtot 11.211458
  334         c3     12    bbb     C2    334 -0.07020100  12.010000   ; qtot 11.141257
  335         hx     12    bbb     H3    335 0.12219000   1.008000   ; qtot 11.263447
  336         hx     12    bbb     H4    336 0.12219000   1.008000   ; qtot 11.385637
  337         c3     12    bbb     C3    337 -0.39007700  12.010000   ; qtot 10.995560
  338         hx     12    bbb     H5    338 0.14940300   1.008000   ; qtot 11.144963
  339         hx     12    bbb     H6    339 0.14940300   1.008000   ; qtot 11.294366
  340         c3     12    bbb     C4    340 0.18057300  12.010000   ; qtot 11.474939
  341         hc     12    bbb     H7    341 0.01788900   1.008000   ; qtot 11.492828
  342         hc     12    bbb     H8    342 0.01788900   1.008000   ; qtot 11.510717
  343         c3     12    bbb     C5    343 -0.11337700  12.010000   ; qtot 11.397340
  344         hc     12    bbb     H9    344 0.09515400   1.008000   ; qtot 11.492494
  345         hc     12    bbb    H10    345 0.09515400   1.008000   ; qtot 11.587648
  346         c3     12    bbb     C6    346 -0.11337700  12.010000   ; qtot 11.474271
  347         hc     12    bbb    H11    347 0.09515400   1.008000   ; qtot 11.569425
  348         hc     12    bbb    H12    348 0.09515400   1.008000   ; qtot 11.664579
  349         c3     12    bbb     C7    349 0.21842400  12.010000   ; qtot 11.883003
  350         h1     12    bbb    H13    350 0.04500300   1.008000   ; qtot 11.928006
  351         h1     12    bbb    H14    351 0.04500300   1.008000   ; qtot 11.973009
  352         c3     12    bbb     C8    352 -0.06455200  12.010000   ; qtot 11.908457
  353         h1     12    bbb    H15    353 0.13554100   1.008000   ; qtot 12.043998
  354         h1     12    bbb    H16    354 0.13554100   1.008000   ; qtot 12.179539
  355         c3     12    bbb     C9    355 -0.06455200  12.010000   ; qtot 12.114987
  356         h1     12    bbb    H17    356 0.13554100   1.008000   ; qtot 12.250528
  357         h1     12    bbb    H18    357 0.13554100   1.008000   ; qtot 12.386069
  358         os     12    bbb     O1    358 -0.62587700  16.000000   ; qtot 11.760192
  359         hn     12    bbb    H19    359 0.23982500   1.008000   ; qtot 12.000017
; residue   13 bbb rtp bbb q 1.0
  360         n4     13    bbb     N1    360 0.03726400  14.010000   ; qtot 12.037281
  361         c3     13    bbb     C1    361 -0.07020100  12.010000   ; qtot 11.967080
  362         hx     13    bbb     H1    362 0.12219000   1.008000   ; qtot 12.089270
  363         hx     13    bbb     H2    363 0.12219000   1.008000   ; qtot 12.211460
  364         c3     13    bbb     C2    364 -0.07020100  12.010000   ; qtot 12.141259
  365         hx     13    bbb     H3    365 0.12219000   1.008000   ; qtot 12.263449
  366         hx     13    bbb     H4    366 0.12219000   1.008000   ; qtot 12.385639
  367         c3     13    bbb     C3    367 -0.39007700  12.010000   ; qtot 11.995562
  368         hx     13    bbb     H5    368 0.14940300   1.008000   ; qtot 12.144965
  369         hx     13    bbb     H6    369 0.14940300   1.008000   ; qtot 12.294368
  370         c3     13    bbb     C4    370 0.18057300  12.010000   ; qtot 12.474941
  371         hc     13    bbb     H7    371 0.01788900   1.008000   ; qtot 12.492830
  372         hc     13    bbb     H8    372 0.01788900   1.008000   ; qtot 12.510719
  373         c3     13    bbb     C5    373 -0.11337700  12.010000   ; qtot 12.397342
  374         hc     13    bbb     H9    374 0.09515400   1.008000   ; qtot 12.492496
  375         hc     13    bbb    H10    375 0.09515400   1.008000   ; qtot 12.587650
  376         c3     13    bbb     C6    376 -0.11337700  12.010000   ; qtot 12.474273
  377         hc     13    bbb    H11    377 0.09515400   1.008000   ; qtot 12.569427
  378         hc     13    bbb    H12    378 0.09515400   1.008000   ; qtot 12.664581
  379         c3     13    bbb     C7    379 0.21842400  12.010000   ; qtot 12.883005
  380         h1     13    bbb    H13    380 0.04500300   1.008000   ; qtot 12.928008
  381         h1     13    bbb    H14    381 0.04500300   1.008000   ; qtot 12.973011
  382         c3     13    bbb     C8    382 -0.06455200  12.010000   ; qtot 12.908459
  383         h1     13    bbb    H15    383 0.13554100   1.008000   ; qtot 13.044000
  384         h1     13    bbb    H16    384 0.13554100   1.008000   ; qtot 13.179541
  385         c3     13    bbb     C9    385 -0.06455200  12.010000   ; qtot 13.114989
  386         h1     13    bbb    H17    386 0.13554100   1.008000   ; qtot 13.250530
  387         h1     13    bbb    H18    387 0.13554100   1.008000   ; qtot 13.386071
  388         os     13    bbb     O1    388 -0.62587700  16.000000   ; qtot 12.760194
  389         hn     13    bbb    H19    389 0.23982500   1.008000   ; qtot 13.000019
; residue   14 bbb rtp bbb q 1.0
  390         n4     14    bbb     N1    390 0.03726400  14.010000   ; qtot 13.037283
  391         c3     14    bbb     C1    391 -0.07020100  12.010000   ; qtot 12.967082
  392         hx     14    bbb     H1    392 0.12219000   1.008000   ; qtot 13.089272
  393         hx     14    bbb     H2    393 0.12219000   1.008000   ; qtot 13.211462
  394         c3     14    bbb     C2    394 -0.07020100  12.010000   ; qtot 13.141261
  395         hx     14    bbb     H3    395 0.12219000   1.008000   ; qtot 13.263451
  396         hx     14    bbb     H4    396 0.12219000   1.008000   ; qtot 13.385641
  397         c3     14    bbb     C3    397 -0.39007700  12.010000   ; qtot 12.995564
  398         hx     14    bbb     H5    398 0.14940300   1.008000   ; qtot 13.144967
  399         hx     14    bbb     H6    399 0.14940300   1.008000   ; qtot 13.294370
  400         c3     14    bbb     C4    400 0.18057300  12.010000   ; qtot 13.474943
  401         hc     14    bbb     H7    401 0.01788900   1.008000   ; qtot 13.492832
  402         hc     14    bbb     H8    402 0.01788900   1.008000   ; qtot 13.510721
  403         c3     14    bbb     C5    403 -0.11337700  12.010000   ; qtot 13.397344
  404         hc     14    bbb     H9    404 0.09515400   1.008000   ; qtot 13.492498
  405         hc     14    bbb    H10    405 0.09515400   1.008000   ; qtot 13.587652
  406         c3     14    bbb     C6    406 -0.11337700  12.010000   ; qtot 13.474275
  407         hc     14    bbb    H11    407 0.09515400   1.008000   ; qtot 13.569429
  408         hc     14    bbb    H12    408 0.09515400   1.008000   ; qtot 13.664583
  409         c3     14    bbb     C7    409 0.21842400  12.010000   ; qtot 13.883007
  410         h1     14    bbb    H13    410 0.04500300   1.008000   ; qtot 13.928010
  411         h1     14    bbb    H14    411 0.04500300   1.008000   ; qtot 13.973013
  412         c3     14    bbb     C8    412 -0.06455200  12.010000   ; qtot 13.908461
  413         h1     14    bbb    H15    413 0.13554100   1.008000   ; qtot 14.044002
  414         h1     14    bbb    H16    414 0.13554100   1.008000   ; qtot 14.179543
  415         c3     14    bbb     C9    415 -0.06455200  12.010000   ; qtot 14.114991
  416         h1     14    bbb    H17    416 0.13554100   1.008000   ; qtot 14.250532
  417         h1     14    bbb    H18    417 0.13554100   1.008000   ; qtot 14.386073
  418         os     14    bbb     O1    418 -0.62587700  16.000000   ; qtot 13.760196
  419         hn     14    bbb    H19    419 0.23982500   1.008000   ; qtot 14.000021
; residue   15 bbb rtp bbb q 1.0
  420         n4     15    bbb     N1    420 0.03726400  14.010000   ; qtot 14.037285
  421         c3     15    bbb     C1    421 -0.07020100  12.010000   ; qtot 13.967084
  422         hx     15    bbb     H1    422 0.12219000   1.008000   ; qtot 14.089274
  423         hx     15    bbb     H2    423 0.12219000   1.008000   ; qtot 14.211464
  424         c3     15    bbb     C2    424 -0.07020100  12.010000   ; qtot 14.141263
  425         hx     15    bbb     H3    425 0.12219000   1.008000   ; qtot 14.263453
  426         hx     15    bbb     H4    426 0.12219000   1.008000   ; qtot 14.385643
  427         c3     15    bbb     C3    427 -0.39007700  12.010000   ; qtot 13.995566
  428         hx     15    bbb     H5    428 0.14940300   1.008000   ; qtot 14.144969
  429         hx     15    bbb     H6    429 0.14940300   1.008000   ; qtot 14.294372
  430         c3     15    bbb     C4    430 0.18057300  12.010000   ; qtot 14.474945
  431         hc     15    bbb     H7    431 0.01788900   1.008000   ; qtot 14.492834
  432         hc     15    bbb     H8    432 0.01788900   1.008000   ; qtot 14.510723
  433         c3     15    bbb     C5    433 -0.11337700  12.010000   ; qtot 14.397346
  434         hc     15    bbb     H9    434 0.09515400   1.008000   ; qtot 14.492500
  435         hc     15    bbb    H10    435 0.09515400   1.008000   ; qtot 14.587654
  436         c3     15    bbb     C6    436 -0.11337700  12.010000   ; qtot 14.474277
  437         hc     15    bbb    H11    437 0.09515400   1.008000   ; qtot 14.569431
  438         hc     15    bbb    H12    438 0.09515400   1.008000   ; qtot 14.664585
  439         c3     15    bbb     C7    439 0.21842400  12.010000   ; qtot 14.883009
  440         h1     15    bbb    H13    440 0.04500300   1.008000   ; qtot 14.928012
  441         h1     15    bbb    H14    441 0.04500300   1.008000   ; qtot 14.973015
  442         c3     15    bbb     C8    442 -0.06455200  12.010000   ; qtot 14.908463
  443         h1     15    bbb    H15    443 0.13554100   1.008000   ; qtot 15.044004
  444         h1     15    bbb    H16    444 0.13554100   1.008000   ; qtot 15.179545
  445         c3     15    bbb     C9    445 -0.06455200  12.010000   ; qtot 15.114993
  446         h1     15    bbb    H17    446 0.13554100   1.008000   ; qtot 15.250534
  447         h1     15    bbb    H18    447 0.13554100   1.008000   ; qtot 15.386075
  448         os     15    bbb     O1    448 -0.62587700  16.000000   ; qtot 14.760198
  449         hn     15    bbb    H19    449 0.23982500   1.008000   ; qtot 15.000023
; residue   16 bbb rtp bbb q 1.0
  450         n4     16    bbb     N1    450 0.03726400  14.010000   ; qtot 15.037287
  451         c3     16    bbb     C1    451 -0.07020100  12.010000   ; qtot 14.967086
  452         hx     16    bbb     H1    452 0.12219000   1.008000   ; qtot 15.089276
  453         hx     16    bbb     H2    453 0.12219000   1.008000   ; qtot 15.211466
  454         c3     16    bbb     C2    454 -0.07020100  12.010000   ; qtot 15.141265
  455         hx     16    bbb     H3    455 0.12219000   1.008000   ; qtot 15.263455
  456         hx     16    bbb     H4    456 0.12219000   1.008000   ; qtot 15.385645
  457         c3     16    bbb     C3    457 -0.39007700  12.010000   ; qtot 14.995568
  458         hx     16    bbb     H5    458 0.14940300   1.008000   ; qtot 15.144971
  459         hx     16    bbb     H6    459 0.14940300   1.008000   ; qtot 15.294374
  460         c3     16    bbb     C4    460 0.18057300  12.010000   ; qtot 15.474947
  461         hc     16    bbb     H7    461 0.01788900   1.008000   ; qtot 15.492836
  462         hc     16    bbb     H8    462 0.01788900   1.008000   ; qtot 15.510725
  463         c3     16    bbb     C5    463 -0.11337700  12.010000   ; qtot 15.397348
  464         hc     16    bbb     H9    464 0.09515400   1.008000   ; qtot 15.492502
  465         hc     16    bbb    H10    465 0.09515400   1.008000   ; qtot 15.587656
  466         c3     16    bbb     C6    466 -0.11337700  12.010000   ; qtot 15.474279
  467         hc     16    bbb    H11    467 0.09515400   1.008000   ; qtot 15.569433
  468         hc     16    bbb    H12    468 0.09515400   1.008000   ; qtot 15.664587
  469         c3     16    bbb     C7    469 0.21842400  12.010000   ; qtot 15.883011
  470         h1     16    bbb    H13    470 0.04500300   1.008000   ; qtot 15.928014
  471         h1     16    bbb    H14    471 0.04500300   1.008000   ; qtot 15.973017
  472         c3     16    bbb     C8    472 -0.06455200  12.010000   ; qtot 15.908465
  473         h1     16    bbb    H15    473 0.13554100   1.008000   ; qtot 16.044006
  474         h1     16    bbb    H16    474 0.13554100   1.008000   ; qtot 16.179547
  475         c3     16    bbb     C9    475 -0.06455200  12.010000   ; qtot 16.114995
  476         h1     16    bbb    H17    476 0.13554100   1.008000   ; qtot 16.250536
  477         h1     16    bbb    H18    477 0.13554100   1.008000   ; qtot 16.386077
  478         os     16    bbb     O1    478 -0.62587700  16.000000   ; qtot 15.760200
  479         hn     16    bbb    H19    479 0.23982500   1.008000   ; qtot 16.000025
; residue   17 bbb rtp bbb q 1.0
  480         n4     17    bbb     N1    480 0.03726400  14.010000   ; qtot 16.037289
  481         c3     17    bbb     C1    481 -0.07020100  12.010000   ; qtot 15.967088
  482         hx     17    bbb     H1    482 0.12219000   1.008000   ; qtot 16.089278
  483         hx     17    bbb     H2    483 0.12219000   1.008000   ; qtot 16.211468
  484         c3     17    bbb     C2    484 -0.07020100  12.010000   ; qtot 16.141267
  485         hx     17    bbb     H3    485 0.12219000   1.008000   ; qtot 16.263457
  486         hx     17    bbb     H4    486 0.12219000   1.008000   ; qtot 16.385647
  487         c3     17    bbb     C3    487 -0.39007700  12.010000   ; qtot 15.995570
  488         hx     17    bbb     H5    488 0.14940300   1.008000   ; qtot 16.144973
  489         hx     17    bbb     H6    489 0.14940300   1.008000   ; qtot 16.294376
  490         c3     17    bbb     C4    490 0.18057300  12.010000   ; qtot 16.474949
  491         hc     17    bbb     H7    491 0.01788900   1.008000   ; qtot 16.492838
  492         hc     17    bbb     H8    492 0.01788900   1.008000   ; qtot 16.510727
  493         c3     17    bbb     C5    493 -0.11337700  12.010000   ; qtot 16.397350
  494         hc     17    bbb     H9    494 0.09515400   1.008000   ; qtot 16.492504
  495         hc     17    bbb    H10    495 0.09515400   1.008000   ; qtot 16.587658
  496         c3     17    bbb     C6    496 -0.11337700  12.010000   ; qtot 16.474281
  497         hc     17    bbb    H11    497 0.09515400   1.008000   ; qtot 16.569435
  498         hc     17    bbb    H12    498 0.09515400   1.008000   ; qtot 16.664589
  499         c3     17    bbb     C7    499 0.21842400  12.010000   ; qtot 16.883013
  500         h1     17    bbb    H13    500 0.04500300   1.008000   ; qtot 16.928016
  501         h1     17    bbb    H14    501 0.04500300   1.008000   ; qtot 16.973019
  502         c3     17    bbb     C8    502 -0.06455200  12.010000   ; qtot 16.908467
  503         h1     17    bbb    H15    503 0.13554100   1.008000   ; qtot 17.044008
  504         h1     17    bbb    H16    504 0.13554100   1.008000   ; qtot 17.179549
  505         c3     17    bbb     C9    505 -0.06455200  12.010000   ; qtot 17.114997
  506         h1     17    bbb    H17    506 0.13554100   1.008000   ; qtot 17.250538
  507         h1     17    bbb    H18    507 0.13554100   1.008000   ; qtot 17.386079
  508         os     17    bbb     O1    508 -0.62587700  16.000000   ; qtot 16.760202
  509         hn     17    bbb    H19    509 0.23982500   1.008000   ; qtot 17.000027
; residue   18 bbb rtp bbb q 1.0
  510         n4     18    bbb     N1    510 0.03726400  14.010000   ; qtot 17.037291
  511         c3     18    bbb     C1    511 -0.07020100  12.010000   ; qtot 16.967090
  512         hx     18    bbb     H1    512 0.12219000   1.008000   ; qtot 17.089280
  513         hx     18    bbb     H2    513 0.12219000   1.008000   ; qtot 17.211470
  514         c3     18    bbb     C2    514 -0.07020100  12.010000   ; qtot 17.141269
  515         hx     18    bbb     H3    515 0.12219000   1.008000   ; qtot 17.263459
  516         hx     18    bbb     H4    516 0.12219000   1.008000   ; qtot 17.385649
  517         c3     18    bbb     C3    517 -0.39007700  12.010000   ; qtot 16.995572
  518         hx     18    bbb     H5    518 0.14940300   1.008000   ; qtot 17.144975
  519         hx     18    bbb     H6    519 0.14940300   1.008000   ; qtot 17.294378
  520         c3     18    bbb     C4    520 0.18057300  12.010000   ; qtot 17.474951
  521         hc     18    bbb     H7    521 0.01788900   1.008000   ; qtot 17.492840
  522         hc     18    bbb     H8    522 0.01788900   1.008000   ; qtot 17.510729
  523         c3     18    bbb     C5    523 -0.11337700  12.010000   ; qtot 17.397352
  524         hc     18    bbb     H9    524 0.09515400   1.008000   ; qtot 17.492506
  525         hc     18    bbb    H10    525 0.09515400   1.008000   ; qtot 17.587660
  526         c3     18    bbb     C6    526 -0.11337700  12.010000   ; qtot 17.474283
  527         hc     18    bbb    H11    527 0.09515400   1.008000   ; qtot 17.569437
  528         hc     18    bbb    H12    528 0.09515400   1.008000   ; qtot 17.664591
  529         c3     18    bbb     C7    529 0.21842400  12.010000   ; qtot 17.883015
  530         h1     18    bbb    H13    530 0.04500300   1.008000   ; qtot 17.928018
  531         h1     18    bbb    H14    531 0.04500300   1.008000   ; qtot 17.973021
  532         c3     18    bbb     C8    532 -0.06455200  12.010000   ; qtot 17.908469
  533         h1     18    bbb    H15    533 0.13554100   1.008000   ; qtot 18.044010
  534         h1     18    bbb    H16    534 0.13554100   1.008000   ; qtot 18.179551
  535         c3     18    bbb     C9    535 -0.06455200  12.010000   ; qtot 18.114999
  536         h1     18    bbb    H17    536 0.13554100   1.008000   ; qtot 18.250540
  537         h1     18    bbb    H18    537 0.13554100   1.008000   ; qtot 18.386081
  538         os     18    bbb     O1    538 -0.62587700  16.000000   ; qtot 17.760204
  539         hn     18    bbb    H19    539 0.23982500   1.008000   ; qtot 18.000029
; residue   19 bbb rtp bbb q 1.0
  540         n4     19    bbb     N1    540 0.03726400  14.010000   ; qtot 18.037293
  541         c3     19    bbb     C1    541 -0.07020100  12.010000   ; qtot 17.967092
  542         hx     19    bbb     H1    542 0.12219000   1.008000   ; qtot 18.089282
  543         hx     19    bbb     H2    543 0.12219000   1.008000   ; qtot 18.211472
  544         c3     19    bbb     C2    544 -0.07020100  12.010000   ; qtot 18.141271
  545         hx     19    bbb     H3    545 0.12219000   1.008000   ; qtot 18.263461
  546         hx     19    bbb     H4    546 0.12219000   1.008000   ; qtot 18.385651
  547         c3     19    bbb     C3    547 -0.39007700  12.010000   ; qtot 17.995574
  548         hx     19    bbb     H5    548 0.14940300   1.008000   ; qtot 18.144977
  549         hx     19    bbb     H6    549 0.14940300   1.008000   ; qtot 18.294380
  550         c3     19    bbb     C4    550 0.18057300  12.010000   ; qtot 18.474953
  551         hc     19    bbb     H7    551 0.01788900   1.008000   ; qtot 18.492842
  552         hc     19    bbb     H8    552 0.01788900   1.008000   ; qtot 18.510731
  553         c3     19    bbb     C5    553 -0.11337700  12.010000   ; qtot 18.397354
  554         hc     19    bbb     H9    554 0.09515400   1.008000   ; qtot 18.492508
  555         hc     19    bbb    H10    555 0.09515400   1.008000   ; qtot 18.587662
  556         c3     19    bbb     C6    556 -0.11337700  12.010000   ; qtot 18.474285
  557         hc     19    bbb    H11    557 0.09515400   1.008000   ; qtot 18.569439
  558         hc     19    bbb    H12    558 0.09515400   1.008000   ; qtot 18.664593
  559         c3     19    bbb     C7    559 0.21842400  12.010000   ; qtot 18.883017
  560         h1     19    bbb    H13    560 0.04500300   1.008000   ; qtot 18.928020
  561         h1     19    bbb    H14    561 0.04500300   1.008000   ; qtot 18.973023
  562         c3     19    bbb     C8    562 -0.06455200  12.010000   ; qtot 18.908471
  563         h1     19    bbb    H15    563 0.13554100   1.008000   ; qtot 19.044012
  564         h1     19    bbb    H16    564 0.13554100   1.008000   ; qtot 19.179553
  565         c3     19    bbb     C9    565 -0.06455200  12.010000   ; qtot 19.115001
  566         h1     19    bbb    H17    566 0.13554100   1.008000   ; qtot 19.250542
  567         h1     19    bbb    H18    567 0.13554100   1.008000   ; qtot 19.386083
  568         os     19    bbb     O1    568 -0.62587700  16.000000   ; qtot 18.760206
  569         hn     19    bbb    H19    569 0.23982500   1.008000   ; qtot 19.000031
; residue   20 bbb rtp bbb q 1.0
  570         n4     20    bbb     N1    570 0.03726400  14.010000   ; qtot 19.037295
  571         c3     20    bbb     C1    571 -0.07020100  12.010000   ; qtot 18.967094
  572         hx     20    bbb     H1    572 0.12219000   1.008000   ; qtot 19.089284
  573         hx     20    bbb     H2    573 0.12219000   1.008000   ; qtot 19.211474
  574         c3     20    bbb     C2    574 -0.07020100  12.010000   ; qtot 19.141273
  575         hx     20    bbb     H3    575 0.12219000   1.008000   ; qtot 19.263463
  576         hx     20    bbb     H4    576 0.12219000   1.008000   ; qtot 19.385653
  577         c3     20    bbb     C3    577 -0.39007700  12.010000   ; qtot 18.995576
  578         hx     20    bbb     H5    578 0.14940300   1.008000   ; qtot 19.144979
  579         hx     20    bbb     H6    579 0.14940300   1.008000   ; qtot 19.294382
  580         c3     20    bbb     C4    580 0.18057300  12.010000   ; qtot 19.474955
  581         hc     20    bbb     H7    581 0.01788900   1.008000   ; qtot 19.492844
  582         hc     20    bbb     H8    582 0.01788900   1.008000   ; qtot 19.510733
  583         c3     20    bbb     C5    583 -0.11337700  12.010000   ; qtot 19.397356
  584         hc     20    bbb     H9    584 0.09515400   1.008000   ; qtot 19.492510
  585         hc     20    bbb    H10    585 0.09515400   1.008000   ; qtot 19.587664
  586         c3     20    bbb     C6    586 -0.11337700  12.010000   ; qtot 19.474287
  587         hc     20    bbb    H11    587 0.09515400   1.008000   ; qtot 19.569441
  588         hc     20    bbb    H12    588 0.09515400   1.008000   ; qtot 19.664595
  589         c3     20    bbb     C7    589 0.21842400  12.010000   ; qtot 19.883019
  590         h1     20    bbb    H13    590 0.04500300   1.008000   ; qtot 19.928022
  591         h1     20    bbb    H14    591 0.04500300   1.008000   ; qtot 19.973025
  592         c3     20    bbb     C8    592 -0.06455200  12.010000   ; qtot 19.908473
  593         h1     20    bbb    H15    593 0.13554100   1.008000   ; qtot 20.044014
  594         h1     20    bbb    H16    594 0.13554100   1.008000   ; qtot 20.179555
  595         c3     20    bbb     C9    595 -0.06455200  12.010000   ; qtot 20.115003
  596         h1     20    bbb    H17    596 0.13554100   1.008000   ; qtot 20.250544
  597         h1     20    bbb    H18    597 0.13554100   1.008000   ; qtot 20.386085
  598         os     20    bbb     O1    598 -0.62587700  16.000000   ; qtot 19.760208
  599         hn     20    bbb    H19    599 0.23982500   1.008000   ; qtot 20.000033
; residue   21 bbb rtp bbb q 1.0
  600         n4     21    bbb     N1    600 0.03726400  14.010000   ; qtot 20.037297
  601         c3     21    bbb     C1    601 -0.07020100  12.010000   ; qtot 19.967096
  602         hx     21    bbb     H1    602 0.12219000   1.008000   ; qtot 20.089286
  603         hx     21    bbb     H2    603 0.12219000   1.008000   ; qtot 20.211476
  604         c3     21    bbb     C2    604 -0.07020100  12.010000   ; qtot 20.141275
  605         hx     21    bbb     H3    605 0.12219000   1.008000   ; qtot 20.263465
  606         hx     21    bbb     H4    606 0.12219000   1.008000   ; qtot 20.385655
  607         c3     21    bbb     C3    607 -0.39007700  12.010000   ; qtot 19.995578
  608         hx     21    bbb     H5    608 0.14940300   1.008000   ; qtot 20.144981
  609         hx     21    bbb     H6    609 0.14940300   1.008000   ; qtot 20.294384
  610         c3     21    bbb     C4    610 0.18057300  12.010000   ; qtot 20.474957
  611         hc     21    bbb     H7    611 0.01788900   1.008000   ; qtot 20.492846
  612         hc     21    bbb     H8    612 0.01788900   1.008000   ; qtot 20.510735
  613         c3     21    bbb     C5    613 -0.11337700  12.010000   ; qtot 20.397358
  614         hc     21    bbb     H9    614 0.09515400   1.008000   ; qtot 20.492512
  615         hc     21    bbb    H10    615 0.09515400   1.008000   ; qtot 20.587666
  616         c3     21    bbb     C6    616 -0.11337700  12.010000   ; qtot 20.474289
  617         hc     21    bbb    H11    617 0.09515400   1.008000   ; qtot 20.569443
  618         hc     21    bbb    H12    618 0.09515400   1.008000   ; qtot 20.664597
  619         c3     21    bbb     C7    619 0.21842400  12.010000   ; qtot 20.883021
  620         h1     21    bbb    H13    620 0.04500300   1.008000   ; qtot 20.928024
  621         h1     21    bbb    H14    621 0.04500300   1.008000   ; qtot 20.973027
  622         c3     21    bbb     C8    622 -0.06455200  12.010000   ; qtot 20.908475
  623         h1     21    bbb    H15    623 0.13554100   1.008000   ; qtot 21.044016
  624         h1     21    bbb    H16    624 0.13554100   1.008000   ; qtot 21.179557
  625         c3     21    bbb     C9    625 -0.06455200  12.010000   ; qtot 21.115005
  626         h1     21    bbb    H17    626 0.13554100   1.008000   ; qtot 21.250546
  627         h1     21    bbb    H18    627 0.13554100   1.008000   ; qtot 21.386087
  628         os     21    bbb     O1    628 -0.62587700  16.000000   ; qtot 20.760210
  629         hn     21    bbb    H19    629 0.23982500   1.008000   ; qtot 21.000035
; residue   22 bbb rtp bbb q 1.0
  630         n4     22    bbb     N1    630 0.03726400  14.010000   ; qtot 21.037299
  631         c3     22    bbb     C1    631 -0.07020100  12.010000   ; qtot 20.967098
  632         hx     22    bbb     H1    632 0.12219000   1.008000   ; qtot 21.089288
  633         hx     22    bbb     H2    633 0.12219000   1.008000   ; qtot 21.211478
  634         c3     22    bbb     C2    634 -0.07020100  12.010000   ; qtot 21.141277
  635         hx     22    bbb     H3    635 0.12219000   1.008000   ; qtot 21.263467
  636         hx     22    bbb     H4    636 0.12219000   1.008000   ; qtot 21.385657
  637         c3     22    bbb     C3    637 -0.39007700  12.010000   ; qtot 20.995580
  638         hx     22    bbb     H5    638 0.14940300   1.008000   ; qtot 21.144983
  639         hx     22    bbb     H6    639 0.14940300   1.008000   ; qtot 21.294386
  640         c3     22    bbb     C4    640 0.18057300  12.010000   ; qtot 21.474959
  641         hc     22    bbb     H7    641 0.01788900   1.008000   ; qtot 21.492848
  642         hc     22    bbb     H8    642 0.01788900   1.008000   ; qtot 21.510737
  643         c3     22    bbb     C5    643 -0.11337700  12.010000   ; qtot 21.397360
  644         hc     22    bbb     H9    644 0.09515400   1.008000   ; qtot 21.492514
  645         hc     22    bbb    H10    645 0.09515400   1.008000   ; qtot 21.587668
  646         c3     22    bbb     C6    646 -0.11337700  12.010000   ; qtot 21.474291
  647         hc     22    bbb    H11    647 0.09515400   1.008000   ; qtot 21.569445
  648         hc     22    bbb    H12    648 0.09515400   1.008000   ; qtot 21.664599
  649         c3     22    bbb     C7    649 0.21842400  12.010000   ; qtot 21.883023
  650         h1     22    bbb    H13    650 0.04500300   1.008000   ; qtot 21.928026
  651         h1     22    bbb    H14    651 0.04500300   1.008000   ; qtot 21.973029
  652         c3     22    bbb     C8    652 -0.06455200  12.010000   ; qtot 21.908477
  653         h1     22    bbb    H15    653 0.13554100   1.008000   ; qtot 22.044018
  654         h1     22    bbb    H16    654 0.13554100   1.008000   ; qtot 22.179559
  655         c3     22    bbb     C9    655 -0.06455200  12.010000   ; qtot 22.115007
  656         h1     22    bbb    H17    656 0.13554100   1.008000   ; qtot 22.250548
  657         h1     22    bbb    H18    657 0.13554100   1.008000   ; qtot 22.386089
  658         os     22    bbb     O1    658 -0.62587700  16.000000   ; qtot 21.760212
  659         hn     22    bbb    H19    659 0.23982500   1.008000   ; qtot 22.000037
; residue   23 ccc rtp ccc q 0.0
  660         c3     23    ccc     C1    660 -0.33178800  12.010000   ; qtot 21.668249
  661         c3     23    ccc     C2    661 0.30606500  12.010000   ; qtot 21.974314
  662         h1     23    ccc     H1    662 0.11662300   1.008000   ; qtot 22.090937
  663         h1     23    ccc     H2    663 0.11526800   1.008000   ; qtot 22.206205
  664         c3     23    ccc     C3    664 0.15592700  12.010000   ; qtot 22.362132
  665         c3     23    ccc     C4    665 0.28383300  12.010000   ; qtot 22.645965
  666         c3     23    ccc     C5    666 0.32403300  12.010000   ; qtot 22.969998
  667         h1     23    ccc     H3    667 0.13386900   1.008000   ; qtot 23.103867
  668         h1     23    ccc     H4    668 0.10146700   1.008000   ; qtot 23.205334
  669         h2     23    ccc     H5    669 0.10960400   1.008000   ; qtot 23.314938
  670         os     23    ccc     O1    670 -0.28650000  16.000000   ; qtot 23.028438
  671         oh     23    ccc     O2    671 -0.86012500  16.000000   ; qtot 22.168313
  672         oh     23    ccc     O3    672 -0.83772800  16.000000   ; qtot 21.330585
  673         oh     23    ccc     O4    673 -0.77449700  16.000000   ; qtot 20.556088
  674         c3     23    ccc     C6    674 0.37576500  12.010000   ; qtot 20.931853
  675         ho     23    ccc     H6    675 0.53656000   1.008000   ; qtot 21.468413
  676         ho     23    ccc     H7    676 0.49492100   1.008000   ; qtot 21.963334
  677         ho     23    ccc     H8    677 0.51297200   1.008000   ; qtot 22.476306
  678         h1     23    ccc     H9    678 0.05653400   1.008000   ; qtot 22.532840
  679         h1     23    ccc    H10    679 0.05653400   1.008000   ; qtot 22.589374
  680         oh     23    ccc     O5    680 -0.84113600  16.000000   ; qtot 21.748238
  681         ho     23    ccc    H11    681 0.51201600   1.008000   ; qtot 22.260254
  682         os     23    ccc     O6    682 -0.26013600  16.000000   ; qtot 22.000118
; residue   24 ccc rtp ccc q 0.0
  683         c3     24    ccc     C1    683 -0.33178800  12.010000   ; qtot 21.668330
  684         c3     24    ccc     C2    684 0.30606500  12.010000   ; qtot 21.974395
  685         h1     24    ccc     H1    685 0.11662300   1.008000   ; qtot 22.091018
  686         h1     24    ccc     H2    686 0.11526800   1.008000   ; qtot 22.206286
  687         c3     24    ccc     C3    687 0.15592700  12.010000   ; qtot 22.362213
  688         c3     24    ccc     C4    688 0.28383300  12.010000   ; qtot 22.646046
  689         c3     24    ccc     C5    689 0.32403300  12.010000   ; qtot 22.970079
  690         h1     24    ccc     H3    690 0.13386900   1.008000   ; qtot 23.103948
  691         h1     24    ccc     H4    691 0.10146700   1.008000   ; qtot 23.205415
  692         h2     24    ccc     H5    692 0.10960400   1.008000   ; qtot 23.315019
  693         os     24    ccc     O1    693 -0.28650000  16.000000   ; qtot 23.028519
  694         oh     24    ccc     O2    694 -0.86012500  16.000000   ; qtot 22.168394
  695         oh     24    ccc     O3    695 -0.83772800  16.000000   ; qtot 21.330666
  696         oh     24    ccc     O4    696 -0.77449700  16.000000   ; qtot 20.556169
  697         c3     24    ccc     C6    697 0.37576500  12.010000   ; qtot 20.931934
  698         ho     24    ccc     H6    698 0.53656000   1.008000   ; qtot 21.468494
  699         ho     24    ccc     H7    699 0.49492100   1.008000   ; qtot 21.963415
  700         ho     24    ccc     H8    700 0.51297200   1.008000   ; qtot 22.476387
  701         h1     24    ccc     H9    701 0.05653400   1.008000   ; qtot 22.532921
  702         h1     24    ccc    H10    702 0.05653400   1.008000   ; qtot 22.589455
  703         oh     24    ccc     O5    703 -0.84113600  16.000000   ; qtot 21.748319
  704         ho     24    ccc    H11    704 0.51201600   1.008000   ; qtot 22.260335
  705         os     24    ccc     O6    705 -0.26013600  16.000000   ; qtot 22.000199
; residue   25 ccc rtp ccc q 0.0
  706         c3     25    ccc     C1    706 -0.33178800  12.010000   ; qtot 21.668411
  707         c3     25    ccc     C2    707 0.30606500  12.010000   ; qtot 21.974476
  708         h1     25    ccc     H1    708 0.11662300   1.008000   ; qtot 22.091099
  709         h1     25    ccc     H2    709 0.11526800   1.008000   ; qtot 22.206367
  710         c3     25    ccc     C3    710 0.15592700  12.010000   ; qtot 22.362294
  711         c3     25    ccc     C4    711 0.28383300  12.010000   ; qtot 22.646127
  712         c3     25    ccc     C5    712 0.32403300  12.010000   ; qtot 22.970160
  713         h1     25    ccc     H3    713 0.13386900   1.008000   ; qtot 23.104029
  714         h1     25    ccc     H4    714 0.10146700   1.008000   ; qtot 23.205496
  715         h2     25    ccc     H5    715 0.10960400   1.008000   ; qtot 23.315100
  716         os     25    ccc     O1    716 -0.28650000  16.000000   ; qtot 23.028600
  717         oh     25    ccc     O2    717 -0.86012500  16.000000   ; qtot 22.168475
  718         oh     25    ccc     O3    718 -0.83772800  16.000000   ; qtot 21.330747
  719         oh     25    ccc     O4    719 -0.77449700  16.000000   ; qtot 20.556250
  720         c3     25    ccc     C6    720 0.37576500  12.010000   ; qtot 20.932015
  721         ho     25    ccc     H6    721 0.53656000   1.008000   ; qtot 21.468575
  722         ho     25    ccc     H7    722 0.49492100   1.008000   ; qtot 21.963496
  723         ho     25    ccc     H8    723 0.51297200   1.008000   ; qtot 22.476468
  724         h1     25    ccc     H9    724 0.05653400   1.008000   ; qtot 22.533002
  725         h1     25    ccc    H10    725 0.05653400   1.008000   ; qtot 22.589536
  726         oh     25    ccc     O5    726 -0.84113600  16.000000   ; qtot 21.748400
  727         ho     25    ccc    H11    727 0.51201600   1.008000   ; qtot 22.260416
  728         os     25    ccc     O6    728 -0.26013600  16.000000   ; qtot 22.000280
; residue   26 ccc rtp ccc q 0.0
  729         c3     26    ccc     C1    729 -0.33178800  12.010000   ; qtot 21.668492
  730         c3     26    ccc     C2    730 0.30606500  12.010000   ; qtot 21.974557
  731         h1     26    ccc     H1    731 0.11662300   1.008000   ; qtot 22.091180
  732         h1     26    ccc     H2    732 0.11526800   1.008000   ; qtot 22.206448
  733         c3     26    ccc     C3    733 0.15592700  12.010000   ; qtot 22.362375
  734         c3     26    ccc     C4    734 0.28383300  12.010000   ; qtot 22.646208
  735         c3     26    ccc     C5    735 0.32403300  12.010000   ; qtot 22.970241
  736         h1     26    ccc     H3    736 0.13386900   1.008000   ; qtot 23.104110
  737         h1     26    ccc     H4    737 0.10146700   1.008000   ; qtot 23.205577
  738         h2     26    ccc     H5    738 0.10960400   1.008000   ; qtot 23.315181
  739         os     26    ccc     O1    739 -0.28650000  16.000000   ; qtot 23.028681
  740         oh     26    ccc     O2    740 -0.86012500  16.000000   ; qtot 22.168556
  741         oh     26    ccc     O3    741 -0.83772800  16.000000   ; qtot 21.330828
  742         oh     26    ccc     O4    742 -0.77449700  16.000000   ; qtot 20.556331
  743         c3     26    ccc     C6    743 0.37576500  12.010000   ; qtot 20.932096
  744         ho     26    ccc     H6    744 0.53656000   1.008000   ; qtot 21.468656
  745         ho     26    ccc     H7    745 0.49492100   1.008000   ; qtot 21.963577
  746         ho     26    ccc     H8    746 0.51297200   1.008000   ; qtot 22.476549
  747         h1     26    ccc     H9    747 0.05653400   1.008000   ; qtot 22.533083
  748         h1     26    ccc    H10    748 0.05653400   1.008000   ; qtot 22.589617
  749         oh     26    ccc     O5    749 -0.84113600  16.000000   ; qtot 21.748481
  750         ho     26    ccc    H11    750 0.51201600   1.008000   ; qtot 22.260497
  751         os     26    ccc     O6    751 -0.26013600  16.000000   ; qtot 22.000361
; residue   27 ccc rtp ccc q 0.0
  752         c3     27    ccc     C1    752 -0.33178800  12.010000   ; qtot 21.668573
  753         c3     27    ccc     C2    753 0.30606500  12.010000   ; qtot 21.974638
  754         h1     27    ccc     H1    754 0.11662300   1.008000   ; qtot 22.091261
  755         h1     27    ccc     H2    755 0.11526800   1.008000   ; qtot 22.206529
  756         c3     27    ccc     C3    756 0.15592700  12.010000   ; qtot 22.362456
  757         c3     27    ccc     C4    757 0.28383300  12.010000   ; qtot 22.646289
  758         c3     27    ccc     C5    758 0.32403300  12.010000   ; qtot 22.970322
  759         h1     27    ccc     H3    759 0.13386900   1.008000   ; qtot 23.104191
  760         h1     27    ccc     H4    760 0.10146700   1.008000   ; qtot 23.205658
  761         h2     27    ccc     H5    761 0.10960400   1.008000   ; qtot 23.315262
  762         os     27    ccc     O1    762 -0.28650000  16.000000   ; qtot 23.028762
  763         oh     27    ccc     O2    763 -0.86012500  16.000000   ; qtot 22.168637
  764         oh     27    ccc     O3    764 -0.83772800  16.000000   ; qtot 21.330909
  765         oh     27    ccc     O4    765 -0.77449700  16.000000   ; qtot 20.556412
  766         c3     27    ccc     C6    766 0.37576500  12.010000   ; qtot 20.932177
  767         ho     27    ccc     H6    767 0.53656000   1.008000   ; qtot 21.468737
  768         ho     27    ccc     H7    768 0.49492100   1.008000   ; qtot 21.963658
  769         ho     27    ccc     H8    769 0.51297200   1.008000   ; qtot 22.476630
  770         h1     27    ccc     H9    770 0.05653400   1.008000   ; qtot 22.533164
  771         h1     27    ccc    H10    771 0.05653400   1.008000   ; qtot 22.589698
  772         oh     27    ccc     O5    772 -0.84113600  16.000000   ; qtot 21.748562
  773         ho     27    ccc    H11    773 0.51201600   1.008000   ; qtot 22.260578
  774         os     27    ccc     O6    774 -0.26013600  16.000000   ; qtot 22.000442
; residue   28 ccc rtp ccc q 0.0
  775         c3     28    ccc     C1    775 -0.33178800  12.010000   ; qtot 21.668654
  776         c3     28    ccc     C2    776 0.30606500  12.010000   ; qtot 21.974719
  777         h1     28    ccc     H1    777 0.11662300   1.008000   ; qtot 22.091342
  778         h1     28    ccc     H2    778 0.11526800   1.008000   ; qtot 22.206610
  779         c3     28    ccc     C3    779 0.15592700  12.010000   ; qtot 22.362537
  780         c3     28    ccc     C4    780 0.28383300  12.010000   ; qtot 22.646370
  781         c3     28    ccc     C5    781 0.32403300  12.010000   ; qtot 22.970403
  782         h1     28    ccc     H3    782 0.13386900   1.008000   ; qtot 23.104272
  783         h1     28    ccc     H4    783 0.10146700   1.008000   ; qtot 23.205739
  784         h2     28    ccc     H5    784 0.10960400   1.008000   ; qtot 23.315343
  785         os     28    ccc     O1    785 -0.28650000  16.000000   ; qtot 23.028843
  786         oh     28    ccc     O2    786 -0.86012500  16.000000   ; qtot 22.168718
  787         oh     28    ccc     O3    787 -0.83772800  16.000000   ; qtot 21.330990
  788         oh     28    ccc     O4    788 -0.77449700  16.000000   ; qtot 20.556493
  789         c3     28    ccc     C6    789 0.37576500  12.010000   ; qtot 20.932258
  790         ho     28    ccc     H6    790 0.53656000   1.008000   ; qtot 21.468818
  791         ho     28    ccc     H7    791 0.49492100   1.008000   ; qtot 21.963739
  792         ho     28    ccc     H8    792 0.51297200   1.008000   ; qtot 22.476711
  793         h1     28    ccc     H9    793 0.05653400   1.008000   ; qtot 22.533245
  794         h1     28    ccc    H10    794 0.05653400   1.008000   ; qtot 22.589779
  795         oh     28    ccc     O5    795 -0.84113600  16.000000   ; qtot 21.748643
  796         ho     28    ccc    H11    796 0.51201600   1.008000   ; qtot 22.260659
  797         os     28    ccc     O6    797 -0.26013600  16.000000   ; qtot 22.000523
; residue   29 ccc rtp ccc q 0.0
  798         c3     29    ccc     C1    798 -0.33178800  12.010000   ; qtot 21.668735
  799         c3     29    ccc     C2    799 0.30606500  12.010000   ; qtot 21.974800
  800         h1     29    ccc     H1    800 0.11662300   1.008000   ; qtot 22.091423
  801         h1     29    ccc     H2    801 0.11526800   1.008000   ; qtot 22.206691
  802         c3     29    ccc     C3    802 0.15592700  12.010000   ; qtot 22.362618
  803         c3     29    ccc     C4    803 0.28383300  12.010000   ; qtot 22.646451
  804         c3     29    ccc     C5    804 0.32403300  12.010000   ; qtot 22.970484
  805         h1     29    ccc     H3    805 0.13386900   1.008000   ; qtot 23.104353
  806         h1     29    ccc     H4    806 0.10146700   1.008000   ; qtot 23.205820
  807         h2     29    ccc     H5    807 0.10960400   1.008000   ; qtot 23.315424
  808         os     29    ccc     O1    808 -0.28650000  16.000000   ; qtot 23.028924
  809         oh     29    ccc     O2    809 -0.86012500  16.000000   ; qtot 22.168799
  810         oh     29    ccc     O3    810 -0.83772800  16.000000   ; qtot 21.331071
  811         oh     29    ccc     O4    811 -0.77449700  16.000000   ; qtot 20.556574
  812         c3     29    ccc     C6    812 0.37576500  12.010000   ; qtot 20.932339
  813         ho     29    ccc     H6    813 0.53656000   1.008000   ; qtot 21.468899
  814         ho     29    ccc     H7    814 0.49492100   1.008000   ; qtot 21.963820
  815         ho     29    ccc     H8    815 0.51297200   1.008000   ; qtot 22.476792
  816         h1     29    ccc     H9    816 0.05653400   1.008000   ; qtot 22.533326
  817         h1     29    ccc    H10    817 0.05653400   1.008000   ; qtot 22.589860
  818         oh     29    ccc     O5    818 -0.84113600  16.000000   ; qtot 21.748724
  819         ho     29    ccc    H11    819 0.51201600   1.008000   ; qtot 22.260740
  820         os     29    ccc     O6    820 -0.26013600  16.000000   ; qtot 22.000604
; residue   30 ccc rtp ccc q 0.0
  821         c3     30    ccc     C1    821 -0.33178800  12.010000   ; qtot 21.668816
  822         c3     30    ccc     C2    822 0.30606500  12.010000   ; qtot 21.974881
  823         h1     30    ccc     H1    823 0.11662300   1.008000   ; qtot 22.091504
  824         h1     30    ccc     H2    824 0.11526800   1.008000   ; qtot 22.206772
  825         c3     30    ccc     C3    825 0.15592700  12.010000   ; qtot 22.362699
  826         c3     30    ccc     C4    826 0.28383300  12.010000   ; qtot 22.646532
  827         c3     30    ccc     C5    827 0.32403300  12.010000   ; qtot 22.970565
  828         h1     30    ccc     H3    828 0.13386900   1.008000   ; qtot 23.104434
  829         h1     30    ccc     H4    829 0.10146700   1.008000   ; qtot 23.205901
  830         h2     30    ccc     H5    830 0.10960400   1.008000   ; qtot 23.315505
  831         os     30    ccc     O1    831 -0.28650000  16.000000   ; qtot 23.029005
  832         oh     30    ccc     O2    832 -0.86012500  16.000000   ; qtot 22.168880
  833         oh     30    ccc     O3    833 -0.83772800  16.000000   ; qtot 21.331152
  834         oh     30    ccc     O4    834 -0.77449700  16.000000   ; qtot 20.556655
  835         c3     30    ccc     C6    835 0.37576500  12.010000   ; qtot 20.932420
  836         ho     30    ccc     H6    836 0.53656000   1.008000   ; qtot 21.468980
  837         ho     30    ccc     H7    837 0.49492100   1.008000   ; qtot 21.963901
  838         ho     30    ccc     H8    838 0.51297200   1.008000   ; qtot 22.476873
  839         h1     30    ccc     H9    839 0.05653400   1.008000   ; qtot 22.533407
  840         h1     30    ccc    H10    840 0.05653400   1.008000   ; qtot 22.589941
  841         oh     30    ccc     O5    841 -0.84113600  16.000000   ; qtot 21.748805
  842         ho     30    ccc    H11    842 0.51201600   1.008000   ; qtot 22.260821
  843         os     30    ccc     O6    843 -0.26013600  16.000000   ; qtot 22.000685
; residue   31 ccc rtp ccc q 0.0
  844         c3     31    ccc     C1    844 -0.33178800  12.010000   ; qtot 21.668897
  845         c3     31    ccc     C2    845 0.30606500  12.010000   ; qtot 21.974962
  846         h1     31    ccc     H1    846 0.11662300   1.008000   ; qtot 22.091585
  847         h1     31    ccc     H2    847 0.11526800   1.008000   ; qtot 22.206853
  848         c3     31    ccc     C3    848 0.15592700  12.010000   ; qtot 22.362780
  849         c3     31    ccc     C4    849 0.28383300  12.010000   ; qtot 22.646613
  850         c3     31    ccc     C5    850 0.32403300  12.010000   ; qtot 22.970646
  851         h1     31    ccc     H3    851 0.13386900   1.008000   ; qtot 23.104515
  852         h1     31    ccc     H4    852 0.10146700   1.008000   ; qtot 23.205982
  853         h2     31    ccc     H5    853 0.10960400   1.008000   ; qtot 23.315586
  854         os     31    ccc     O1    854 -0.28650000  16.000000   ; qtot 23.029086
  855         oh     31    ccc     O2    855 -0.86012500  16.000000   ; qtot 22.168961
  856         oh     31    ccc     O3    856 -0.83772800  16.000000   ; qtot 21.331233
  857         oh     31    ccc     O4    857 -0.77449700  16.000000   ; qtot 20.556736
  858         c3     31    ccc     C6    858 0.37576500  12.010000   ; qtot 20.932501
  859         ho     31    ccc     H6    859 0.53656000   1.008000   ; qtot 21.469061
  860         ho     31    ccc     H7    860 0.49492100   1.008000   ; qtot 21.963982
  861         ho     31    ccc     H8    861 0.51297200   1.008000   ; qtot 22.476954
  862         h1     31    ccc     H9    862 0.05653400   1.008000   ; qtot 22.533488
  863         h1     31    ccc    H10    863 0.05653400   1.008000   ; qtot 22.590022
  864         oh     31    ccc     O5    864 -0.84113600  16.000000   ; qtot 21.748886
  865         ho     31    ccc    H11    865 0.51201600   1.008000   ; qtot 22.260902
  866         os     31    ccc     O6    866 -0.26013600  16.000000   ; qtot 22.000766
; residue   32 ccc rtp ccc q 0.0
  867         c3     32    ccc     C1    867 -0.33178800  12.010000   ; qtot 21.668978
  868         c3     32    ccc     C2    868 0.30606500  12.010000   ; qtot 21.975043
  869         h1     32    ccc     H1    869 0.11662300   1.008000   ; qtot 22.091666
  870         h1     32    ccc     H2    870 0.11526800   1.008000   ; qtot 22.206934
  871         c3     32    ccc     C3    871 0.15592700  12.010000   ; qtot 22.362861
  872         c3     32    ccc     C4    872 0.28383300  12.010000   ; qtot 22.646694
  873         c3     32    ccc     C5    873 0.32403300  12.010000   ; qtot 22.970727
  874         h1     32    ccc     H3    874 0.13386900   1.008000   ; qtot 23.104596
  875         h1     32    ccc     H4    875 0.10146700   1.008000   ; qtot 23.206063
  876         h2     32    ccc     H5    876 0.10960400   1.008000   ; qtot 23.315667
  877         os     32    ccc     O1    877 -0.28650000  16.000000   ; qtot 23.029167
  878         oh     32    ccc     O2    878 -0.86012500  16.000000   ; qtot 22.169042
  879         oh     32    ccc     O3    879 -0.83772800  16.000000   ; qtot 21.331314
  880         oh     32    ccc     O4    880 -0.77449700  16.000000   ; qtot 20.556817
  881         c3     32    ccc     C6    881 0.37576500  12.010000   ; qtot 20.932582
  882         ho     32    ccc     H6    882 0.53656000   1.008000   ; qtot 21.469142
  883         ho     32    ccc     H7    883 0.49492100   1.008000   ; qtot 21.964063
  884         ho     32    ccc     H8    884 0.51297200   1.008000   ; qtot 22.477035
  885         h1     32    ccc     H9    885 0.05653400   1.008000   ; qtot 22.533569
  886         h1     32    ccc    H10    886 0.05653400   1.008000   ; qtot 22.590103
  887         oh     32    ccc     O5    887 -0.84113600  16.000000   ; qtot 21.748967
  888         ho     32    ccc    H11    888 0.51201600   1.008000   ; qtot 22.260983
  889         os     32    ccc     O6    889 -0.26013600  16.000000   ; qtot 22.000847
; residue   33 ccc rtp ccc q 0.0
  890         c3     33    ccc     C1    890 -0.33178800  12.010000   ; qtot 21.669059
  891         c3     33    ccc     C2    891 0.30606500  12.010000   ; qtot 21.975124
  892         h1     33    ccc     H1    892 0.11662300   1.008000   ; qtot 22.091747
  893         h1     33    ccc     H2    893 0.11526800   1.008000   ; qtot 22.207015
  894         c3     33    ccc     C3    894 0.15592700  12.010000   ; qtot 22.362942
  895         c3     33    ccc     C4    895 0.28383300  12.010000   ; qtot 22.646775
  896         c3     33    ccc     C5    896 0.32403300  12.010000   ; qtot 22.970808
  897         h1     33    ccc     H3    897 0.13386900   1.008000   ; qtot 23.104677
  898         h1     33    ccc     H4    898 0.10146700   1.008000   ; qtot 23.206144
  899         h2     33    ccc     H5    899 0.10960400   1.008000   ; qtot 23.315748
  900         os     33    ccc     O1    900 -0.28650000  16.000000   ; qtot 23.029248
  901         oh     33    ccc     O2    901 -0.86012500  16.000000   ; qtot 22.169123
  902         oh     33    ccc     O3    902 -0.83772800  16.000000   ; qtot 21.331395
  903         oh     33    ccc     O4    903 -0.77449700  16.000000   ; qtot 20.556898
  904         c3     33    ccc     C6    904 0.37576500  12.010000   ; qtot 20.932663
  905         ho     33    ccc     H6    905 0.53656000   1.008000   ; qtot 21.469223
  906         ho     33    ccc     H7    906 0.49492100   1.008000   ; qtot 21.964144
  907         ho     33    ccc     H8    907 0.51297200   1.008000   ; qtot 22.477116
  908         h1     33    ccc     H9    908 0.05653400   1.008000   ; qtot 22.533650
  909         h1     33    ccc    H10    909 0.05653400   1.008000   ; qtot 22.590184
  910         oh     33    ccc     O5    910 -0.84113600  16.000000   ; qtot 21.749048
  911         ho     33    ccc    H11    911 0.51201600   1.008000   ; qtot 22.261064
  912         os     33    ccc     O6    912 -0.26013600  16.000000   ; qtot 22.000928
; residue   34 ccc rtp ccc q 0.0
  913         c3     34    ccc     C1    913 -0.33178800  12.010000   ; qtot 21.669140
  914         c3     34    ccc     C2    914 0.30606500  12.010000   ; qtot 21.975205
  915         h1     34    ccc     H1    915 0.11662300   1.008000   ; qtot 22.091828
  916         h1     34    ccc     H2    916 0.11526800   1.008000   ; qtot 22.207096
  917         c3     34    ccc     C3    917 0.15592700  12.010000   ; qtot 22.363023
  918         c3     34    ccc     C4    918 0.28383300  12.010000   ; qtot 22.646856
  919         c3     34    ccc     C5    919 0.32403300  12.010000   ; qtot 22.970889
  920         h1     34    ccc     H3    920 0.13386900   1.008000   ; qtot 23.104758
  921         h1     34    ccc     H4    921 0.10146700   1.008000   ; qtot 23.206225
  922         h2     34    ccc     H5    922 0.10960400   1.008000   ; qtot 23.315829
  923         os     34    ccc     O1    923 -0.28650000  16.000000   ; qtot 23.029329
  924         oh     34    ccc     O2    924 -0.86012500  16.000000   ; qtot 22.169204
  925         oh     34    ccc     O3    925 -0.83772800  16.000000   ; qtot 21.331476
  926         oh     34    ccc     O4    926 -0.77449700  16.000000   ; qtot 20.556979
  927         c3     34    ccc     C6    927 0.37576500  12.010000   ; qtot 20.932744
  928         ho     34    ccc     H6    928 0.53656000   1.008000   ; qtot 21.469304
  929         ho     34    ccc     H7    929 0.49492100   1.008000   ; qtot 21.964225
  930         ho     34    ccc     H8    930 0.51297200   1.008000   ; qtot 22.477197
  931         h1     34    ccc     H9    931 0.05653400   1.008000   ; qtot 22.533731
  932         h1     34    ccc    H10    932 0.05653400   1.008000   ; qtot 22.590265
  933         oh     34    ccc     O5    933 -0.84113600  16.000000   ; qtot 21.749129
  934         ho     34    ccc    H11    934 0.51201600   1.008000   ; qtot 22.261145
  935         os     34    ccc     O6    935 -0.26013600  16.000000   ; qtot 22.001009
; residue   35 ccc rtp ccc q 0.0
  936         c3     35    ccc     C1    936 -0.33178800  12.010000   ; qtot 21.669221
  937         c3     35    ccc     C2    937 0.30606500  12.010000   ; qtot 21.975286
  938         h1     35    ccc     H1    938 0.11662300   1.008000   ; qtot 22.091909
  939         h1     35    ccc     H2    939 0.11526800   1.008000   ; qtot 22.207177
  940         c3     35    ccc     C3    940 0.15592700  12.010000   ; qtot 22.363104
  941         c3     35    ccc     C4    941 0.28383300  12.010000   ; qtot 22.646937
  942         c3     35    ccc     C5    942 0.32403300  12.010000   ; qtot 22.970970
  943         h1     35    ccc     H3    943 0.13386900   1.008000   ; qtot 23.104839
  944         h1     35    ccc     H4    944 0.10146700   1.008000   ; qtot 23.206306
  945         h2     35    ccc     H5    945 0.10960400   1.008000   ; qtot 23.315910
  946         os     35    ccc     O1    946 -0.28650000  16.000000   ; qtot 23.029410
  947         oh     35    ccc     O2    947 -0.86012500  16.000000   ; qtot 22.169285
  948         oh     35    ccc     O3    948 -0.83772800  16.000000   ; qtot 21.331557
  949         oh     35    ccc     O4    949 -0.77449700  16.000000   ; qtot 20.557060
  950         c3     35    ccc     C6    950 0.37576500  12.010000   ; qtot 20.932825
  951         ho     35    ccc     H6    951 0.53656000   1.008000   ; qtot 21.469385
  952         ho     35    ccc     H7    952 0.49492100   1.008000   ; qtot 21.964306
  953         ho     35    ccc     H8    953 0.51297200   1.008000   ; qtot 22.477278
  954         h1     35    ccc     H9    954 0.05653400   1.008000   ; qtot 22.533812
  955         h1     35    ccc    H10    955 0.05653400   1.008000   ; qtot 22.590346
  956         oh     35    ccc     O5    956 -0.84113600  16.000000   ; qtot 21.749210
  957         ho     35    ccc    H11    957 0.51201600   1.008000   ; qtot 22.261226
  958         os     35    ccc     O6    958 -0.26013600  16.000000   ; qtot 22.001090
; residue   36 ccc rtp ccc q 0.0
  959         c3     36    ccc     C1    959 -0.33178800  12.010000   ; qtot 21.669302
  960         c3     36    ccc     C2    960 0.30606500  12.010000   ; qtot 21.975367
  961         h1     36    ccc     H1    961 0.11662300   1.008000   ; qtot 22.091990
  962         h1     36    ccc     H2    962 0.11526800   1.008000   ; qtot 22.207258
  963         c3     36    ccc     C3    963 0.15592700  12.010000   ; qtot 22.363185
  964         c3     36    ccc     C4    964 0.28383300  12.010000   ; qtot 22.647018
  965         c3     36    ccc     C5    965 0.32403300  12.010000   ; qtot 22.971051
  966         h1     36    ccc     H3    966 0.13386900   1.008000   ; qtot 23.104920
  967         h1     36    ccc     H4    967 0.10146700   1.008000   ; qtot 23.206387
  968         h2     36    ccc     H5    968 0.10960400   1.008000   ; qtot 23.315991
  969         os     36    ccc     O1    969 -0.28650000  16.000000   ; qtot 23.029491
  970         oh     36    ccc     O2    970 -0.86012500  16.000000   ; qtot 22.169366
  971         oh     36    ccc     O3    971 -0.83772800  16.000000   ; qtot 21.331638
  972         oh     36    ccc     O4    972 -0.77449700  16.000000   ; qtot 20.557141
  973         c3     36    ccc     C6    973 0.37576500  12.010000   ; qtot 20.932906
  974         ho     36    ccc     H6    974 0.53656000   1.008000   ; qtot 21.469466
  975         ho     36    ccc     H7    975 0.49492100   1.008000   ; qtot 21.964387
  976         ho     36    ccc     H8    976 0.51297200   1.008000   ; qtot 22.477359
  977         h1     36    ccc     H9    977 0.05653400   1.008000   ; qtot 22.533893
  978         h1     36    ccc    H10    978 0.05653400   1.008000   ; qtot 22.590427
  979         oh     36    ccc     O5    979 -0.84113600  16.000000   ; qtot 21.749291
  980         ho     36    ccc    H11    980 0.51201600   1.008000   ; qtot 22.261307
  981         os     36    ccc     O6    981 -0.26013600  16.000000   ; qtot 22.001171
; residue   37 ccc rtp ccc q 0.0
  982         c3     37    ccc     C1    982 -0.33178800  12.010000   ; qtot 21.669383
  983         c3     37    ccc     C2    983 0.30606500  12.010000   ; qtot 21.975448
  984         h1     37    ccc     H1    984 0.11662300   1.008000   ; qtot 22.092071
  985         h1     37    ccc     H2    985 0.11526800   1.008000   ; qtot 22.207339
  986         c3     37    ccc     C3    986 0.15592700  12.010000   ; qtot 22.363266
  987         c3     37    ccc     C4    987 0.28383300  12.010000   ; qtot 22.647099
  988         c3     37    ccc     C5    988 0.32403300  12.010000   ; qtot 22.971132
  989         h1     37    ccc     H3    989 0.13386900   1.008000   ; qtot 23.105001
  990         h1     37    ccc     H4    990 0.10146700   1.008000   ; qtot 23.206468
  991         h2     37    ccc     H5    991 0.10960400   1.008000   ; qtot 23.316072
  992         os     37    ccc     O1    992 -0.28650000  16.000000   ; qtot 23.029572
  993         oh     37    ccc     O2    993 -0.86012500  16.000000   ; qtot 22.169447
  994         oh     37    ccc     O3    994 -0.83772800  16.000000   ; qtot 21.331719
  995         oh     37    ccc     O4    995 -0.77449700  16.000000   ; qtot 20.557222
  996         c3     37    ccc     C6    996 0.37576500  12.010000   ; qtot 20.932987
  997         ho     37    ccc     H6    997 0.53656000   1.008000   ; qtot 21.469547
  998         ho     37    ccc     H7    998 0.49492100   1.008000   ; qtot 21.964468
  999         ho     37    ccc     H8    999 0.51297200   1.008000   ; qtot 22.477440
 1000         h1     37    ccc     H9   1000 0.05653400   1.008000   ; qtot 22.533974
 1001         h1     37    ccc    H10   1001 0.05653400   1.008000   ; qtot 22.590508
 1002         oh     37    ccc     O5   1002 -0.84113600  16.000000   ; qtot 21.749372
 1003         ho     37    ccc    H11   1003 0.51201600   1.008000   ; qtot 22.261388
 1004         os     37    ccc     O6   1004 -0.26013600  16.000000   ; qtot 22.001252
; residue   38 ccc rtp ccc q 0.0
 1005         c3     38    ccc     C1   1005 -0.33178800  12.010000   ; qtot 21.669464
 1006         c3     38    ccc     C2   1006 0.30606500  12.010000   ; qtot 21.975529
 1007         h1     38    ccc     H1   1007 0.11662300   1.008000   ; qtot 22.092152
 1008         h1     38    ccc     H2   1008 0.11526800   1.008000   ; qtot 22.207420
 1009         c3     38    ccc     C3   1009 0.15592700  12.010000   ; qtot 22.363347
 1010         c3     38    ccc     C4   1010 0.28383300  12.010000   ; qtot 22.647180
 1011         c3     38    ccc     C5   1011 0.32403300  12.010000   ; qtot 22.971213
 1012         h1     38    ccc     H3   1012 0.13386900   1.008000   ; qtot 23.105082
 1013         h1     38    ccc     H4   1013 0.10146700   1.008000   ; qtot 23.206549
 1014         h2     38    ccc     H5   1014 0.10960400   1.008000   ; qtot 23.316153
 1015         os     38    ccc     O1   1015 -0.28650000  16.000000   ; qtot 23.029653
 1016         oh     38    ccc     O2   1016 -0.86012500  16.000000   ; qtot 22.169528
 1017         oh     38    ccc     O3   1017 -0.83772800  16.000000   ; qtot 21.331800
 1018         oh     38    ccc     O4   1018 -0.77449700  16.000000   ; qtot 20.557303
 1019         c3     38    ccc     C6   1019 0.37576500  12.010000   ; qtot 20.933068
 1020         ho     38    ccc     H6   1020 0.53656000   1.008000   ; qtot 21.469628
 1021         ho     38    ccc     H7   1021 0.49492100   1.008000   ; qtot 21.964549
 1022         ho     38    ccc     H8   1022 0.51297200   1.008000   ; qtot 22.477521
 1023         h1     38    ccc     H9   1023 0.05653400   1.008000   ; qtot 22.534055
 1024         h1     38    ccc    H10   1024 0.05653400   1.008000   ; qtot 22.590589
 1025         oh     38    ccc     O5   1025 -0.84113600  16.000000   ; qtot 21.749453
 1026         ho     38    ccc    H11   1026 0.51201600   1.008000   ; qtot 22.261469
 1027         os     38    ccc     O6   1027 -0.26013600  16.000000   ; qtot 22.001333
; residue   39 ccc rtp ccc q 0.0
 1028         c3     39    ccc     C1   1028 -0.33178800  12.010000   ; qtot 21.669545
 1029         c3     39    ccc     C2   1029 0.30606500  12.010000   ; qtot 21.975610
 1030         h1     39    ccc     H1   1030 0.11662300   1.008000   ; qtot 22.092233
 1031         h1     39    ccc     H2   1031 0.11526800   1.008000   ; qtot 22.207501
 1032         c3     39    ccc     C3   1032 0.15592700  12.010000   ; qtot 22.363428
 1033         c3     39    ccc     C4   1033 0.28383300  12.010000   ; qtot 22.647261
 1034         c3     39    ccc     C5   1034 0.32403300  12.010000   ; qtot 22.971294
 1035         h1     39    ccc     H3   1035 0.13386900   1.008000   ; qtot 23.105163
 1036         h1     39    ccc     H4   1036 0.10146700   1.008000   ; qtot 23.206630
 1037         h2     39    ccc     H5   1037 0.10960400   1.008000   ; qtot 23.316234
 1038         os     39    ccc     O1   1038 -0.28650000  16.000000   ; qtot 23.029734
 1039         oh     39    ccc     O2   1039 -0.86012500  16.000000   ; qtot 22.169609
 1040         oh     39    ccc     O3   1040 -0.83772800  16.000000   ; qtot 21.331881
 1041         oh     39    ccc     O4   1041 -0.77449700  16.000000   ; qtot 20.557384
 1042         c3     39    ccc     C6   1042 0.37576500  12.010000   ; qtot 20.933149
 1043         ho     39    ccc     H6   1043 0.53656000   1.008000   ; qtot 21.469709
 1044         ho     39    ccc     H7   1044 0.49492100   1.008000   ; qtot 21.964630
 1045         ho     39    ccc     H8   1045 0.51297200   1.008000   ; qtot 22.477602
 1046         h1     39    ccc     H9   1046 0.05653400   1.008000   ; qtot 22.534136
 1047         h1     39    ccc    H10   1047 0.05653400   1.008000   ; qtot 22.590670
 1048         oh     39    ccc     O5   1048 -0.84113600  16.000000   ; qtot 21.749534
 1049         ho     39    ccc    H11   1049 0.51201600   1.008000   ; qtot 22.261550
 1050         os     39    ccc     O6   1050 -0.26013600  16.000000   ; qtot 22.001414
; residue   40 ccc rtp ccc q 0.0
 1051         c3     40    ccc     C1   1051 -0.33178800  12.010000   ; qtot 21.669626
 1052         c3     40    ccc     C2   1052 0.30606500  12.010000   ; qtot 21.975691
 1053         h1     40    ccc     H1   1053 0.11662300   1.008000   ; qtot 22.092314
 1054         h1     40    ccc     H2   1054 0.11526800   1.008000   ; qtot 22.207582
 1055         c3     40    ccc     C3   1055 0.15592700  12.010000   ; qtot 22.363509
 1056         c3     40    ccc     C4   1056 0.28383300  12.010000   ; qtot 22.647342
 1057         c3     40    ccc     C5   1057 0.32403300  12.010000   ; qtot 22.971375
 1058         h1     40    ccc     H3   1058 0.13386900   1.008000   ; qtot 23.105244
 1059         h1     40    ccc     H4   1059 0.10146700   1.008000   ; qtot 23.206711
 1060         h2     40    ccc     H5   1060 0.10960400   1.008000   ; qtot 23.316315
 1061         os     40    ccc     O1   1061 -0.28650000  16.000000   ; qtot 23.029815
 1062         oh     40    ccc     O2   1062 -0.86012500  16.000000   ; qtot 22.169690
 1063         oh     40    ccc     O3   1063 -0.83772800  16.000000   ; qtot 21.331962
 1064         oh     40    ccc     O4   1064 -0.77449700  16.000000   ; qtot 20.557465
 1065         c3     40    ccc     C6   1065 0.37576500  12.010000   ; qtot 20.933230
 1066         ho     40    ccc     H6   1066 0.53656000   1.008000   ; qtot 21.469790
 1067         ho     40    ccc     H7   1067 0.49492100   1.008000   ; qtot 21.964711
 1068         ho     40    ccc     H8   1068 0.51297200   1.008000   ; qtot 22.477683
 1069         h1     40    ccc     H9   1069 0.05653400   1.008000   ; qtot 22.534217
 1070         h1     40    ccc    H10   1070 0.05653400   1.008000   ; qtot 22.590751
 1071         oh     40    ccc     O5   1071 -0.84113600  16.000000   ; qtot 21.749615
 1072         ho     40    ccc    H11   1072 0.51201600   1.008000   ; qtot 22.261631
 1073         os     40    ccc     O6   1073 -0.26013600  16.000000   ; qtot 22.001495
; residue   41 ccc rtp ccc q 0.0
 1074         c3     41    ccc     C1   1074 -0.33178800  12.010000   ; qtot 21.669707
 1075         c3     41    ccc     C2   1075 0.30606500  12.010000   ; qtot 21.975772
 1076         h1     41    ccc     H1   1076 0.11662300   1.008000   ; qtot 22.092395
 1077         h1     41    ccc     H2   1077 0.11526800   1.008000   ; qtot 22.207663
 1078         c3     41    ccc     C3   1078 0.15592700  12.010000   ; qtot 22.363590
 1079         c3     41    ccc     C4   1079 0.28383300  12.010000   ; qtot 22.647423
 1080         c3     41    ccc     C5   1080 0.32403300  12.010000   ; qtot 22.971456
 1081         h1     41    ccc     H3   1081 0.13386900   1.008000   ; qtot 23.105325
 1082         h1     41    ccc     H4   1082 0.10146700   1.008000   ; qtot 23.206792
 1083         h2     41    ccc     H5   1083 0.10960400   1.008000   ; qtot 23.316396
 1084         os     41    ccc     O1   1084 -0.28650000  16.000000   ; qtot 23.029896
 1085         oh     41    ccc     O2   1085 -0.86012500  16.000000   ; qtot 22.169771
 1086         oh     41    ccc     O3   1086 -0.83772800  16.000000   ; qtot 21.332043
 1087         oh     41    ccc     O4   1087 -0.77449700  16.000000   ; qtot 20.557546
 1088         c3     41    ccc     C6   1088 0.37576500  12.010000   ; qtot 20.933311
 1089         ho     41    ccc     H6   1089 0.53656000   1.008000   ; qtot 21.469871
 1090         ho     41    ccc     H7   1090 0.49492100   1.008000   ; qtot 21.964792
 1091         ho     41    ccc     H8   1091 0.51297200   1.008000   ; qtot 22.477764
 1092         h1     41    ccc     H9   1092 0.05653400   1.008000   ; qtot 22.534298
 1093         h1     41    ccc    H10   1093 0.05653400   1.008000   ; qtot 22.590832
 1094         oh     41    ccc     O5   1094 -0.84113600  16.000000   ; qtot 21.749696
 1095         ho     41    ccc    H11   1095 0.51201600   1.008000   ; qtot 22.261712
 1096         os     41    ccc     O6   1096 -0.26013600  16.000000   ; qtot 22.001576
; residue   42 ccc rtp ccc q 0.0
 1097         c3     42    ccc     C1   1097 -0.33178800  12.010000   ; qtot 21.669788
 1098         c3     42    ccc     C2   1098 0.30606500  12.010000   ; qtot 21.975853
 1099         h1     42    ccc     H1   1099 0.11662300   1.008000   ; qtot 22.092476
 1100         h1     42    ccc     H2   1100 0.11526800   1.008000   ; qtot 22.207744
 1101         c3     42    ccc     C3   1101 0.15592700  12.010000   ; qtot 22.363671
 1102         c3     42    ccc     C4   1102 0.28383300  12.010000   ; qtot 22.647504
 1103         c3     42    ccc     C5   1103 0.32403300  12.010000   ; qtot 22.971537
 1104         h1     42    ccc     H3   1104 0.13386900   1.008000   ; qtot 23.105406
 1105         h1     42    ccc     H4   1105 0.10146700   1.008000   ; qtot 23.206873
 1106         h2     42    ccc     H5   1106 0.10960400   1.008000   ; qtot 23.316477
 1107         os     42    ccc     O1   1107 -0.28650000  16.000000   ; qtot 23.029977
 1108         oh     42    ccc     O2   1108 -0.86012500  16.000000   ; qtot 22.169852
 1109         oh     42    ccc     O3   1109 -0.83772800  16.000000   ; qtot 21.332124
 1110         oh     42    ccc     O4   1110 -0.77449700  16.000000   ; qtot 20.557627
 1111         c3     42    ccc     C6   1111 0.37576500  12.010000   ; qtot 20.933392
 1112         ho     42    ccc     H6   1112 0.53656000   1.008000   ; qtot 21.469952
 1113         ho     42    ccc     H7   1113 0.49492100   1.008000   ; qtot 21.964873
 1114         ho     42    ccc     H8   1114 0.51297200   1.008000   ; qtot 22.477845
 1115         h1     42    ccc     H9   1115 0.05653400   1.008000   ; qtot 22.534379
 1116         h1     42    ccc    H10   1116 0.05653400   1.008000   ; qtot 22.590913
 1117         oh     42    ccc     O5   1117 -0.84113600  16.000000   ; qtot 21.749777
 1118         ho     42    ccc    H11   1118 0.51201600   1.008000   ; qtot 22.261793
 1119         os     42    ccc     O6   1119 -0.26013600  16.000000   ; qtot 22.001657
; residue   43 ccc rtp ccc q 0.0
 1120         c3     43    ccc     C1   1120 -0.33178800  12.010000   ; qtot 21.669869
 1121         c3     43    ccc     C2   1121 0.30606500  12.010000   ; qtot 21.975934
 1122         h1     43    ccc     H1   1122 0.11662300   1.008000   ; qtot 22.092557
 1123         h1     43    ccc     H2   1123 0.11526800   1.008000   ; qtot 22.207825
 1124         c3     43    ccc     C3   1124 0.15592700  12.010000   ; qtot 22.363752
 1125         c3     43    ccc     C4   1125 0.28383300  12.010000   ; qtot 22.647585
 1126         c3     43    ccc     C5   1126 0.32403300  12.010000   ; qtot 22.971618
 1127         h1     43    ccc     H3   1127 0.13386900   1.008000   ; qtot 23.105487
 1128         h1     43    ccc     H4   1128 0.10146700   1.008000   ; qtot 23.206954
 1129         h2     43    ccc     H5   1129 0.10960400   1.008000   ; qtot 23.316558
 1130         os     43    ccc     O1   1130 -0.28650000  16.000000   ; qtot 23.030058
 1131         oh     43    ccc     O2   1131 -0.86012500  16.000000   ; qtot 22.169933
 1132         oh     43    ccc     O3   1132 -0.83772800  16.000000   ; qtot 21.332205
 1133         oh     43    ccc     O4   1133 -0.77449700  16.000000   ; qtot 20.557708
 1134         c3     43    ccc     C6   1134 0.37576500  12.010000   ; qtot 20.933473
 1135         ho     43    ccc     H6   1135 0.53656000   1.008000   ; qtot 21.470033
 1136         ho     43    ccc     H7   1136 0.49492100   1.008000   ; qtot 21.964954
 1137         ho     43    ccc     H8   1137 0.51297200   1.008000   ; qtot 22.477926
 1138         h1     43    ccc     H9   1138 0.05653400   1.008000   ; qtot 22.534460
 1139         h1     43    ccc    H10   1139 0.05653400   1.008000   ; qtot 22.590994
 1140         oh     43    ccc     O5   1140 -0.84113600  16.000000   ; qtot 21.749858
 1141         ho     43    ccc    H11   1141 0.51201600   1.008000   ; qtot 22.261874
 1142         os     43    ccc     O6   1142 -0.26013600  16.000000   ; qtot 22.001738
; residue   44 ccc rtp ccc q 0.0
 1143         c3     44    ccc     C1   1143 -0.33178800  12.010000   ; qtot 21.669950
 1144         c3     44    ccc     C2   1144 0.30606500  12.010000   ; qtot 21.976015
 1145         h1     44    ccc     H1   1145 0.11662300   1.008000   ; qtot 22.092638
 1146         h1     44    ccc     H2   1146 0.11526800   1.008000   ; qtot 22.207906
 1147         c3     44    ccc     C3   1147 0.15592700  12.010000   ; qtot 22.363833
 1148         c3     44    ccc     C4   1148 0.28383300  12.010000   ; qtot 22.647666
 1149         c3     44    ccc     C5   1149 0.32403300  12.010000   ; qtot 22.971699
 1150         h1     44    ccc     H3   1150 0.13386900   1.008000   ; qtot 23.105568
 1151         h1     44    ccc     H4   1151 0.10146700   1.008000   ; qtot 23.207035
 1152         h2     44    ccc     H5   1152 0.10960400   1.008000   ; qtot 23.316639
 1153         os     44    ccc     O1   1153 -0.28650000  16.000000   ; qtot 23.030139
 1154         oh     44    ccc     O2   1154 -0.86012500  16.000000   ; qtot 22.170014
 1155         oh     44    ccc     O3   1155 -0.83772800  16.000000   ; qtot 21.332286
 1156         oh     44    ccc     O4   1156 -0.77449700  16.000000   ; qtot 20.557789
 1157         c3     44    ccc     C6   1157 0.37576500  12.010000   ; qtot 20.933554
 1158         ho     44    ccc     H6   1158 0.53656000   1.008000   ; qtot 21.470114
 1159         ho     44    ccc     H7   1159 0.49492100   1.008000   ; qtot 21.965035
 1160         ho     44    ccc     H8   1160 0.51297200   1.008000   ; qtot 22.478007
 1161         h1     44    ccc     H9   1161 0.05653400   1.008000   ; qtot 22.534541
 1162         h1     44    ccc    H10   1162 0.05653400   1.008000   ; qtot 22.591075
 1163         oh     44    ccc     O5   1163 -0.84113600  16.000000   ; qtot 21.749939
 1164         ho     44    ccc    H11   1164 0.51201600   1.008000   ; qtot 22.261955
 1165         os     44    ccc     O6   1165 -0.26013600  16.000000   ; qtot 22.001819
; residue   45 ccc rtp ccc q 0.0
 1166         c3     45    ccc     C1   1166 -0.33178800  12.010000   ; qtot 21.670031
 1167         c3     45    ccc     C2   1167 0.30606500  12.010000   ; qtot 21.976096
 1168         h1     45    ccc     H1   1168 0.11662300   1.008000   ; qtot 22.092719
 1169         h1     45    ccc     H2   1169 0.11526800   1.008000   ; qtot 22.207987
 1170         c3     45    ccc     C3   1170 0.15592700  12.010000   ; qtot 22.363914
 1171         c3     45    ccc     C4   1171 0.28383300  12.010000   ; qtot 22.647747
 1172         c3     45    ccc     C5   1172 0.32403300  12.010000   ; qtot 22.971780
 1173         h1     45    ccc     H3   1173 0.13386900   1.008000   ; qtot 23.105649
 1174         h1     45    ccc     H4   1174 0.10146700   1.008000   ; qtot 23.207116
 1175         h2     45    ccc     H5   1175 0.10960400   1.008000   ; qtot 23.316720
 1176         os     45    ccc     O1   1176 -0.28650000  16.000000   ; qtot 23.030220
 1177         oh     45    ccc     O2   1177 -0.86012500  16.000000   ; qtot 22.170095
 1178         oh     45    ccc     O3   1178 -0.83772800  16.000000   ; qtot 21.332367
 1179         oh     45    ccc     O4   1179 -0.77449700  16.000000   ; qtot 20.557870
 1180         c3     45    ccc     C6   1180 0.37576500  12.010000   ; qtot 20.933635
 1181         ho     45    ccc     H6   1181 0.53656000   1.008000   ; qtot 21.470195
 1182         ho     45    ccc     H7   1182 0.49492100   1.008000   ; qtot 21.965116
 1183         ho     45    ccc     H8   1183 0.51297200   1.008000   ; qtot 22.478088
 1184         h1     45    ccc     H9   1184 0.05653400   1.008000   ; qtot 22.534622
 1185         h1     45    ccc    H10   1185 0.05653400   1.008000   ; qtot 22.591156
 1186         oh     45    ccc     O5   1186 -0.84113600  16.000000   ; qtot 21.750020
 1187         ho     45    ccc    H11   1187 0.51201600   1.008000   ; qtot 22.262036
 1188         os     45    ccc     O6   1188 -0.26013600  16.000000   ; qtot 22.001900
; residue   46 ccc rtp ccc q 0.0
 1189         c3     46    ccc     C1   1189 -0.33178800  12.010000   ; qtot 21.670112
 1190         c3     46    ccc     C2   1190 0.30606500  12.010000   ; qtot 21.976177
 1191         h1     46    ccc     H1   1191 0.11662300   1.008000   ; qtot 22.092800
 1192         h1     46    ccc     H2   1192 0.11526800   1.008000   ; qtot 22.208068
 1193         c3     46    ccc     C3   1193 0.15592700  12.010000   ; qtot 22.363995
 1194         c3     46    ccc     C4   1194 0.28383300  12.010000   ; qtot 22.647828
 1195         c3     46    ccc     C5   1195 0.32403300  12.010000   ; qtot 22.971861
 1196         h1     46    ccc     H3   1196 0.13386900   1.008000   ; qtot 23.105730
 1197         h1     46    ccc     H4   1197 0.10146700   1.008000   ; qtot 23.207197
 1198         h2     46    ccc     H5   1198 0.10960400   1.008000   ; qtot 23.316801
 1199         os     46    ccc     O1   1199 -0.28650000  16.000000   ; qtot 23.030301
 1200         oh     46    ccc     O2   1200 -0.86012500  16.000000   ; qtot 22.170176
 1201         oh     46    ccc     O3   1201 -0.83772800  16.000000   ; qtot 21.332448
 1202         oh     46    ccc     O4   1202 -0.77449700  16.000000   ; qtot 20.557951
 1203         c3     46    ccc     C6   1203 0.37576500  12.010000   ; qtot 20.933716
 1204         ho     46    ccc     H6   1204 0.53656000   1.008000   ; qtot 21.470276
 1205         ho     46    ccc     H7   1205 0.49492100   1.008000   ; qtot 21.965197
 1206         ho     46    ccc     H8   1206 0.51297200   1.008000   ; qtot 22.478169
 1207         h1     46    ccc     H9   1207 0.05653400   1.008000   ; qtot 22.534703
 1208         h1     46    ccc    H10   1208 0.05653400   1.008000   ; qtot 22.591237
 1209         oh     46    ccc     O5   1209 -0.84113600  16.000000   ; qtot 21.750101
 1210         ho     46    ccc    H11   1210 0.51201600   1.008000   ; qtot 22.262117
 1211         os     46    ccc     O6   1211 -0.26013600  16.000000   ; qtot 22.001981

[ bonds ]
;    ai     aj funct         c0         c1         c2         c3
      1      2     1   0.15110 237065.440000
      1      5     1   0.15110 237065.440000
      1      8     1   0.15110 237065.440000
      2     14     1   0.15375 251793.120000
      5     17     1   0.15375 251793.120000
      8     11     1   0.15375 251793.120000
     11     23     1   0.15375 251793.120000
     14     26     1   0.15375 251793.120000
     17     20     1   0.15375 251793.120000
     20     58     1   0.14316 258236.480000
     23     88     1   0.14316 258236.480000
     26    118     1   0.14316 258236.480000
     30     31     1   0.15110 237065.440000
     30     34     1   0.15110 237065.440000
     30     37     1   0.15110 237065.440000
     31     43     1   0.15375 251793.120000
     34     46     1   0.15375 251793.120000
     37     40     1   0.15375 251793.120000
     40     49     1   0.15375 251793.120000
     43     55     1   0.15375 251793.120000
     46     52     1   0.15375 251793.120000
     49     58     1   0.14316 258236.480000
     52    148     1   0.14316 258236.480000
     55    178     1   0.14316 258236.480000
     60     61     1   0.15110 237065.440000
     60     64     1   0.15110 237065.440000
     60     67     1   0.15110 237065.440000
     61     73     1   0.15375 251793.120000
     64     76     1   0.15375 251793.120000
     67     70     1   0.15375 251793.120000
     70     79     1   0.15375 251793.120000
     73     85     1   0.15375 251793.120000
     76     82     1   0.15375 251793.120000
     79     88     1   0.14316 258236.480000
     82    208     1   0.14316 258236.480000
     85    238     1   0.14316 258236.480000
     90     91     1   0.15110 237065.440000
     90     94     1   0.15110 237065.440000
     90     97     1   0.15110 237065.440000
     91    103     1   0.15375 251793.120000
     94    106     1   0.15375 251793.120000
     97    100     1   0.15375 251793.120000
    100    109     1   0.15375 251793.120000
    103    115     1   0.15375 251793.120000
    106    112     1   0.15375 251793.120000
    109    118     1   0.14316 258236.480000
    112    268     1   0.14316 258236.480000
    115    298     1   0.14316 258236.480000
    120    121     1   0.15110 237065.440000
    120    124     1   0.15110 237065.440000
    120    127     1   0.15110 237065.440000
    121    133     1   0.15375 251793.120000
    124    136     1   0.15375 251793.120000
    127    130     1   0.15375 251793.120000
    130    139     1   0.15375 251793.120000
    133    145     1   0.15375 251793.120000
    136    142     1   0.15375 251793.120000
    139    148     1   0.14316 258236.480000
    142    328     1   0.14316 258236.480000
    145    358     1   0.14316 258236.480000
    150    151     1   0.15110 237065.440000
    150    154     1   0.15110 237065.440000
    150    157     1   0.15110 237065.440000
    151    163     1   0.15375 251793.120000
    154    166     1   0.15375 251793.120000
    157    160     1   0.15375 251793.120000
    160    169     1   0.15375 251793.120000
    163    175     1   0.15375 251793.120000
    166    172     1   0.15375 251793.120000
    169    178     1   0.14316 258236.480000
    172    388     1   0.14316 258236.480000
    175    418     1   0.14316 258236.480000
    180    181     1   0.15110 237065.440000
    180    184     1   0.15110 237065.440000
    180    187     1   0.15110 237065.440000
    181    193     1   0.15375 251793.120000
    184    196     1   0.15375 251793.120000
    187    190     1   0.15375 251793.120000
    190    199     1   0.15375 251793.120000
    193    205     1   0.15375 251793.120000
    196    202     1   0.15375 251793.120000
    199    208     1   0.14316 258236.480000
    202    448     1   0.14316 258236.480000
    205    478     1   0.14316 258236.480000
    210    211     1   0.15110 237065.440000
    210    214     1   0.15110 237065.440000
    210    217     1   0.15110 237065.440000
    211    223     1   0.15375 251793.120000
    214    226     1   0.15375 251793.120000
    217    220     1   0.15375 251793.120000
    220    229     1   0.15375 251793.120000
    223    235     1   0.15375 251793.120000
    226    232     1   0.15375 251793.120000
    229    238     1   0.14316 258236.480000
    232    508     1   0.14316 258236.480000
    235    538     1   0.14316 258236.480000
    240    241     1   0.15110 237065.440000
    240    244     1   0.15110 237065.440000
    240    247     1   0.15110 237065.440000
    241    253     1   0.15375 251793.120000
    244    256     1   0.15375 251793.120000
    247    250     1   0.15375 251793.120000
    250    259     1   0.15375 251793.120000
    253    265     1   0.15375 251793.120000
    256    262     1   0.15375 251793.120000
    259    268     1   0.14316 258236.480000
    262    568     1   0.14316 258236.480000
    265    598     1   0.14316 258236.480000
    270    271     1   0.15110 237065.440000
    270    274     1   0.15110 237065.440000
    270    277     1   0.15110 237065.440000
    271    283     1   0.15375 251793.120000
    274    286     1   0.15375 251793.120000
    277    280     1   0.15375 251793.120000
    280    289     1   0.15375 251793.120000
    283    295     1   0.15375 251793.120000
    286    292     1   0.15375 251793.120000
    289    298     1   0.14316 258236.480000
    292    628     1   0.14316 258236.480000
    295    658     1   0.14316 258236.480000
    300    301     1   0.15110 237065.440000
    300    304     1   0.15110 237065.440000
    300    307     1   0.15110 237065.440000
    301    313     1   0.15375 251793.120000
    304    316     1   0.15375 251793.120000
    307    310     1   0.15375 251793.120000
    310    319     1   0.15375 251793.120000
    313    325     1   0.15375 251793.120000
    316    322     1   0.15375 251793.120000
    319    328     1   0.14316 258236.480000
    322    670     1   0.14316 258236.480000
    325    693     1   0.14316 258236.480000
    330    331     1   0.15110 237065.440000
    330    334     1   0.15110 237065.440000
    330    337     1   0.15110 237065.440000
    331    343     1   0.15375 251793.120000
    334    346     1   0.15375 251793.120000
    337    340     1   0.15375 251793.120000
    340    349     1   0.15375 251793.120000
    343    355     1   0.15375 251793.120000
    346    352     1   0.15375 251793.120000
    349    358     1   0.14316 258236.480000
    352    716     1   0.14316 258236.480000
    355    739     1   0.14316 258236.480000
    360    361     1   0.15110 237065.440000
    360    364     1   0.15110 237065.440000
    360    367     1   0.15110 237065.440000
    361    373     1   0.15375 251793.120000
    364    376     1   0.15375 251793.120000
    367    370     1   0.15375 251793.120000
    370    379     1   0.15375 251793.120000
    373    385     1   0.15375 251793.120000
    376    382     1   0.15375 251793.120000
    379    388     1   0.14316 258236.480000
    382    762     1   0.14316 258236.480000
    385    785     1   0.14316 258236.480000
    390    391     1   0.15110 237065.440000
    390    394     1   0.15110 237065.440000
    390    397     1   0.15110 237065.440000
    391    403     1   0.15375 251793.120000
    394    406     1   0.15375 251793.120000
    397    400     1   0.15375 251793.120000
    400    409     1   0.15375 251793.120000
    403    415     1   0.15375 251793.120000
    406    412     1   0.15375 251793.120000
    409    418     1   0.14316 258236.480000
    412    808     1   0.14316 258236.480000
    415    831     1   0.14316 258236.480000
    420    421     1   0.15110 237065.440000
    420    424     1   0.15110 237065.440000
    420    427     1   0.15110 237065.440000
    421    433     1   0.15375 251793.120000
    424    436     1   0.15375 251793.120000
    427    430     1   0.15375 251793.120000
    430    439     1   0.15375 251793.120000
    433    445     1   0.15375 251793.120000
    436    442     1   0.15375 251793.120000
    439    448     1   0.14316 258236.480000
    442    854     1   0.14316 258236.480000
    445    877     1   0.14316 258236.480000
    450    451     1   0.15110 237065.440000
    450    454     1   0.15110 237065.440000
    450    457     1   0.15110 237065.440000
    451    463     1   0.15375 251793.120000
    454    466     1   0.15375 251793.120000
    457    460     1   0.15375 251793.120000
    460    469     1   0.15375 251793.120000
    463    475     1   0.15375 251793.120000
    466    472     1   0.15375 251793.120000
    469    478     1   0.14316 258236.480000
    472    900     1   0.14316 258236.480000
    475    923     1   0.14316 258236.480000
    480    481     1   0.15110 237065.440000
    480    484     1   0.15110 237065.440000
    480    487     1   0.15110 237065.440000
    481    493     1   0.15375 251793.120000
    484    496     1   0.15375 251793.120000
    487    490     1   0.15375 251793.120000
    490    499     1   0.15375 251793.120000
    493    505     1   0.15375 251793.120000
    496    502     1   0.15375 251793.120000
    499    508     1   0.14316 258236.480000
    502    946     1   0.14316 258236.480000
    505    969     1   0.14316 258236.480000
    510    511     1   0.15110 237065.440000
    510    514     1   0.15110 237065.440000
    510    517     1   0.15110 237065.440000
    511    523     1   0.15375 251793.120000
    514    526     1   0.15375 251793.120000
    517    520     1   0.15375 251793.120000
    520    529     1   0.15375 251793.120000
    523    535     1   0.15375 251793.120000
    526    532     1   0.15375 251793.120000
    529    538     1   0.14316 258236.480000
    532    992     1   0.14316 258236.480000
    535   1015     1   0.14316 258236.480000
    540    541     1   0.15110 237065.440000
    540    544     1   0.15110 237065.440000
    540    547     1   0.15110 237065.440000
    541    553     1   0.15375 251793.120000
    544    556     1   0.15375 251793.120000
    547    550     1   0.15375 251793.120000
    550    559     1   0.15375 251793.120000
    553    565     1   0.15375 251793.120000
    556    562     1   0.15375 251793.120000
    559    568     1   0.14316 258236.480000
    562   1038     1   0.14316 258236.480000
    565   1061     1   0.14316 258236.480000
    570    571     1   0.15110 237065.440000
    570    574     1   0.15110 237065.440000
    570    577     1   0.15110 237065.440000
    571    583     1   0.15375 251793.120000
    574    586     1   0.15375 251793.120000
    577    580     1   0.15375 251793.120000
    580    589     1   0.15375 251793.120000
    583    595     1   0.15375 251793.120000
    586    592     1   0.15375 251793.120000
    589    598     1   0.14316 258236.480000
    592   1084     1   0.14316 258236.480000
    595   1107     1   0.14316 258236.480000
    600    601     1   0.15110 237065.440000
    600    604     1   0.15110 237065.440000
    600    607     1   0.15110 237065.440000
    601    613     1   0.15375 251793.120000
    604    616     1   0.15375 251793.120000
    607    610     1   0.15375 251793.120000
    610    619     1   0.15375 251793.120000
    613    625     1   0.15375 251793.120000
    616    622     1   0.15375 251793.120000
    619    628     1   0.14316 258236.480000
    622   1130     1   0.14316 258236.480000
    625   1153     1   0.14316 258236.480000
    630    631     1   0.15110 237065.440000
    630    634     1   0.15110 237065.440000
    630    637     1   0.15110 237065.440000
    631    643     1   0.15375 251793.120000
    634    646     1   0.15375 251793.120000
    637    640     1   0.15375 251793.120000
    640    649     1   0.15375 251793.120000
    643    655     1   0.15375 251793.120000
    646    652     1   0.15375 251793.120000
    649    658     1   0.14316 258236.480000
    652   1176     1   0.14316 258236.480000
    655   1199     1   0.14316 258236.480000
    660    661     1   0.15375 251793.120000
    660    674     1   0.15375 251793.120000
    660    682     1   0.14316 258236.480000
    661    664     1   0.15375 251793.120000
    661    673     1   0.14233 265014.560000
    664    665     1   0.15375 251793.120000
    664    672     1   0.14233 265014.560000
    665    666     1   0.15375 251793.120000
    665    671     1   0.14233 265014.560000
    666    670     1   0.14316 258236.480000
    666    682     1   0.14316 258236.480000
    674    680     1   0.14233 265014.560000
    683    684     1   0.15375 251793.120000
    683    697     1   0.15375 251793.120000
    683    705     1   0.14316 258236.480000
    684    687     1   0.15375 251793.120000
    684    696     1   0.14233 265014.560000
    687    688     1   0.15375 251793.120000
    687    695     1   0.14233 265014.560000
    688    689     1   0.15375 251793.120000
    688    694     1   0.14233 265014.560000
    689    693     1   0.14316 258236.480000
    689    705     1   0.14316 258236.480000
    697    703     1   0.14233 265014.560000
    706    707     1   0.15375 251793.120000
    706    720     1   0.15375 251793.120000
    706    728     1   0.14316 258236.480000
    707    710     1   0.15375 251793.120000
    707    719     1   0.14233 265014.560000
    710    711     1   0.15375 251793.120000
    710    718     1   0.14233 265014.560000
    711    712     1   0.15375 251793.120000
    711    717     1   0.14233 265014.560000
    712    716     1   0.14316 258236.480000
    712    728     1   0.14316 258236.480000
    720    726     1   0.14233 265014.560000
    729    730     1   0.15375 251793.120000
    729    743     1   0.15375 251793.120000
    729    751     1   0.14316 258236.480000
    730    733     1   0.15375 251793.120000
    730    742     1   0.14233 265014.560000
    733    734     1   0.15375 251793.120000
    733    741     1   0.14233 265014.560000
    734    735     1   0.15375 251793.120000
    734    740     1   0.14233 265014.560000
    735    739     1   0.14316 258236.480000
    735    751     1   0.14316 258236.480000
    743    749     1   0.14233 265014.560000
    752    753     1   0.15375 251793.120000
    752    766     1   0.15375 251793.120000
    752    774     1   0.14316 258236.480000
    753    756     1   0.15375 251793.120000
    753    765     1   0.14233 265014.560000
    756    757     1   0.15375 251793.120000
    756    764     1   0.14233 265014.560000
    757    758     1   0.15375 251793.120000
    757    763     1   0.14233 265014.560000
    758    762     1   0.14316 258236.480000
    758    774     1   0.14316 258236.480000
    766    772     1   0.14233 265014.560000
    775    776     1   0.15375 251793.120000
    775    789     1   0.15375 251793.120000
    775    797     1   0.14316 258236.480000
    776    779     1   0.15375 251793.120000
    776    788     1   0.14233 265014.560000
    779    780     1   0.15375 251793.120000
    779    787     1   0.14233 265014.560000
    780    781     1   0.15375 251793.120000
    780    786     1   0.14233 265014.560000
    781    785     1   0.14316 258236.480000
    781    797     1   0.14316 258236.480000
    789    795     1   0.14233 265014.560000
    798    799     1   0.15375 251793.120000
    798    812     1   0.15375 251793.120000
    798    820     1   0.14316 258236.480000
    799    802     1   0.15375 251793.120000
    799    811     1   0.14233 265014.560000
    802    803     1   0.15375 251793.120000
    802    810     1   0.14233 265014.560000
    803    804     1   0.15375 251793.120000
    803    809     1   0.14233 265014.560000
    804    808     1   0.14316 258236.480000
    804    820     1   0.14316 258236.480000
    812    818     1   0.14233 265014.560000
    821    822     1   0.15375 251793.120000
    821    835     1   0.15375 251793.120000
    821    843     1   0.14316 258236.480000
    822    825     1   0.15375 251793.120000
    822    834     1   0.14233 265014.560000
    825    826     1   0.15375 251793.120000
    825    833     1   0.14233 265014.560000
    826    827     1   0.15375 251793.120000
    826    832     1   0.14233 265014.560000
    827    831     1   0.14316 258236.480000
    827    843     1   0.14316 258236.480000
    835    841     1   0.14233 265014.560000
    844    845     1   0.15375 251793.120000
    844    858     1   0.15375 251793.120000
    844    866     1   0.14316 258236.480000
    845    848     1   0.15375 251793.120000
    845    857     1   0.14233 265014.560000
    848    849     1   0.15375 251793.120000
    848    856     1   0.14233 265014.560000
    849    850     1   0.15375 251793.120000
    849    855     1   0.14233 265014.560000
    850    854     1   0.14316 258236.480000
    850    866     1   0.14316 258236.480000
    858    864     1   0.14233 265014.560000
    867    868     1   0.15375 251793.120000
    867    881     1   0.15375 251793.120000
    867    889     1   0.14316 258236.480000
    868    871     1   0.15375 251793.120000
    868    880     1   0.14233 265014.560000
    871    872     1   0.15375 251793.120000
    871    879     1   0.14233 265014.560000
    872    873     1   0.15375 251793.120000
    872    878     1   0.14233 265014.560000
    873    877     1   0.14316 258236.480000
    873    889     1   0.14316 258236.480000
    881    887     1   0.14233 265014.560000
    890    891     1   0.15375 251793.120000
    890    904     1   0.15375 251793.120000
    890    912     1   0.14316 258236.480000
    891    894     1   0.15375 251793.120000
    891    903     1   0.14233 265014.560000
    894    895     1   0.15375 251793.120000
    894    902     1   0.14233 265014.560000
    895    896     1   0.15375 251793.120000
    895    901     1   0.14233 265014.560000
    896    900     1   0.14316 258236.480000
    896    912     1   0.14316 258236.480000
    904    910     1   0.14233 265014.560000
    913    914     1   0.15375 251793.120000
    913    927     1   0.15375 251793.120000
    913    935     1   0.14316 258236.480000
    914    917     1   0.15375 251793.120000
    914    926     1   0.14233 265014.560000
    917    918     1   0.15375 251793.120000
    917    925     1   0.14233 265014.560000
    918    919     1   0.15375 251793.120000
    918    924     1   0.14233 265014.560000
    919    923     1   0.14316 258236.480000
    919    935     1   0.14316 258236.480000
    927    933     1   0.14233 265014.560000
    936    937     1   0.15375 251793.120000
    936    950     1   0.15375 251793.120000
    936    958     1   0.14316 258236.480000
    937    940     1   0.15375 251793.120000
    937    949     1   0.14233 265014.560000
    940    941     1   0.15375 251793.120000
    940    948     1   0.14233 265014.560000
    941    942     1   0.15375 251793.120000
    941    947     1   0.14233 265014.560000
    942    946     1   0.14316 258236.480000
    942    958     1   0.14316 258236.480000
    950    956     1   0.14233 265014.560000
    959    960     1   0.15375 251793.120000
    959    973     1   0.15375 251793.120000
    959    981     1   0.14316 258236.480000
    960    963     1   0.15375 251793.120000
    960    972     1   0.14233 265014.560000
    963    964     1   0.15375 251793.120000
    963    971     1   0.14233 265014.560000
    964    965     1   0.15375 251793.120000
    964    970     1   0.14233 265014.560000
    965    969     1   0.14316 258236.480000
    965    981     1   0.14316 258236.480000
    973    979     1   0.14233 265014.560000
    982    983     1   0.15375 251793.120000
    982    996     1   0.15375 251793.120000
    982   1004     1   0.14316 258236.480000
    983    986     1   0.15375 251793.120000
    983    995     1   0.14233 265014.560000
    986    987     1   0.15375 251793.120000
    986    994     1   0.14233 265014.560000
    987    988     1   0.15375 251793.120000
    987    993     1   0.14233 265014.560000
    988    992     1   0.14316 258236.480000
    988   1004     1   0.14316 258236.480000
    996   1002     1   0.14233 265014.560000
   1005   1006     1   0.15375 251793.120000
   1005   1019     1   0.15375 251793.120000
   1005   1027     1   0.14316 258236.480000
   1006   1009     1   0.15375 251793.120000
   1006   1018     1   0.14233 265014.560000
   1009   1010     1   0.15375 251793.120000
   1009   1017     1   0.14233 265014.560000
   1010   1011     1   0.15375 251793.120000
   1010   1016     1   0.14233 265014.560000
   1011   1015     1   0.14316 258236.480000
   1011   1027     1   0.14316 258236.480000
   1019   1025     1   0.14233 265014.560000
   1028   1029     1   0.15375 251793.120000
   1028   1042     1   0.15375 251793.120000
   1028   1050     1   0.14316 258236.480000
   1029   1032     1   0.15375 251793.120000
   1029   1041     1   0.14233 265014.560000
   1032   1033     1   0.15375 251793.120000
   1032   1040     1   0.14233 265014.560000
   1033   1034     1   0.15375 251793.120000
   1033   1039     1   0.14233 265014.560000
   1034   1038     1   0.14316 258236.480000
   1034   1050     1   0.14316 258236.480000
   1042   1048     1   0.14233 265014.560000
   1051   1052     1   0.15375 251793.120000
   1051   1065     1   0.15375 251793.120000
   1051   1073     1   0.14316 258236.480000
   1052   1055     1   0.15375 251793.120000
   1052   1064     1   0.14233 265014.560000
   1055   1056     1   0.15375 251793.120000
   1055   1063     1   0.14233 265014.560000
   1056   1057     1   0.15375 251793.120000
   1056   1062     1   0.14233 265014.560000
   1057   1061     1   0.14316 258236.480000
   1057   1073     1   0.14316 258236.480000
   1065   1071     1   0.14233 265014.560000
   1074   1075     1   0.15375 251793.120000
   1074   1088     1   0.15375 251793.120000
   1074   1096     1   0.14316 258236.480000
   1075   1078     1   0.15375 251793.120000
   1075   1087     1   0.14233 265014.560000
   1078   1079     1   0.15375 251793.120000
   1078   1086     1   0.14233 265014.560000
   1079   1080     1   0.15375 251793.120000
   1079   1085     1   0.14233 265014.560000
   1080   1084     1   0.14316 258236.480000
   1080   1096     1   0.14316 258236.480000
   1088   1094     1   0.14233 265014.560000
   1097   1098     1   0.15375 251793.120000
   1097   1111     1   0.15375 251793.120000
   1097   1119     1   0.14316 258236.480000
   1098   1101     1   0.15375 251793.120000
   1098   1110     1   0.14233 265014.560000
   1101   1102     1   0.15375 251793.120000
   1101   1109     1   0.14233 265014.560000
   1102   1103     1   0.15375 251793.120000
   1102   1108     1   0.14233 265014.560000
   1103   1107     1   0.14316 258236.480000
   1103   1119     1   0.14316 258236.480000
   1111   1117     1   0.14233 265014.560000
   1120   1121     1   0.15375 251793.120000
   1120   1134     1   0.15375 251793.120000
   1120   1142     1   0.14316 258236.480000
   1121   1124     1   0.15375 251793.120000
   1121   1133     1   0.14233 265014.560000
   1124   1125     1   0.15375 251793.120000
   1124   1132     1   0.14233 265014.560000
   1125   1126     1   0.15375 251793.120000
   1125   1131     1   0.14233 265014.560000
   1126   1130     1   0.14316 258236.480000
   1126   1142     1   0.14316 258236.480000
   1134   1140     1   0.14233 265014.560000
   1143   1144     1   0.15375 251793.120000
   1143   1157     1   0.15375 251793.120000
   1143   1165     1   0.14316 258236.480000
   1144   1147     1   0.15375 251793.120000
   1144   1156     1   0.14233 265014.560000
   1147   1148     1   0.15375 251793.120000
   1147   1155     1   0.14233 265014.560000
   1148   1149     1   0.15375 251793.120000
   1148   1154     1   0.14233 265014.560000
   1149   1153     1   0.14316 258236.480000
   1149   1165     1   0.14316 258236.480000
   1157   1163     1   0.14233 265014.560000
   1166   1167     1   0.15375 251793.120000
   1166   1180     1   0.15375 251793.120000
   1166   1188     1   0.14316 258236.480000
   1167   1170     1   0.15375 251793.120000
   1167   1179     1   0.14233 265014.560000
   1170   1171     1   0.15375 251793.120000
   1170   1178     1   0.14233 265014.560000
   1171   1172     1   0.15375 251793.120000
   1171   1177     1   0.14233 265014.560000
   1172   1176     1   0.14316 258236.480000
   1172   1188     1   0.14316 258236.480000
   1180   1186     1   0.14233 265014.560000
   1189   1190     1   0.15375 251793.120000
   1189   1203     1   0.15375 251793.120000
   1189   1211     1   0.14316 258236.480000
   1190   1193     1   0.15375 251793.120000
   1190   1202     1   0.14233 265014.560000
   1193   1194     1   0.15375 251793.120000
   1193   1201     1   0.14233 265014.560000
   1194   1195     1   0.15375 251793.120000
   1194   1200     1   0.14233 265014.560000
   1195   1199     1   0.14316 258236.480000
   1195   1211     1   0.14316 258236.480000
   1203   1209     1   0.14233 265014.560000
      1     29     1   0.10304 312293.760000
      2      3     1   0.10910 283424.160000
      2      4     1   0.10910 283424.160000
      5      6     1   0.10910 283424.160000
      5      7     1   0.10910 283424.160000
      8      9     1   0.10910 283424.160000
      8     10     1   0.10910 283424.160000
     11     12     1   0.10969 276646.080000
     11     13     1   0.10969 276646.080000
     14     15     1   0.10969 276646.080000
     14     16     1   0.10969 276646.080000
     17     18     1   0.10969 276646.080000
     17     19     1   0.10969 276646.080000
     20     21     1   0.10969 276646.080000
     20     22     1   0.10969 276646.080000
     23     24     1   0.10969 276646.080000
     23     25     1   0.10969 276646.080000
     26     27     1   0.10969 276646.080000
     26     28     1   0.10969 276646.080000
     30     59     1   0.10304 312293.760000
     31     32     1   0.10910 283424.160000
     31     33     1   0.10910 283424.160000
     34     35     1   0.10910 283424.160000
     34     36     1   0.10910 283424.160000
     37     38     1   0.10910 283424.160000
     37     39     1   0.10910 283424.160000
     40     41     1   0.10969 276646.080000
     40     42     1   0.10969 276646.080000
     43     44     1   0.10969 276646.080000
     43     45     1   0.10969 276646.080000
     46     47     1   0.10969 276646.080000
     46     48     1   0.10969 276646.080000
     49     50     1   0.10969 276646.080000
     49     51     1   0.10969 276646.080000
     52     53     1   0.10969 276646.080000
     52     54     1   0.10969 276646.080000
     55     56     1   0.10969 276646.080000
     55     57     1   0.10969 276646.080000
     60     89     1   0.10304 312293.760000
     61     62     1   0.10910 283424.160000
     61     63     1   0.10910 283424.160000
     64     65     1   0.10910 283424.160000
     64     66     1   0.10910 283424.160000
     67     68     1   0.10910 283424.160000
     67     69     1   0.10910 283424.160000
     70     71     1   0.10969 276646.080000
     70     72     1   0.10969 276646.080000
     73     74     1   0.10969 276646.080000
     73     75     1   0.10969 276646.080000
     76     77     1   0.10969 276646.080000
     76     78     1   0.10969 276646.080000
     79     80     1   0.10969 276646.080000
     79     81     1   0.10969 276646.080000
     82     83     1   0.10969 276646.080000
     82     84     1   0.10969 276646.080000
     85     86     1   0.10969 276646.080000
     85     87     1   0.10969 276646.080000
     90    119     1   0.10304 312293.760000
     91     92     1   0.10910 283424.160000
     91     93     1   0.10910 283424.160000
     94     95     1   0.10910 283424.160000
     94     96     1   0.10910 283424.160000
     97     98     1   0.10910 283424.160000
     97     99     1   0.10910 283424.160000
    100    101     1   0.10969 276646.080000
    100    102     1   0.10969 276646.080000
    103    104     1   0.10969 276646.080000
    103    105     1   0.10969 276646.080000
    106    107     1   0.10969 276646.080000
    106    108     1   0.10969 276646.080000
    109    110     1   0.10969 276646.080000
    109    111     1   0.10969 276646.080000
    112    113     1   0.10969 276646.080000
    112    114     1   0.10969 276646.080000
    115    116     1   0.10969 276646.080000
    115    117     1   0.10969 276646.080000
    120    149     1   0.10304 312293.760000
    121    122     1   0.10910 283424.160000
    121    123     1   0.10910 283424.160000
    124    125     1   0.10910 283424.160000
    124    126     1   0.10910 283424.160000
    127    128     1   0.10910 283424.160000
    127    129     1   0.10910 283424.160000
    130    131     1   0.10969 276646.080000
    130    132     1   0.10969 276646.080000
    133    134     1   0.10969 276646.080000
    133    135     1   0.10969 276646.080000
    136    137     1   0.10969 276646.080000
    136    138     1   0.10969 276646.080000
    139    140     1   0.10969 276646.080000
    139    141     1   0.10969 276646.080000
    142    143     1   0.10969 276646.080000
    142    144     1   0.10969 276646.080000
    145    146     1   0.10969 276646.080000
    145    147     1   0.10969 276646.080000
    150    179     1   0.10304 312293.760000
    151    152     1   0.10910 283424.160000
    151    153     1   0.10910 283424.160000
    154    155     1   0.10910 283424.160000
    154    156     1   0.10910 283424.160000
    157    158     1   0.10910 283424.160000
    157    159     1   0.10910 283424.160000
    160    161     1   0.10969 276646.080000
    160    162     1   0.10969 276646.080000
    163    164     1   0.10969 276646.080000
    163    165     1   0.10969 276646.080000
    166    167     1   0.10969 276646.080000
    166    168     1   0.10969 276646.080000
    169    170     1   0.10969 276646.080000
    169    171     1   0.10969 276646.080000
    172    173     1   0.10969 276646.080000
    172    174     1   0.10969 276646.080000
    175    176     1   0.10969 276646.080000
    175    177     1   0.10969 276646.080000
    180    209     1   0.10304 312293.760000
    181    182     1   0.10910 283424.160000
    181    183     1   0.10910 283424.160000
    184    185     1   0.10910 283424.160000
    184    186     1   0.10910 283424.160000
    187    188     1   0.10910 283424.160000
    187    189     1   0.10910 283424.160000
    190    191     1   0.10969 276646.080000
    190    192     1   0.10969 276646.080000
    193    194     1   0.10969 276646.080000
    193    195     1   0.10969 276646.080000
    196    197     1   0.10969 276646.080000
    196    198     1   0.10969 276646.080000
    199    200     1   0.10969 276646.080000
    199    201     1   0.10969 276646.080000
    202    203     1   0.10969 276646.080000
    202    204     1   0.10969 276646.080000
    205    206     1   0.10969 276646.080000
    205    207     1   0.10969 276646.080000
    210    239     1   0.10304 312293.760000
    211    212     1   0.10910 283424.160000
    211    213     1   0.10910 283424.160000
    214    215     1   0.10910 283424.160000
    214    216     1   0.10910 283424.160000
    217    218     1   0.10910 283424.160000
    217    219     1   0.10910 283424.160000
    220    221     1   0.10969 276646.080000
    220    222     1   0.10969 276646.080000
    223    224     1   0.10969 276646.080000
    223    225     1   0.10969 276646.080000
    226    227     1   0.10969 276646.080000
    226    228     1   0.10969 276646.080000
    229    230     1   0.10969 276646.080000
    229    231     1   0.10969 276646.080000
    232    233     1   0.10969 276646.080000
    232    234     1   0.10969 276646.080000
    235    236     1   0.10969 276646.080000
    235    237     1   0.10969 276646.080000
    240    269     1   0.10304 312293.760000
    241    242     1   0.10910 283424.160000
    241    243     1   0.10910 283424.160000
    244    245     1   0.10910 283424.160000
    244    246     1   0.10910 283424.160000
    247    248     1   0.10910 283424.160000
    247    249     1   0.10910 283424.160000
    250    251     1   0.10969 276646.080000
    250    252     1   0.10969 276646.080000
    253    254     1   0.10969 276646.080000
    253    255     1   0.10969 276646.080000
    256    257     1   0.10969 276646.080000
    256    258     1   0.10969 276646.080000
    259    260     1   0.10969 276646.080000
    259    261     1   0.10969 276646.080000
    262    263     1   0.10969 276646.080000
    262    264     1   0.10969 276646.080000
    265    266     1   0.10969 276646.080000
    265    267     1   0.10969 276646.080000
    270    299     1   0.10304 312293.760000
    271    272     1   0.10910 283424.160000
    271    273     1   0.10910 283424.160000
    274    275     1   0.10910 283424.160000
    274    276     1   0.10910 283424.160000
    277    278     1   0.10910 283424.160000
    277    279     1   0.10910 283424.160000
    280    281     1   0.10969 276646.080000
    280    282     1   0.10969 276646.080000
    283    284     1   0.10969 276646.080000
    283    285     1   0.10969 276646.080000
    286    287     1   0.10969 276646.080000
    286    288     1   0.10969 276646.080000
    289    290     1   0.10969 276646.080000
    289    291     1   0.10969 276646.080000
    292    293     1   0.10969 276646.080000
    292    294     1   0.10969 276646.080000
    295    296     1   0.10969 276646.080000
    295    297     1   0.10969 276646.080000
    300    329     1   0.10304 312293.760000
    301    302     1   0.10910 283424.160000
    301    303     1   0.10910 283424.160000
    304    305     1   0.10910 283424.160000
    304    306     1   0.10910 283424.160000
    307    308     1   0.10910 283424.160000
    307    309     1   0.10910 283424.160000
    310    311     1   0.10969 276646.080000
    310    312     1   0.10969 276646.080000
    313    314     1   0.10969 276646.080000
    313    315     1   0.10969 276646.080000
    316    317     1   0.10969 276646.080000
    316    318     1   0.10969 276646.080000
    319    320     1   0.10969 276646.080000
    319    321     1   0.10969 276646.080000
    322    323     1   0.10969 276646.080000
    322    324     1   0.10969 276646.080000
    325    326     1   0.10969 276646.080000
    325    327     1   0.10969 276646.080000
    330    359     1   0.10304 312293.760000
    331    332     1   0.10910 283424.160000
    331    333     1   0.10910 283424.160000
    334    335     1   0.10910 283424.160000
    334    336     1   0.10910 283424.160000
    337    338     1   0.10910 283424.160000
    337    339     1   0.10910 283424.160000
    340    341     1   0.10969 276646.080000
    340    342     1   0.10969 276646.080000
    343    344     1   0.10969 276646.080000
    343    345     1   0.10969 276646.080000
    346    347     1   0.10969 276646.080000
    346    348     1   0.10969 276646.080000
    349    350     1   0.10969 276646.080000
    349    351     1   0.10969 276646.080000
    352    353     1   0.10969 276646.080000
    352    354     1   0.10969 276646.080000
    355    356     1   0.10969 276646.080000
    355    357     1   0.10969 276646.080000
    360    389     1   0.10304 312293.760000
    361    362     1   0.10910 283424.160000
    361    363     1   0.10910 283424.160000
    364    365     1   0.10910 283424.160000
    364    366     1   0.10910 283424.160000
    367    368     1   0.10910 283424.160000
    367    369     1   0.10910 283424.160000
    370    371     1   0.10969 276646.080000
    370    372     1   0.10969 276646.080000
    373    374     1   0.10969 276646.080000
    373    375     1   0.10969 276646.080000
    376    377     1   0.10969 276646.080000
    376    378     1   0.10969 276646.080000
    379    380     1   0.10969 276646.080000
    379    381     1   0.10969 276646.080000
    382    383     1   0.10969 276646.080000
    382    384     1   0.10969 276646.080000
    385    386     1   0.10969 276646.080000
    385    387     1   0.10969 276646.080000
    390    419     1   0.10304 312293.760000
    391    392     1   0.10910 283424.160000
    391    393     1   0.10910 283424.160000
    394    395     1   0.10910 283424.160000
    394    396     1   0.10910 283424.160000
    397    398     1   0.10910 283424.160000
    397    399     1   0.10910 283424.160000
    400    401     1   0.10969 276646.080000
    400    402     1   0.10969 276646.080000
    403    404     1   0.10969 276646.080000
    403    405     1   0.10969 276646.080000
    406    407     1   0.10969 276646.080000
    406    408     1   0.10969 276646.080000
    409    410     1   0.10969 276646.080000
    409    411     1   0.10969 276646.080000
    412    413     1   0.10969 276646.080000
    412    414     1   0.10969 276646.080000
    415    416     1   0.10969 276646.080000
    415    417     1   0.10969 276646.080000
    420    449     1   0.10304 312293.760000
    421    422     1   0.10910 283424.160000
    421    423     1   0.10910 283424.160000
    424    425     1   0.10910 283424.160000
    424    426     1   0.10910 283424.160000
    427    428     1   0.10910 283424.160000
    427    429     1   0.10910 283424.160000
    430    431     1   0.10969 276646.080000
    430    432     1   0.10969 276646.080000
    433    434     1   0.10969 276646.080000
    433    435     1   0.10969 276646.080000
    436    437     1   0.10969 276646.080000
    436    438     1   0.10969 276646.080000
    439    440     1   0.10969 276646.080000
    439    441     1   0.10969 276646.080000
    442    443     1   0.10969 276646.080000
    442    444     1   0.10969 276646.080000
    445    446     1   0.10969 276646.080000
    445    447     1   0.10969 276646.080000
    450    479     1   0.10304 312293.760000
    451    452     1   0.10910 283424.160000
    451    453     1   0.10910 283424.160000
    454    455     1   0.10910 283424.160000
    454    456     1   0.10910 283424.160000
    457    458     1   0.10910 283424.160000
    457    459     1   0.10910 283424.160000
    460    461     1   0.10969 276646.080000
    460    462     1   0.10969 276646.080000
    463    464     1   0.10969 276646.080000
    463    465     1   0.10969 276646.080000
    466    467     1   0.10969 276646.080000
    466    468     1   0.10969 276646.080000
    469    470     1   0.10969 276646.080000
    469    471     1   0.10969 276646.080000
    472    473     1   0.10969 276646.080000
    472    474     1   0.10969 276646.080000
    475    476     1   0.10969 276646.080000
    475    477     1   0.10969 276646.080000
    480    509     1   0.10304 312293.760000
    481    482     1   0.10910 283424.160000
    481    483     1   0.10910 283424.160000
    484    485     1   0.10910 283424.160000
    484    486     1   0.10910 283424.160000
    487    488     1   0.10910 283424.160000
    487    489     1   0.10910 283424.160000
    490    491     1   0.10969 276646.080000
    490    492     1   0.10969 276646.080000
    493    494     1   0.10969 276646.080000
    493    495     1   0.10969 276646.080000
    496    497     1   0.10969 276646.080000
    496    498     1   0.10969 276646.080000
    499    500     1   0.10969 276646.080000
    499    501     1   0.10969 276646.080000
    502    503     1   0.10969 276646.080000
    502    504     1   0.10969 276646.080000
    505    506     1   0.10969 276646.080000
    505    507     1   0.10969 276646.080000
    510    539     1   0.10304 312293.760000
    511    512     1   0.10910 283424.160000
    511    513     1   0.10910 283424.160000
    514    515     1   0.10910 283424.160000
    514    516     1   0.10910 283424.160000
    517    518     1   0.10910 283424.160000
    517    519     1   0.10910 283424.160000
    520    521     1   0.10969 276646.080000
    520    522     1   0.10969 276646.080000
    523    524     1   0.10969 276646.080000
    523    525     1   0.10969 276646.080000
    526    527     1   0.10969 276646.080000
    526    528     1   0.10969 276646.080000
    529    530     1   0.10969 276646.080000
    529    531     1   0.10969 276646.080000
    532    533     1   0.10969 276646.080000
    532    534     1   0.10969 276646.080000
    535    536     1   0.10969 276646.080000
    535    537     1   0.10969 276646.080000
    540    569     1   0.10304 312293.760000
    541    542     1   0.10910 283424.160000
    541    543     1   0.10910 283424.160000
    544    545     1   0.10910 283424.160000
    544    546     1   0.10910 283424.160000
    547    548     1   0.10910 283424.160000
    547    549     1   0.10910 283424.160000
    550    551     1   0.10969 276646.080000
    550    552     1   0.10969 276646.080000
    553    554     1   0.10969 276646.080000
    553    555     1   0.10969 276646.080000
    556    557     1   0.10969 276646.080000
    556    558     1   0.10969 276646.080000
    559    560     1   0.10969 276646.080000
    559    561     1   0.10969 276646.080000
    562    563     1   0.10969 276646.080000
    562    564     1   0.10969 276646.080000
    565    566     1   0.10969 276646.080000
    565    567     1   0.10969 276646.080000
    570    599     1   0.10304 312293.760000
    571    572     1   0.10910 283424.160000
    571    573     1   0.10910 283424.160000
    574    575     1   0.10910 283424.160000
    574    576     1   0.10910 283424.160000
    577    578     1   0.10910 283424.160000
    577    579     1   0.10910 283424.160000
    580    581     1   0.10969 276646.080000
    580    582     1   0.10969 276646.080000
    583    584     1   0.10969 276646.080000
    583    585     1   0.10969 276646.080000
    586    587     1   0.10969 276646.080000
    586    588     1   0.10969 276646.080000
    589    590     1   0.10969 276646.080000
    589    591     1   0.10969 276646.080000
    592    593     1   0.10969 276646.080000
    592    594     1   0.10969 276646.080000
    595    596     1   0.10969 276646.080000
    595    597     1   0.10969 276646.080000
    600    629     1   0.10304 312293.760000
    601    602     1   0.10910 283424.160000
    601    603     1   0.10910 283424.160000
    604    605     1   0.10910 283424.160000
    604    606     1   0.10910 283424.160000
    607    608     1   0.10910 283424.160000
    607    609     1   0.10910 283424.160000
    610    611     1   0.10969 276646.080000
    610    612     1   0.10969 276646.080000
    613    614     1   0.10969 276646.080000
    613    615     1   0.10969 276646.080000
    616    617     1   0.10969 276646.080000
    616    618     1   0.10969 276646.080000
    619    620     1   0.10969 276646.080000
    619    621     1   0.10969 276646.080000
    622    623     1   0.10969 276646.080000
    622    624     1   0.10969 276646.080000
    625    626     1   0.10969 276646.080000
    625    627     1   0.10969 276646.080000
    630    659     1   0.10304 312293.760000
    631    632     1   0.10910 283424.160000
    631    633     1   0.10910 283424.160000
    634    635     1   0.10910 283424.160000
    634    636     1   0.10910 283424.160000
    637    638     1   0.10910 283424.160000
    637    639     1   0.10910 283424.160000
    640    641     1   0.10969 276646.080000
    640    642     1   0.10969 276646.080000
    643    644     1   0.10969 276646.080000
    643    645     1   0.10969 276646.080000
    646    647     1   0.10969 276646.080000
    646    648     1   0.10969 276646.080000
    649    650     1   0.10969 276646.080000
    649    651     1   0.10969 276646.080000
    652    653     1   0.10969 276646.080000
    652    654     1   0.10969 276646.080000
    655    656     1   0.10969 276646.080000
    655    657     1   0.10969 276646.080000
    660    662     1   0.10969 276646.080000
    661    663     1   0.10969 276646.080000
    664    668     1   0.10969 276646.080000
    665    667     1   0.10969 276646.080000
    666    669     1   0.10961 277566.560000
    671    677     1   0.09730 310787.520000
    672    675     1   0.09730 310787.520000
    673    676     1   0.09730 310787.520000
    674    678     1   0.10969 276646.080000
    674    679     1   0.10969 276646.080000
    680    681     1   0.09730 310787.520000
    683    685     1   0.10969 276646.080000
    684    686     1   0.10969 276646.080000
    687    691     1   0.10969 276646.080000
    688    690     1   0.10969 276646.080000
    689    692     1   0.10961 277566.560000
    694    700     1   0.09730 310787.520000
    695    698     1   0.09730 310787.520000
    696    699     1   0.09730 310787.520000
    697    701     1   0.10969 276646.080000
    697    702     1   0.10969 276646.080000
    703    704     1   0.09730 310787.520000
    706    708     1   0.10969 276646.080000
    707    709     1   0.10969 276646.080000
    710    714     1   0.10969 276646.080000
    711    713     1   0.10969 276646.080000
    712    715     1   0.10961 277566.560000
    717    723     1   0.09730 310787.520000
    718    721     1   0.09730 310787.520000
    719    722     1   0.09730 310787.520000
    720    724     1   0.10969 276646.080000
    720    725     1   0.10969 276646.080000
    726    727     1   0.09730 310787.520000
    729    731     1   0.10969 276646.080000
    730    732     1   0.10969 276646.080000
    733    737     1   0.10969 276646.080000
    734    736     1   0.10969 276646.080000
    735    738     1   0.10961 277566.560000
    740    746     1   0.09730 310787.520000
    741    744     1   0.09730 310787.520000
    742    745     1   0.09730 310787.520000
    743    747     1   0.10969 276646.080000
    743    748     1   0.10969 276646.080000
    749    750     1   0.09730 310787.520000
    752    754     1   0.10969 276646.080000
    753    755     1   0.10969 276646.080000
    756    760     1   0.10969 276646.080000
    757    759     1   0.10969 276646.080000
    758    761     1   0.10961 277566.560000
    763    769     1   0.09730 310787.520000
    764    767     1   0.09730 310787.520000
    765    768     1   0.09730 310787.520000
    766    770     1   0.10969 276646.080000
    766    771     1   0.10969 276646.080000
    772    773     1   0.09730 310787.520000
    775    777     1   0.10969 276646.080000
    776    778     1   0.10969 276646.080000
    779    783     1   0.10969 276646.080000
    780    782     1   0.10969 276646.080000
    781    784     1   0.10961 277566.560000
    786    792     1   0.09730 310787.520000
    787    790     1   0.09730 310787.520000
    788    791     1   0.09730 310787.520000
    789    793     1   0.10969 276646.080000
    789    794     1   0.10969 276646.080000
    795    796     1   0.09730 310787.520000
    798    800     1   0.10969 276646.080000
    799    801     1   0.10969 276646.080000
    802    806     1   0.10969 276646.080000
    803    805     1   0.10969 276646.080000
    804    807     1   0.10961 277566.560000
    809    815     1   0.09730 310787.520000
    810    813     1   0.09730 310787.520000
    811    814     1   0.09730 310787.520000
    812    816     1   0.10969 276646.080000
    812    817     1   0.10969 276646.080000
    818    819     1   0.09730 310787.520000
    821    823     1   0.10969 276646.080000
    822    824     1   0.10969 276646.080000
    825    829     1   0.10969 276646.080000
    826    828     1   0.10969 276646.080000
    827    830     1   0.10961 277566.560000
    832    838     1   0.09730 310787.520000
    833    836     1   0.09730 310787.520000
    834    837     1   0.09730 310787.520000
    835    839     1   0.10969 276646.080000
    835    840     1   0.10969 276646.080000
    841    842     1   0.09730 310787.520000
    844    846     1   0.10969 276646.080000
    845    847     1   0.10969 276646.080000
    848    852     1   0.10969 276646.080000
    849    851     1   0.10969 276646.080000
    850    853     1   0.10961 277566.560000
    855    861     1   0.09730 310787.520000
    856    859     1   0.09730 310787.520000
    857    860     1   0.09730 310787.520000
    858    862     1   0.10969 276646.080000
    858    863     1   0.10969 276646.080000
    864    865     1   0.09730 310787.520000
    867    869     1   0.10969 276646.080000
    868    870     1   0.10969 276646.080000
    871    875     1   0.10969 276646.080000
    872    874     1   0.10969 276646.080000
    873    876     1   0.10961 277566.560000
    878    884     1   0.09730 310787.520000
    879    882     1   0.09730 310787.520000
    880    883     1   0.09730 310787.520000
    881    885     1   0.10969 276646.080000
    881    886     1   0.10969 276646.080000
    887    888     1   0.09730 310787.520000
    890    892     1   0.10969 276646.080000
    891    893     1   0.10969 276646.080000
    894    898     1   0.10969 276646.080000
    895    897     1   0.10969 276646.080000
    896    899     1   0.10961 277566.560000
    901    907     1   0.09730 310787.520000
    902    905     1   0.09730 310787.520000
    903    906     1   0.09730 310787.520000
    904    908     1   0.10969 276646.080000
    904    909     1   0.10969 276646.080000
    910    911     1   0.09730 310787.520000
    913    915     1   0.10969 276646.080000
    914    916     1   0.10969 276646.080000
    917    921     1   0.10969 276646.080000
    918    920     1   0.10969 276646.080000
    919    922     1   0.10961 277566.560000
    924    930     1   0.09730 310787.520000
    925    928     1   0.09730 310787.520000
    926    929     1   0.09730 310787.520000
    927    931     1   0.10969 276646.080000
    927    932     1   0.10969 276646.080000
    933    934     1   0.09730 310787.520000
    936    938     1   0.10969 276646.080000
    937    939     1   0.10969 276646.080000
    940    944     1   0.10969 276646.080000
    941    943     1   0.10969 276646.080000
    942    945     1   0.10961 277566.560000
    947    953     1   0.09730 310787.520000
    948    951     1   0.09730 310787.520000
    949    952     1   0.09730 310787.520000
    950    954     1   0.10969 276646.080000
    950    955     1   0.10969 276646.080000
    956    957     1   0.09730 310787.520000
    959    961     1   0.10969 276646.080000
    960    962     1   0.10969 276646.080000
    963    967     1   0.10969 276646.080000
    964    966     1   0.10969 276646.080000
    965    968     1   0.10961 277566.560000
    970    976     1   0.09730 310787.520000
    971    974     1   0.09730 310787.520000
    972    975     1   0.09730 310787.520000
    973    977     1   0.10969 276646.080000
    973    978     1   0.10969 276646.080000
    979    980     1   0.09730 310787.520000
    982    984     1   0.10969 276646.080000
    983    985     1   0.10969 276646.080000
    986    990     1   0.10969 276646.080000
    987    989     1   0.10969 276646.080000
    988    991     1   0.10961 277566.560000
    993    999     1   0.09730 310787.520000
    994    997     1   0.09730 310787.520000
    995    998     1   0.09730 310787.520000
    996   1000     1   0.10969 276646.080000
    996   1001     1   0.10969 276646.080000
   1002   1003     1   0.09730 310787.520000
   1005   1007     1   0.10969 276646.080000
   1006   1008     1   0.10969 276646.080000
   1009   1013     1   0.10969 276646.080000
   1010   1012     1   0.10969 276646.080000
   1011   1014     1   0.10961 277566.560000
   1016   1022     1   0.09730 310787.520000
   1017   1020     1   0.09730 310787.520000
   1018   1021     1   0.09730 310787.520000
   1019   1023     1   0.10969 276646.080000
   1019   1024     1   0.10969 276646.080000
   1025   1026     1   0.09730 310787.520000
   1028   1030     1   0.10969 276646.080000
   1029   1031     1   0.10969 276646.080000
   1032   1036     1   0.10969 276646.080000
   1033   1035     1   0.10969 276646.080000
   1034   1037     1   0.10961 277566.560000
   1039   1045     1   0.09730 310787.520000
   1040   1043     1   0.09730 310787.520000
   1041   1044     1   0.09730 310787.520000
   1042   1046     1   0.10969 276646.080000
   1042   1047     1   0.10969 276646.080000
   1048   1049     1   0.09730 310787.520000
   1051   1053     1   0.10969 276646.080000
   1052   1054     1   0.10969 276646.080000
   1055   1059     1   0.10969 276646.080000
   1056   1058     1   0.10969 276646.080000
   1057   1060     1   0.10961 277566.560000
   1062   1068     1   0.09730 310787.520000
   1063   1066     1   0.09730 310787.520000
   1064   1067     1   0.09730 310787.520000
   1065   1069     1   0.10969 276646.080000
   1065   1070     1   0.10969 276646.080000
   1071   1072     1   0.09730 310787.520000
   1074   1076     1   0.10969 276646.080000
   1075   1077     1   0.10969 276646.080000
   1078   1082     1   0.10969 276646.080000
   1079   1081     1   0.10969 276646.080000
   1080   1083     1   0.10961 277566.560000
   1085   1091     1   0.09730 310787.520000
   1086   1089     1   0.09730 310787.520000
   1087   1090     1   0.09730 310787.520000
   1088   1092     1   0.10969 276646.080000
   1088   1093     1   0.10969 276646.080000
   1094   1095     1   0.09730 310787.520000
   1097   1099     1   0.10969 276646.080000
   1098   1100     1   0.10969 276646.080000
   1101   1105     1   0.10969 276646.080000
   1102   1104     1   0.10969 276646.080000
   1103   1106     1   0.10961 277566.560000
   1108   1114     1   0.09730 310787.520000
   1109   1112     1   0.09730 310787.520000
   1110   1113     1   0.09730 310787.520000
   1111   1115     1   0.10969 276646.080000
   1111   1116     1   0.10969 276646.080000
   1117   1118     1   0.09730 310787.520000
   1120   1122     1   0.10969 276646.080000
   1121   1123     1   0.10969 276646.080000
   1124   1128     1   0.10969 276646.080000
   1125   1127     1   0.10969 276646.080000
   1126   1129     1   0.10961 277566.560000
   1131   1137     1   0.09730 310787.520000
   1132   1135     1   0.09730 310787.520000
   1133   1136     1   0.09730 310787.520000
   1134   1138     1   0.10969 276646.080000
   1134   1139     1   0.10969 276646.080000
   1140   1141     1   0.09730 310787.520000
   1143   1145     1   0.10969 276646.080000
   1144   1146     1   0.10969 276646.080000
   1147   1151     1   0.10969 276646.080000
   1148   1150     1   0.10969 276646.080000
   1149   1152     1   0.10961 277566.560000
   1154   1160     1   0.09730 310787.520000
   1155   1158     1   0.09730 310787.520000
   1156   1159     1   0.09730 310787.520000
   1157   1161     1   0.10969 276646.080000
   1157   1162     1   0.10969 276646.080000
   1163   1164     1   0.09730 310787.520000
   1166   1168     1   0.10969 276646.080000
   1167   1169     1   0.10969 276646.080000
   1170   1174     1   0.10969 276646.080000
   1171   1173     1   0.10969 276646.080000
   1172   1175     1   0.10961 277566.560000
   1177   1183     1   0.09730 310787.520000
   1178   1181     1   0.09730 310787.520000
   1179   1182     1   0.09730 310787.520000
   1180   1184     1   0.10969 276646.080000
   1180   1185     1   0.10969 276646.080000
   1186   1187     1   0.09730 310787.520000
   1189   1191     1   0.10969 276646.080000
   1190   1192     1   0.10969 276646.080000
   1193   1197     1   0.10969 276646.080000
   1194   1196     1   0.10969 276646.080000
   1195   1198     1   0.10961 277566.560000
   1200   1206     1   0.09730 310787.520000
   1201   1204     1   0.09730 310787.520000
   1202   1205     1   0.09730 310787.520000
   1203   1207     1   0.10969 276646.080000
   1203   1208     1   0.10969 276646.080000
   1209   1210     1   0.09730 310787.520000

[ pairs ]
;    ai     aj funct         c0         c1         c2         c3
      1     26     1
      1     20     1
      1     23     1
      2     17     1
      2     11     1
      2    118     1
      5     14     1
      5     11     1
      5     58     1
      8     14     1
      8     17     1
      8     88     1
     11     79     1
     14    109     1
     17     49     1
     20     40     1
     23     70     1
     26    100     1
     30     55     1
     30     52     1
     30     49     1
     31     46     1
     31     40     1
     31    178     1
     34     43     1
     34     40     1
     34    148     1
     37     43     1
     37     46     1
     37     58     1
     43    169     1
     46    139     1
     52    130     1
     55    160     1
     60     85     1
     60     82     1
     60     79     1
     61     76     1
     61     70     1
     61    238     1
     64     73     1
     64     70     1
     64    208     1
     67     73     1
     67     76     1
     67     88     1
     73    229     1
     76    199     1
     82    190     1
     85    220     1
     90    115     1
     90    112     1
     90    109     1
     91    106     1
     91    100     1
     91    298     1
     94    103     1
     94    100     1
     94    268     1
     97    103     1
     97    106     1
     97    118     1
    103    289     1
    106    259     1
    112    250     1
    115    280     1
    120    145     1
    120    142     1
    120    139     1
    121    136     1
    121    130     1
    121    358     1
    124    133     1
    124    130     1
    124    328     1
    127    133     1
    127    136     1
    127    148     1
    133    349     1
    136    319     1
    142    310     1
    145    340     1
    150    175     1
    150    172     1
    150    169     1
    151    166     1
    151    160     1
    151    418     1
    154    163     1
    154    160     1
    154    388     1
    157    163     1
    157    166     1
    157    178     1
    163    409     1
    166    379     1
    172    370     1
    175    400     1
    180    205     1
    180    202     1
    180    199     1
    181    196     1
    181    190     1
    181    478     1
    184    193     1
    184    190     1
    184    448     1
    187    193     1
    187    196     1
    187    208     1
    193    469     1
    196    439     1
    202    430     1
    205    460     1
    210    235     1
    210    232     1
    210    229     1
    211    226     1
    211    220     1
    211    538     1
    214    223     1
    214    220     1
    214    508     1
    217    223     1
    217    226     1
    217    238     1
    223    529     1
    226    499     1
    232    490     1
    235    520     1
    240    265     1
    240    262     1
    240    259     1
    241    256     1
    241    250     1
    241    598     1
    244    253     1
    244    250     1
    244    568     1
    247    253     1
    247    256     1
    247    268     1
    253    589     1
    256    559     1
    262    550     1
    265    580     1
    270    295     1
    270    292     1
    270    289     1
    271    286     1
    271    280     1
    271    658     1
    274    283     1
    274    280     1
    274    628     1
    277    283     1
    277    286     1
    277    298     1
    283    649     1
    286    619     1
    292    610     1
    295    640     1
    300    325     1
    300    322     1
    300    319     1
    301    316     1
    301    310     1
    301    693     1
    304    313     1
    304    310     1
    304    670     1
    307    313     1
    307    316     1
    307    328     1
    313    689     1
    316    666     1
    322    665     1
    322    682     1
    325    705     1
    325    688     1
    330    355     1
    330    352     1
    330    349     1
    331    346     1
    331    340     1
    331    739     1
    334    343     1
    334    340     1
    334    716     1
    337    343     1
    337    346     1
    337    358     1
    343    735     1
    346    712     1
    352    711     1
    352    728     1
    355    751     1
    355    734     1
    360    385     1
    360    382     1
    360    379     1
    361    376     1
    361    370     1
    361    785     1
    364    373     1
    364    370     1
    364    762     1
    367    373     1
    367    376     1
    367    388     1
    373    781     1
    376    758     1
    382    757     1
    382    774     1
    385    797     1
    385    780     1
    390    415     1
    390    412     1
    390    409     1
    391    406     1
    391    400     1
    391    831     1
    394    403     1
    394    400     1
    394    808     1
    397    403     1
    397    406     1
    397    418     1
    403    827     1
    406    804     1
    412    803     1
    412    820     1
    415    843     1
    415    826     1
    420    445     1
    420    442     1
    420    439     1
    421    436     1
    421    430     1
    421    877     1
    424    433     1
    424    430     1
    424    854     1
    427    433     1
    427    436     1
    427    448     1
    433    873     1
    436    850     1
    442    849     1
    442    866     1
    445    889     1
    445    872     1
    450    475     1
    450    472     1
    450    469     1
    451    466     1
    451    460     1
    451    923     1
    454    463     1
    454    460     1
    454    900     1
    457    463     1
    457    466     1
    457    478     1
    463    919     1
    466    896     1
    472    895     1
    472    912     1
    475    935     1
    475    918     1
    480    505     1
    480    502     1
    480    499     1
    481    496     1
    481    490     1
    481    969     1
    484    493     1
    484    490     1
    484    946     1
    487    493     1
    487    496     1
    487    508     1
    493    965     1
    496    942     1
    502    941     1
    502    958     1
    505    981     1
    505    964     1
    510    535     1
    510    532     1
    510    529     1
    511    526     1
    511    520     1
    511   1015     1
    514    523     1
    514    520     1
    514    992     1
    517    523     1
    517    526     1
    517    538     1
    523   1011     1
    526    988     1
    532    987     1
    532   1004     1
    535   1027     1
    535   1010     1
    540    565     1
    540    562     1
    540    559     1
    541    556     1
    541    550     1
    541   1061     1
    544    553     1
    544    550     1
    544   1038     1
    547    553     1
    547    556     1
    547    568     1
    553   1057     1
    556   1034     1
    562   1033     1
    562   1050     1
    565   1073     1
    565   1056     1
    570    595     1
    570    592     1
    570    589     1
    571    586     1
    571    580     1
    571   1107     1
    574    583     1
    574    580     1
    574   1084     1
    577    583     1
    577    586     1
    577    598     1
    583   1103     1
    586   1080     1
    592   1079     1
    592   1096     1
    595   1119     1
    595   1102     1
    600    625     1
    600    622     1
    600    619     1
    601    616     1
    601    610     1
    601   1153     1
    604    613     1
    604    610     1
    604   1130     1
    607    613     1
    607    616     1
    607    628     1
    613   1149     1
    616   1126     1
    622   1125     1
    622   1142     1
    625   1165     1
    625   1148     1
    630    655     1
    630    652     1
    630    649     1
    631    646     1
    631    640     1
    631   1199     1
    634    643     1
    634    640     1
    634   1176     1
    637    643     1
    637    646     1
    637    658     1
    643   1195     1
    646   1172     1
    652   1171     1
    652   1188     1
    655   1211     1
    655   1194     1
    660    665     1
    660    672     1
    660    670     1
    661    680     1
    661    666     1
    661    671     1
    664    674     1
    664    682     1
    664    670     1
    665    673     1
    666    672     1
    666    674     1
    670    671     1
    671    672     1
    671    682     1
    672    673     1
    673    674     1
    673    682     1
    680    682     1
    683    688     1
    683    695     1
    683    693     1
    684    689     1
    684    694     1
    684    703     1
    687    693     1
    687    705     1
    687    697     1
    688    696     1
    689    697     1
    689    695     1
    693    694     1
    694    705     1
    694    695     1
    695    696     1
    696    697     1
    696    705     1
    703    705     1
    706    711     1
    706    718     1
    706    716     1
    707    726     1
    707    712     1
    707    717     1
    710    720     1
    710    728     1
    710    716     1
    711    719     1
    712    718     1
    712    720     1
    716    717     1
    717    718     1
    717    728     1
    718    719     1
    719    720     1
    719    728     1
    726    728     1
    729    734     1
    729    741     1
    729    739     1
    730    735     1
    730    740     1
    730    749     1
    733    739     1
    733    751     1
    733    743     1
    734    742     1
    735    743     1
    735    741     1
    739    740     1
    740    751     1
    740    741     1
    741    742     1
    742    743     1
    742    751     1
    749    751     1
    752    757     1
    752    764     1
    752    762     1
    753    772     1
    753    758     1
    753    763     1
    756    766     1
    756    774     1
    756    762     1
    757    765     1
    758    764     1
    758    766     1
    762    763     1
    763    764     1
    763    774     1
    764    765     1
    765    766     1
    765    774     1
    772    774     1
    775    780     1
    775    787     1
    775    785     1
    776    781     1
    776    786     1
    776    795     1
    779    785     1
    779    797     1
    779    789     1
    780    788     1
    781    789     1
    781    787     1
    785    786     1
    786    797     1
    786    787     1
    787    788     1
    788    789     1
    788    797     1
    795    797     1
    798    803     1
    798    810     1
    798    808     1
    799    818     1
    799    804     1
    799    809     1
    802    812     1
    802    820     1
    802    808     1
    803    811     1
    804    810     1
    804    812     1
    808    809     1
    809    810     1
    809    820     1
    810    811     1
    811    812     1
    811    820     1
    818    820     1
    821    826     1
    821    833     1
    821    831     1
    822    827     1
    822    832     1
    822    841     1
    825    831     1
    825    843     1
    825    835     1
    826    834     1
    827    835     1
    827    833     1
    831    832     1
    832    843     1
    832    833     1
    833    834     1
    834    835     1
    834    843     1
    841    843     1
    844    849     1
    844    856     1
    844    854     1
    845    864     1
    845    850     1
    845    855     1
    848    858     1
    848    866     1
    848    854     1
    849    857     1
    850    856     1
    850    858     1
    854    855     1
    855    856     1
    855    866     1
    856    857     1
    857    858     1
    857    866     1
    864    866     1
    867    872     1
    867    879     1
    867    877     1
    868    873     1
    868    878     1
    868    887     1
    871    877     1
    871    889     1
    871    881     1
    872    880     1
    873    881     1
    873    879     1
    877    878     1
    878    889     1
    878    879     1
    879    880     1
    880    881     1
    880    889     1
    887    889     1
    890    895     1
    890    902     1
    890    900     1
    891    910     1
    891    896     1
    891    901     1
    894    904     1
    894    912     1
    894    900     1
    895    903     1
    896    902     1
    896    904     1
    900    901     1
    901    902     1
    901    912     1
    902    903     1
    903    904     1
    903    912     1
    910    912     1
    913    918     1
    913    925     1
    913    923     1
    914    919     1
    914    924     1
    914    933     1
    917    923     1
    917    935     1
    917    927     1
    918    926     1
    919    927     1
    919    925     1
    923    924     1
    924    935     1
    924    925     1
    925    926     1
    926    927     1
    926    935     1
    933    935     1
    936    941     1
    936    948     1
    936    946     1
    937    956     1
    937    942     1
    937    947     1
    940    950     1
    940    958     1
    940    946     1
    941    949     1
    942    948     1
    942    950     1
    946    947     1
    947    948     1
    947    958     1
    948    949     1
    949    950     1
    949    958     1
    956    958     1
    959    964     1
    959    971     1
    959    969     1
    960    965     1
    960    970     1
    960    979     1
    963    969     1
    963    981     1
    963    973     1
    964    972     1
    965    973     1
    965    971     1
    969    970     1
    970    981     1
    970    971     1
    971    972     1
    972    973     1
    972    981     1
    979    981     1
    982    987     1
    982    994     1
    982    992     1
    983   1002     1
    983    988     1
    983    993     1
    986    996     1
    986   1004     1
    986    992     1
    987    995     1
    988    994     1
    988    996     1
    992    993     1
    993    994     1
    993   1004     1
    994    995     1
    995    996     1
    995   1004     1
   1002   1004     1
   1005   1010     1
   1005   1017     1
   1005   1015     1
   1006   1011     1
   1006   1016     1
   1006   1025     1
   1009   1015     1
   1009   1027     1
   1009   1019     1
   1010   1018     1
   1011   1019     1
   1011   1017     1
   1015   1016     1
   1016   1027     1
   1016   1017     1
   1017   1018     1
   1018   1019     1
   1018   1027     1
   1025   1027     1
   1028   1033     1
   1028   1040     1
   1028   1038     1
   1029   1048     1
   1029   1034     1
   1029   1039     1
   1032   1042     1
   1032   1050     1
   1032   1038     1
   1033   1041     1
   1034   1040     1
   1034   1042     1
   1038   1039     1
   1039   1040     1
   1039   1050     1
   1040   1041     1
   1041   1042     1
   1041   1050     1
   1048   1050     1
   1051   1056     1
   1051   1063     1
   1051   1061     1
   1052   1057     1
   1052   1062     1
   1052   1071     1
   1055   1061     1
   1055   1073     1
   1055   1065     1
   1056   1064     1
   1057   1065     1
   1057   1063     1
   1061   1062     1
   1062   1073     1
   1062   1063     1
   1063   1064     1
   1064   1065     1
   1064   1073     1
   1071   1073     1
   1074   1079     1
   1074   1086     1
   1074   1084     1
   1075   1094     1
   1075   1080     1
   1075   1085     1
   1078   1088     1
   1078   1096     1
   1078   1084     1
   1079   1087     1
   1080   1086     1
   1080   1088     1
   1084   1085     1
   1085   1086     1
   1085   1096     1
   1086   1087     1
   1087   1088     1
   1087   1096     1
   1094   1096     1
   1097   1102     1
   1097   1109     1
   1097   1107     1
   1098   1103     1
   1098   1108     1
   1098   1117     1
   1101   1107     1
   1101   1119     1
   1101   1111     1
   1102   1110     1
   1103   1111     1
   1103   1109     1
   1107   1108     1
   1108   1119     1
   1108   1109     1
   1109   1110     1
   1110   1111     1
   1110   1119     1
   1117   1119     1
   1120   1125     1
   1120   1132     1
   1120   1130     1
   1121   1140     1
   1121   1126     1
   1121   1131     1
   1124   1134     1
   1124   1142     1
   1124   1130     1
   1125   1133     1
   1126   1132     1
   1126   1134     1
   1130   1131     1
   1131   1132     1
   1131   1142     1
   1132   1133     1
   1133   1134     1
   1133   1142     1
   1140   1142     1
   1143   1148     1
   1143   1155     1
   1143   1153     1
   1144   1149     1
   1144   1154     1
   1144   1163     1
   1147   1153     1
   1147   1165     1
   1147   1157     1
   1148   1156     1
   1149   1157     1
   1149   1155     1
   1153   1154     1
   1154   1165     1
   1154   1155     1
   1155   1156     1
   1156   1157     1
   1156   1165     1
   1163   1165     1
   1166   1171     1
   1166   1178     1
   1166   1176     1
   1167   1186     1
   1167   1172     1
   1167   1177     1
   1170   1180     1
   1170   1188     1
   1170   1176     1
   1171   1179     1
   1172   1178     1
   1172   1180     1
   1176   1177     1
   1177   1178     1
   1177   1188     1
   1178   1179     1
   1179   1180     1
   1179   1188     1
   1186   1188     1
   1189   1194     1
   1189   1201     1
   1189   1199     1
   1190   1195     1
   1190   1200     1
   1190   1209     1
   1193   1199     1
   1193   1211     1
   1193   1203     1
   1194   1202     1
   1195   1203     1
   1195   1201     1
   1199   1200     1
   1200   1211     1
   1200   1201     1
   1201   1202     1
   1202   1203     1
   1202   1211     1
   1209   1211     1
      1     15     1
      1     16     1
      1     18     1
      1     19     1
      1     12     1
      1     13     1
      2      6     1
      2      7     1
      2      9     1
      2     10     1
      2     27     1
      2     28     1
      5      3     1
      8      3     1
     29      3     1
      3     26     1
      3     15     1
      3     16     1
      5      4     1
      8      4     1
     29      4     1
      4     26     1
      4     15     1
      4     16     1
      5      9     1
      5     10     1
      5     21     1
      5     22     1
      8      6     1
     29      6     1
      6     20     1
      6     18     1
      6     19     1
      8      7     1
     29      7     1
      7     20     1
      7     18     1
      7     19     1
      8     24     1
      8     25     1
     29      9     1
      9     23     1
      9     12     1
      9     13     1
     29     10     1
     10     23     1
     10     12     1
     10     13     1
     29     11     1
     12     88     1
     12     24     1
     12     25     1
     13     88     1
     13     24     1
     13     25     1
     29     14     1
     15    118     1
     15     27     1
     15     28     1
     16    118     1
     16     27     1
     16     28     1
     29     17     1
     18     58     1
     18     21     1
     18     22     1
     19     58     1
     19     21     1
     19     22     1
     20     50     1
     20     51     1
     21     49     1
     22     49     1
     23     80     1
     23     81     1
     24     79     1
     25     79     1
     26    110     1
     26    111     1
     27    109     1
     28    109     1
     30     44     1
     30     45     1
     30     47     1
     30     48     1
     30     41     1
     30     42     1
     31     35     1
     31     36     1
     31     38     1
     31     39     1
     31     56     1
     31     57     1
     32     34     1
     32     37     1
     32     59     1
     32     55     1
     32     44     1
     32     45     1
     33     34     1
     33     37     1
     33     59     1
     33     55     1
     33     44     1
     33     45     1
     34     38     1
     34     39     1
     34     53     1
     34     54     1
     35     37     1
     35     59     1
     35     52     1
     35     47     1
     35     48     1
     36     37     1
     36     59     1
     36     52     1
     36     47     1
     36     48     1
     37     50     1
     37     51     1
     38     59     1
     38     49     1
     38     41     1
     38     42     1
     39     59     1
     39     49     1
     39     41     1
     39     42     1
     40     59     1
     41     58     1
     41     50     1
     41     51     1
     42     58     1
     42     50     1
     42     51     1
     43     59     1
     44    178     1
     44     56     1
     44     57     1
     45    178     1
     45     56     1
     45     57     1
     46     59     1
     47    148     1
     47     53     1
     47     54     1
     48    148     1
     48     53     1
     48     54     1
     52    140     1
     52    141     1
     53    139     1
     54    139     1
     55    170     1
     55    171     1
     56    169     1
     57    169     1
     60     74     1
     60     75     1
     60     77     1
     60     78     1
     60     71     1
     60     72     1
     61     65     1
     61     66     1
     61     68     1
     61     69     1
     61     86     1
     61     87     1
     62     64     1
     62     67     1
     62     89     1
     62     85     1
     62     74     1
     62     75     1
     63     64     1
     63     67     1
     63     89     1
     63     85     1
     63     74     1
     63     75     1
     64     68     1
     64     69     1
     64     83     1
     64     84     1
     65     67     1
     65     89     1
     65     82     1
     65     77     1
     65     78     1
     66     67     1
     66     89     1
     66     82     1
     66     77     1
     66     78     1
     67     80     1
     67     81     1
     68     89     1
     68     79     1
     68     71     1
     68     72     1
     69     89     1
     69     79     1
     69     71     1
     69     72     1
     70     89     1
     71     88     1
     71     80     1
     71     81     1
     72     88     1
     72     80     1
     72     81     1
     73     89     1
     74    238     1
     74     86     1
     74     87     1
     75    238     1
     75     86     1
     75     87     1
     76     89     1
     77    208     1
     77     83     1
     77     84     1
     78    208     1
     78     83     1
     78     84     1
     82    200     1
     82    201     1
     83    199     1
     84    199     1
     85    230     1
     85    231     1
     86    229     1
     87    229     1
     90    104     1
     90    105     1
     90    107     1
     90    108     1
     90    101     1
     90    102     1
     91     95     1
     91     96     1
     91     98     1
     91     99     1
     91    116     1
     91    117     1
     92     94     1
     92     97     1
     92    119     1
     92    115     1
     92    104     1
     92    105     1
     93     94     1
     93     97     1
     93    119     1
     93    115     1
     93    104     1
     93    105     1
     94     98     1
     94     99     1
     94    113     1
     94    114     1
     95     97     1
     95    119     1
     95    112     1
     95    107     1
     95    108     1
     96     97     1
     96    119     1
     96    112     1
     96    107     1
     96    108     1
     97    110     1
     97    111     1
     98    119     1
     98    109     1
     98    101     1
     98    102     1
     99    119     1
     99    109     1
     99    101     1
     99    102     1
    100    119     1
    101    118     1
    101    110     1
    101    111     1
    102    118     1
    102    110     1
    102    111     1
    103    119     1
    104    298     1
    104    116     1
    104    117     1
    105    298     1
    105    116     1
    105    117     1
    106    119     1
    107    268     1
    107    113     1
    107    114     1
    108    268     1
    108    113     1
    108    114     1
    112    260     1
    112    261     1
    113    259     1
    114    259     1
    115    290     1
    115    291     1
    116    289     1
    117    289     1
    120    134     1
    120    135     1
    120    137     1
    120    138     1
    120    131     1
    120    132     1
    121    125     1
    121    126     1
    121    128     1
    121    129     1
    121    146     1
    121    147     1
    122    124     1
    122    127     1
    122    149     1
    122    145     1
    122    134     1
    122    135     1
    123    124     1
    123    127     1
    123    149     1
    123    145     1
    123    134     1
    123    135     1
    124    128     1
    124    129     1
    124    143     1
    124    144     1
    125    127     1
    125    149     1
    125    142     1
    125    137     1
    125    138     1
    126    127     1
    126    149     1
    126    142     1
    126    137     1
    126    138     1
    127    140     1
    127    141     1
    128    149     1
    128    139     1
    128    131     1
    128    132     1
    129    149     1
    129    139     1
    129    131     1
    129    132     1
    130    149     1
    131    148     1
    131    140     1
    131    141     1
    132    148     1
    132    140     1
    132    141     1
    133    149     1
    134    358     1
    134    146     1
    134    147     1
    135    358     1
    135    146     1
    135    147     1
    136    149     1
    137    328     1
    137    143     1
    137    144     1
    138    328     1
    138    143     1
    138    144     1
    142    320     1
    142    321     1
    143    319     1
    144    319     1
    145    350     1
    145    351     1
    146    349     1
    147    349     1
    150    164     1
    150    165     1
    150    167     1
    150    168     1
    150    161     1
    150    162     1
    151    155     1
    151    156     1
    151    158     1
    151    159     1
    151    176     1
    151    177     1
    152    154     1
    152    157     1
    152    179     1
    152    175     1
    152    164     1
    152    165     1
    153    154     1
    153    157     1
    153    179     1
    153    175     1
    153    164     1
    153    165     1
    154    158     1
    154    159     1
    154    173     1
    154    174     1
    155    157     1
    155    179     1
    155    172     1
    155    167     1
    155    168     1
    156    157     1
    156    179     1
    156    172     1
    156    167     1
    156    168     1
    157    170     1
    157    171     1
    158    179     1
    158    169     1
    158    161     1
    158    162     1
    159    179     1
    159    169     1
    159    161     1
    159    162     1
    160    179     1
    161    178     1
    161    170     1
    161    171     1
    162    178     1
    162    170     1
    162    171     1
    163    179     1
    164    418     1
    164    176     1
    164    177     1
    165    418     1
    165    176     1
    165    177     1
    166    179     1
    167    388     1
    167    173     1
    167    174     1
    168    388     1
    168    173     1
    168    174     1
    172    380     1
    172    381     1
    173    379     1
    174    379     1
    175    410     1
    175    411     1
    176    409     1
    177    409     1
    180    194     1
    180    195     1
    180    197     1
    180    198     1
    180    191     1
    180    192     1
    181    185     1
    181    186     1
    181    188     1
    181    189     1
    181    206     1
    181    207     1
    182    184     1
    182    187     1
    182    209     1
    182    205     1
    182    194     1
    182    195     1
    183    184     1
    183    187     1
    183    209     1
    183    205     1
    183    194     1
    183    195     1
    184    188     1
    184    189     1
    184    203     1
    184    204     1
    185    187     1
    185    209     1
    185    202     1
    185    197     1
    185    198     1
    186    187     1
    186    209     1
    186    202     1
    186    197     1
    186    198     1
    187    200     1
    187    201     1
    188    209     1
    188    199     1
    188    191     1
    188    192     1
    189    209     1
    189    199     1
    189    191     1
    189    192     1
    190    209     1
    191    208     1
    191    200     1
    191    201     1
    192    208     1
    192    200     1
    192    201     1
    193    209     1
    194    478     1
    194    206     1
    194    207     1
    195    478     1
    195    206     1
    195    207     1
    196    209     1
    197    448     1
    197    203     1
    197    204     1
    198    448     1
    198    203     1
    198    204     1
    202    440     1
    202    441     1
    203    439     1
    204    439     1
    205    470     1
    205    471     1
    206    469     1
    207    469     1
    210    224     1
    210    225     1
    210    227     1
    210    228     1
    210    221     1
    210    222     1
    211    215     1
    211    216     1
    211    218     1
    211    219     1
    211    236     1
    211    237     1
    212    214     1
    212    217     1
    212    239     1
    212    235     1
    212    224     1
    212    225     1
    213    214     1
    213    217     1
    213    239     1
    213    235     1
    213    224     1
    213    225     1
    214    218     1
    214    219     1
    214    233     1
    214    234     1
    215    217     1
    215    239     1
    215    232     1
    215    227     1
    215    228     1
    216    217     1
    216    239     1
    216    232     1
    216    227     1
    216    228     1
    217    230     1
    217    231     1
    218    239     1
    218    229     1
    218    221     1
    218    222     1
    219    239     1
    219    229     1
    219    221     1
    219    222     1
    220    239     1
    221    238     1
    221    230     1
    221    231     1
    222    238     1
    222    230     1
    222    231     1
    223    239     1
    224    538     1
    224    236     1
    224    237     1
    225    538     1
    225    236     1
    225    237     1
    226    239     1
    227    508     1
    227    233     1
    227    234     1
    228    508     1
    228    233     1
    228    234     1
    232    500     1
    232    501     1
    233    499     1
    234    499     1
    235    530     1
    235    531     1
    236    529     1
    237    529     1
    240    254     1
    240    255     1
    240    257     1
    240    258     1
    240    251     1
    240    252     1
    241    245     1
    241    246     1
    241    248     1
    241    249     1
    241    266     1
    241    267     1
    242    244     1
    242    247     1
    242    269     1
    242    265     1
    242    254     1
    242    255     1
    243    244     1
    243    247     1
    243    269     1
    243    265     1
    243    254     1
    243    255     1
    244    248     1
    244    249     1
    244    263     1
    244    264     1
    245    247     1
    245    269     1
    245    262     1
    245    257     1
    245    258     1
    246    247     1
    246    269     1
    246    262     1
    246    257     1
    246    258     1
    247    260     1
    247    261     1
    248    269     1
    248    259     1
    248    251     1
    248    252     1
    249    269     1
    249    259     1
    249    251     1
    249    252     1
    250    269     1
    251    268     1
    251    260     1
    251    261     1
    252    268     1
    252    260     1
    252    261     1
    253    269     1
    254    598     1
    254    266     1
    254    267     1
    255    598     1
    255    266     1
    255    267     1
    256    269     1
    257    568     1
    257    263     1
    257    264     1
    258    568     1
    258    263     1
    258    264     1
    262    560     1
    262    561     1
    263    559     1
    264    559     1
    265    590     1
    265    591     1
    266    589     1
    267    589     1
    270    284     1
    270    285     1
    270    287     1
    270    288     1
    270    281     1
    270    282     1
    271    275     1
    271    276     1
    271    278     1
    271    279     1
    271    296     1
    271    297     1
    272    274     1
    272    277     1
    272    299     1
    272    295     1
    272    284     1
    272    285     1
    273    274     1
    273    277     1
    273    299     1
    273    295     1
    273    284     1
    273    285     1
    274    278     1
    274    279     1
    274    293     1
    274    294     1
    275    277     1
    275    299     1
    275    292     1
    275    287     1
    275    288     1
    276    277     1
    276    299     1
    276    292     1
    276    287     1
    276    288     1
    277    290     1
    277    291     1
    278    299     1
    278    289     1
    278    281     1
    278    282     1
    279    299     1
    279    289     1
    279    281     1
    279    282     1
    280    299     1
    281    298     1
    281    290     1
    281    291     1
    282    298     1
    282    290     1
    282    291     1
    283    299     1
    284    658     1
    284    296     1
    284    297     1
    285    658     1
    285    296     1
    285    297     1
    286    299     1
    287    628     1
    287    293     1
    287    294     1
    288    628     1
    288    293     1
    288    294     1
    292    620     1
    292    621     1
    293    619     1
    294    619     1
    295    650     1
    295    651     1
    296    649     1
    297    649     1
    300    314     1
    300    315     1
    300    317     1
    300    318     1
    300    311     1
    300    312     1
    301    305     1
    301    306     1
    301    308     1
    301    309     1
    301    326     1
    301    327     1
    302    304     1
    302    307     1
    302    329     1
    302    325     1
    302    314     1
    302    315     1
    303    304     1
    303    307     1
    303    329     1
    303    325     1
    303    314     1
    303    315     1
    304    308     1
    304    309     1
    304    323     1
    304    324     1
    305    307     1
    305    329     1
    305    322     1
    305    317     1
    305    318     1
    306    307     1
    306    329     1
    306    322     1
    306    317     1
    306    318     1
    307    320     1
    307    321     1
    308    329     1
    308    319     1
    308    311     1
    308    312     1
    309    329     1
    309    319     1
    309    311     1
    309    312     1
    310    329     1
    311    328     1
    311    320     1
    311    321     1
    312    328     1
    312    320     1
    312    321     1
    313    329     1
    314    693     1
    314    326     1
    314    327     1
    315    693     1
    315    326     1
    315    327     1
    316    329     1
    317    670     1
    317    323     1
    317    324     1
    318    670     1
    318    323     1
    318    324     1
    322    669     1
    323    666     1
    324    666     1
    325    692     1
    326    689     1
    327    689     1
    330    344     1
    330    345     1
    330    347     1
    330    348     1
    330    341     1
    330    342     1
    331    335     1
    331    336     1
    331    338     1
    331    339     1
    331    356     1
    331    357     1
    332    334     1
    332    337     1
    332    359     1
    332    355     1
    332    344     1
    332    345     1
    333    334     1
    333    337     1
    333    359     1
    333    355     1
    333    344     1
    333    345     1
    334    338     1
    334    339     1
    334    353     1
    334    354     1
    335    337     1
    335    359     1
    335    352     1
    335    347     1
    335    348     1
    336    337     1
    336    359     1
    336    352     1
    336    347     1
    336    348     1
    337    350     1
    337    351     1
    338    359     1
    338    349     1
    338    341     1
    338    342     1
    339    359     1
    339    349     1
    339    341     1
    339    342     1
    340    359     1
    341    358     1
    341    350     1
    341    351     1
    342    358     1
    342    350     1
    342    351     1
    343    359     1
    344    739     1
    344    356     1
    344    357     1
    345    739     1
    345    356     1
    345    357     1
    346    359     1
    347    716     1
    347    353     1
    347    354     1
    348    716     1
    348    353     1
    348    354     1
    352    715     1
    353    712     1
    354    712     1
    355    738     1
    356    735     1
    357    735     1
    360    374     1
    360    375     1
    360    377     1
    360    378     1
    360    371     1
    360    372     1
    361    365     1
    361    366     1
    361    368     1
    361    369     1
    361    386     1
    361    387     1
    362    364     1
    362    367     1
    362    389     1
    362    385     1
    362    374     1
    362    375     1
    363    364     1
    363    367     1
    363    389     1
    363    385     1
    363    374     1
    363    375     1
    364    368     1
    364    369     1
    364    383     1
    364    384     1
    365    367     1
    365    389     1
    365    382     1
    365    377     1
    365    378     1
    366    367     1
    366    389     1
    366    382     1
    366    377     1
    366    378     1
    367    380     1
    367    381     1
    368    389     1
    368    379     1
    368    371     1
    368    372     1
    369    389     1
    369    379     1
    369    371     1
    369    372     1
    370    389     1
    371    388     1
    371    380     1
    371    381     1
    372    388     1
    372    380     1
    372    381     1
    373    389     1
    374    785     1
    374    386     1
    374    387     1
    375    785     1
    375    386     1
    375    387     1
    376    389     1
    377    762     1
    377    383     1
    377    384     1
    378    762     1
    378    383     1
    378    384     1
    382    761     1
    383    758     1
    384    758     1
    385    784     1
    386    781     1
    387    781     1
    390    404     1
    390    405     1
    390    407     1
    390    408     1
    390    401     1
    390    402     1
    391    395     1
    391    396     1
    391    398     1
    391    399     1
    391    416     1
    391    417     1
    392    394     1
    392    397     1
    392    419     1
    392    415     1
    392    404     1
    392    405     1
    393    394     1
    393    397     1
    393    419     1
    393    415     1
    393    404     1
    393    405     1
    394    398     1
    394    399     1
    394    413     1
    394    414     1
    395    397     1
    395    419     1
    395    412     1
    395    407     1
    395    408     1
    396    397     1
    396    419     1
    396    412     1
    396    407     1
    396    408     1
    397    410     1
    397    411     1
    398    419     1
    398    409     1
    398    401     1
    398    402     1
    399    419     1
    399    409     1
    399    401     1
    399    402     1
    400    419     1
    401    418     1
    401    410     1
    401    411     1
    402    418     1
    402    410     1
    402    411     1
    403    419     1
    404    831     1
    404    416     1
    404    417     1
    405    831     1
    405    416     1
    405    417     1
    406    419     1
    407    808     1
    407    413     1
    407    414     1
    408    808     1
    408    413     1
    408    414     1
    412    807     1
    413    804     1
    414    804     1
    415    830     1
    416    827     1
    417    827     1
    420    434     1
    420    435     1
    420    437     1
    420    438     1
    420    431     1
    420    432     1
    421    425     1
    421    426     1
    421    428     1
    421    429     1
    421    446     1
    421    447     1
    422    424     1
    422    427     1
    422    449     1
    422    445     1
    422    434     1
    422    435     1
    423    424     1
    423    427     1
    423    449     1
    423    445     1
    423    434     1
    423    435     1
    424    428     1
    424    429     1
    424    443     1
    424    444     1
    425    427     1
    425    449     1
    425    442     1
    425    437     1
    425    438     1
    426    427     1
    426    449     1
    426    442     1
    426    437     1
    426    438     1
    427    440     1
    427    441     1
    428    449     1
    428    439     1
    428    431     1
    428    432     1
    429    449     1
    429    439     1
    429    431     1
    429    432     1
    430    449     1
    431    448     1
    431    440     1
    431    441     1
    432    448     1
    432    440     1
    432    441     1
    433    449     1
    434    877     1
    434    446     1
    434    447     1
    435    877     1
    435    446     1
    435    447     1
    436    449     1
    437    854     1
    437    443     1
    437    444     1
    438    854     1
    438    443     1
    438    444     1
    442    853     1
    443    850     1
    444    850     1
    445    876     1
    446    873     1
    447    873     1
    450    464     1
    450    465     1
    450    467     1
    450    468     1
    450    461     1
    450    462     1
    451    455     1
    451    456     1
    451    458     1
    451    459     1
    451    476     1
    451    477     1
    452    454     1
    452    457     1
    452    479     1
    452    475     1
    452    464     1
    452    465     1
    453    454     1
    453    457     1
    453    479     1
    453    475     1
    453    464     1
    453    465     1
    454    458     1
    454    459     1
    454    473     1
    454    474     1
    455    457     1
    455    479     1
    455    472     1
    455    467     1
    455    468     1
    456    457     1
    456    479     1
    456    472     1
    456    467     1
    456    468     1
    457    470     1
    457    471     1
    458    479     1
    458    469     1
    458    461     1
    458    462     1
    459    479     1
    459    469     1
    459    461     1
    459    462     1
    460    479     1
    461    478     1
    461    470     1
    461    471     1
    462    478     1
    462    470     1
    462    471     1
    463    479     1
    464    923     1
    464    476     1
    464    477     1
    465    923     1
    465    476     1
    465    477     1
    466    479     1
    467    900     1
    467    473     1
    467    474     1
    468    900     1
    468    473     1
    468    474     1
    472    899     1
    473    896     1
    474    896     1
    475    922     1
    476    919     1
    477    919     1
    480    494     1
    480    495     1
    480    497     1
    480    498     1
    480    491     1
    480    492     1
    481    485     1
    481    486     1
    481    488     1
    481    489     1
    481    506     1
    481    507     1
    482    484     1
    482    487     1
    482    509     1
    482    505     1
    482    494     1
    482    495     1
    483    484     1
    483    487     1
    483    509     1
    483    505     1
    483    494     1
    483    495     1
    484    488     1
    484    489     1
    484    503     1
    484    504     1
    485    487     1
    485    509     1
    485    502     1
    485    497     1
    485    498     1
    486    487     1
    486    509     1
    486    502     1
    486    497     1
    486    498     1
    487    500     1
    487    501     1
    488    509     1
    488    499     1
    488    491     1
    488    492     1
    489    509     1
    489    499     1
    489    491     1
    489    492     1
    490    509     1
    491    508     1
    491    500     1
    491    501     1
    492    508     1
    492    500     1
    492    501     1
    493    509     1
    494    969     1
    494    506     1
    494    507     1
    495    969     1
    495    506     1
    495    507     1
    496    509     1
    497    946     1
    497    503     1
    497    504     1
    498    946     1
    498    503     1
    498    504     1
    502    945     1
    503    942     1
    504    942     1
    505    968     1
    506    965     1
    507    965     1
    510    524     1
    510    525     1
    510    527     1
    510    528     1
    510    521     1
    510    522     1
    511    515     1
    511    516     1
    511    518     1
    511    519     1
    511    536     1
    511    537     1
    512    514     1
    512    517     1
    512    539     1
    512    535     1
    512    524     1
    512    525     1
    513    514     1
    513    517     1
    513    539     1
    513    535     1
    513    524     1
    513    525     1
    514    518     1
    514    519     1
    514    533     1
    514    534     1
    515    517     1
    515    539     1
    515    532     1
    515    527     1
    515    528     1
    516    517     1
    516    539     1
    516    532     1
    516    527     1
    516    528     1
    517    530     1
    517    531     1
    518    539     1
    518    529     1
    518    521     1
    518    522     1
    519    539     1
    519    529     1
    519    521     1
    519    522     1
    520    539     1
    521    538     1
    521    530     1
    521    531     1
    522    538     1
    522    530     1
    522    531     1
    523    539     1
    524   1015     1
    524    536     1
    524    537     1
    525   1015     1
    525    536     1
    525    537     1
    526    539     1
    527    992     1
    527    533     1
    527    534     1
    528    992     1
    528    533     1
    528    534     1
    532    991     1
    533    988     1
    534    988     1
    535   1014     1
    536   1011     1
    537   1011     1
    540    554     1
    540    555     1
    540    557     1
    540    558     1
    540    551     1
    540    552     1
    541    545     1
    541    546     1
    541    548     1
    541    549     1
    541    566     1
    541    567     1
    542    544     1
    542    547     1
    542    569     1
    542    565     1
    542    554     1
    542    555     1
    543    544     1
    543    547     1
    543    569     1
    543    565     1
    543    554     1
    543    555     1
    544    548     1
    544    549     1
    544    563     1
    544    564     1
    545    547     1
    545    569     1
    545    562     1
    545    557     1
    545    558     1
    546    547     1
    546    569     1
    546    562     1
    546    557     1
    546    558     1
    547    560     1
    547    561     1
    548    569     1
    548    559     1
    548    551     1
    548    552     1
    549    569     1
    549    559     1
    549    551     1
    549    552     1
    550    569     1
    551    568     1
    551    560     1
    551    561     1
    552    568     1
    552    560     1
    552    561     1
    553    569     1
    554   1061     1
    554    566     1
    554    567     1
    555   1061     1
    555    566     1
    555    567     1
    556    569     1
    557   1038     1
    557    563     1
    557    564     1
    558   1038     1
    558    563     1
    558    564     1
    562   1037     1
    563   1034     1
    564   1034     1
    565   1060     1
    566   1057     1
    567   1057     1
    570    584     1
    570    585     1
    570    587     1
    570    588     1
    570    581     1
    570    582     1
    571    575     1
    571    576     1
    571    578     1
    571    579     1
    571    596     1
    571    597     1
    572    574     1
    572    577     1
    572    599     1
    572    595     1
    572    584     1
    572    585     1
    573    574     1
    573    577     1
    573    599     1
    573    595     1
    573    584     1
    573    585     1
    574    578     1
    574    579     1
    574    593     1
    574    594     1
    575    577     1
    575    599     1
    575    592     1
    575    587     1
    575    588     1
    576    577     1
    576    599     1
    576    592     1
    576    587     1
    576    588     1
    577    590     1
    577    591     1
    578    599     1
    578    589     1
    578    581     1
    578    582     1
    579    599     1
    579    589     1
    579    581     1
    579    582     1
    580    599     1
    581    598     1
    581    590     1
    581    591     1
    582    598     1
    582    590     1
    582    591     1
    583    599     1
    584   1107     1
    584    596     1
    584    597     1
    585   1107     1
    585    596     1
    585    597     1
    586    599     1
    587   1084     1
    587    593     1
    587    594     1
    588   1084     1
    588    593     1
    588    594     1
    592   1083     1
    593   1080     1
    594   1080     1
    595   1106     1
    596   1103     1
    597   1103     1
    600    614     1
    600    615     1
    600    617     1
    600    618     1
    600    611     1
    600    612     1
    601    605     1
    601    606     1
    601    608     1
    601    609     1
    601    626     1
    601    627     1
    602    604     1
    602    607     1
    602    629     1
    602    625     1
    602    614     1
    602    615     1
    603    604     1
    603    607     1
    603    629     1
    603    625     1
    603    614     1
    603    615     1
    604    608     1
    604    609     1
    604    623     1
    604    624     1
    605    607     1
    605    629     1
    605    622     1
    605    617     1
    605    618     1
    606    607     1
    606    629     1
    606    622     1
    606    617     1
    606    618     1
    607    620     1
    607    621     1
    608    629     1
    608    619     1
    608    611     1
    608    612     1
    609    629     1
    609    619     1
    609    611     1
    609    612     1
    610    629     1
    611    628     1
    611    620     1
    611    621     1
    612    628     1
    612    620     1
    612    621     1
    613    629     1
    614   1153     1
    614    626     1
    614    627     1
    615   1153     1
    615    626     1
    615    627     1
    616    629     1
    617   1130     1
    617    623     1
    617    624     1
    618   1130     1
    618    623     1
    618    624     1
    622   1129     1
    623   1126     1
    624   1126     1
    625   1152     1
    626   1149     1
    627   1149     1
    630    644     1
    630    645     1
    630    647     1
    630    648     1
    630    641     1
    630    642     1
    631    635     1
    631    636     1
    631    638     1
    631    639     1
    631    656     1
    631    657     1
    632    634     1
    632    637     1
    632    659     1
    632    655     1
    632    644     1
    632    645     1
    633    634     1
    633    637     1
    633    659     1
    633    655     1
    633    644     1
    633    645     1
    634    638     1
    634    639     1
    634    653     1
    634    654     1
    635    637     1
    635    659     1
    635    652     1
    635    647     1
    635    648     1
    636    637     1
    636    659     1
    636    652     1
    636    647     1
    636    648     1
    637    650     1
    637    651     1
    638    659     1
    638    649     1
    638    641     1
    638    642     1
    639    659     1
    639    649     1
    639    641     1
    639    642     1
    640    659     1
    641    658     1
    641    650     1
    641    651     1
    642    658     1
    642    650     1
    642    651     1
    643    659     1
    644   1199     1
    644    656     1
    644    657     1
    645   1199     1
    645    656     1
    645    657     1
    646    659     1
    647   1176     1
    647    653     1
    647    654     1
    648   1176     1
    648    653     1
    648    654     1
    652   1175     1
    653   1172     1
    654   1172     1
    655   1198     1
    656   1195     1
    657   1195     1
    660    668     1
    660    676     1
    660    681     1
    660    669     1
    661    678     1
    661    679     1
    661    667     1
    661    675     1
    662    664     1
    662    673     1
    662    663     1
    662    680     1
    662    678     1
    662    679     1
    662    666     1
    663    674     1
    663    682     1
    663    665     1
    663    672     1
    663    668     1
    663    676     1
    664    676     1
    664    669     1
    664    677     1
    665    675     1
    666    668     1
    666    677     1
    667    672     1
    667    668     1
    667    670     1
    667    682     1
    667    669     1
    667    677     1
    668    673     1
    668    671     1
    668    675     1
    669    671     1
    678    682     1
    678    681     1
    679    682     1
    679    681     1
    683    691     1
    683    699     1
    683    704     1
    683    692     1
    684    690     1
    684    698     1
    684    701     1
    684    702     1
    685    687     1
    685    696     1
    685    686     1
    685    703     1
    685    701     1
    685    702     1
    685    689     1
    686    688     1
    686    695     1
    686    691     1
    686    699     1
    686    697     1
    686    705     1
    687    692     1
    687    700     1
    687    699     1
    688    698     1
    689    700     1
    689    691     1
    690    693     1
    690    705     1
    690    692     1
    690    700     1
    690    695     1
    690    691     1
    691    694     1
    691    698     1
    691    696     1
    692    694     1
    701    704     1
    701    705     1
    702    704     1
    702    705     1
    706    714     1
    706    722     1
    706    727     1
    706    715     1
    707    724     1
    707    725     1
    707    713     1
    707    721     1
    708    710     1
    708    719     1
    708    709     1
    708    726     1
    708    724     1
    708    725     1
    708    712     1
    709    720     1
    709    728     1
    709    711     1
    709    718     1
    709    714     1
    709    722     1
    710    722     1
    710    715     1
    710    723     1
    711    721     1
    712    714     1
    712    723     1
    713    718     1
    713    714     1
    713    716     1
    713    728     1
    713    715     1
    713    723     1
    714    719     1
    714    717     1
    714    721     1
    715    717     1
    724    728     1
    724    727     1
    725    728     1
    725    727     1
    729    737     1
    729    745     1
    729    750     1
    729    738     1
    730    736     1
    730    744     1
    730    747     1
    730    748     1
    731    733     1
    731    742     1
    731    732     1
    731    749     1
    731    747     1
    731    748     1
    731    735     1
    732    734     1
    732    741     1
    732    737     1
    732    745     1
    732    743     1
    732    751     1
    733    738     1
    733    746     1
    733    745     1
    734    744     1
    735    746     1
    735    737     1
    736    739     1
    736    751     1
    736    738     1
    736    746     1
    736    741     1
    736    737     1
    737    740     1
    737    744     1
    737    742     1
    738    740     1
    747    750     1
    747    751     1
    748    750     1
    748    751     1
    752    760     1
    752    768     1
    752    773     1
    752    761     1
    753    770     1
    753    771     1
    753    759     1
    753    767     1
    754    756     1
    754    765     1
    754    755     1
    754    772     1
    754    770     1
    754    771     1
    754    758     1
    755    766     1
    755    774     1
    755    757     1
    755    764     1
    755    760     1
    755    768     1
    756    768     1
    756    761     1
    756    769     1
    757    767     1
    758    760     1
    758    769     1
    759    764     1
    759    760     1
    759    762     1
    759    774     1
    759    761     1
    759    769     1
    760    765     1
    760    763     1
    760    767     1
    761    763     1
    770    774     1
    770    773     1
    771    774     1
    771    773     1
    775    783     1
    775    791     1
    775    796     1
    775    784     1
    776    782     1
    776    790     1
    776    793     1
    776    794     1
    777    779     1
    777    788     1
    777    778     1
    777    795     1
    777    793     1
    777    794     1
    777    781     1
    778    780     1
    778    787     1
    778    783     1
    778    791     1
    778    789     1
    778    797     1
    779    784     1
    779    792     1
    779    791     1
    780    790     1
    781    792     1
    781    783     1
    782    785     1
    782    797     1
    782    784     1
    782    792     1
    782    787     1
    782    783     1
    783    786     1
    783    790     1
    783    788     1
    784    786     1
    793    796     1
    793    797     1
    794    796     1
    794    797     1
    798    806     1
    798    814     1
    798    819     1
    798    807     1
    799    816     1
    799    817     1
    799    805     1
    799    813     1
    800    802     1
    800    811     1
    800    801     1
    800    818     1
    800    816     1
    800    817     1
    800    804     1
    801    812     1
    801    820     1
    801    803     1
    801    810     1
    801    806     1
    801    814     1
    802    814     1
    802    807     1
    802    815     1
    803    813     1
    804    806     1
    804    815     1
    805    810     1
    805    806     1
    805    808     1
    805    820     1
    805    807     1
    805    815     1
    806    811     1
    806    809     1
    806    813     1
    807    809     1
    816    820     1
    816    819     1
    817    820     1
    817    819     1
    821    829     1
    821    837     1
    821    842     1
    821    830     1
    822    828     1
    822    836     1
    822    839     1
    822    840     1
    823    825     1
    823    834     1
    823    824     1
    823    841     1
    823    839     1
    823    840     1
    823    827     1
    824    826     1
    824    833     1
    824    829     1
    824    837     1
    824    835     1
    824    843     1
    825    830     1
    825    838     1
    825    837     1
    826    836     1
    827    838     1
    827    829     1
    828    831     1
    828    843     1
    828    830     1
    828    838     1
    828    833     1
    828    829     1
    829    832     1
    829    836     1
    829    834     1
    830    832     1
    839    842     1
    839    843     1
    840    842     1
    840    843     1
    844    852     1
    844    860     1
    844    865     1
    844    853     1
    845    862     1
    845    863     1
    845    851     1
    845    859     1
    846    848     1
    846    857     1
    846    847     1
    846    864     1
    846    862     1
    846    863     1
    846    850     1
    847    858     1
    847    866     1
    847    849     1
    847    856     1
    847    852     1
    847    860     1
    848    860     1
    848    853     1
    848    861     1
    849    859     1
    850    852     1
    850    861     1
    851    856     1
    851    852     1
    851    854     1
    851    866     1
    851    853     1
    851    861     1
    852    857     1
    852    855     1
    852    859     1
    853    855     1
    862    866     1
    862    865     1
    863    866     1
    863    865     1
    867    875     1
    867    883     1
    867    888     1
    867    876     1
    868    874     1
    868    882     1
    868    885     1
    868    886     1
    869    871     1
    869    880     1
    869    870     1
    869    887     1
    869    885     1
    869    886     1
    869    873     1
    870    872     1
    870    879     1
    870    875     1
    870    883     1
    870    881     1
    870    889     1
    871    876     1
    871    884     1
    871    883     1
    872    882     1
    873    884     1
    873    875     1
    874    877     1
    874    889     1
    874    876     1
    874    884     1
    874    879     1
    874    875     1
    875    878     1
    875    882     1
    875    880     1
    876    878     1
    885    888     1
    885    889     1
    886    888     1
    886    889     1
    890    898     1
    890    906     1
    890    911     1
    890    899     1
    891    908     1
    891    909     1
    891    897     1
    891    905     1
    892    894     1
    892    903     1
    892    893     1
    892    910     1
    892    908     1
    892    909     1
    892    896     1
    893    904     1
    893    912     1
    893    895     1
    893    902     1
    893    898     1
    893    906     1
    894    906     1
    894    899     1
    894    907     1
    895    905     1
    896    898     1
    896    907     1
    897    902     1
    897    898     1
    897    900     1
    897    912     1
    897    899     1
    897    907     1
    898    903     1
    898    901     1
    898    905     1
    899    901     1
    908    912     1
    908    911     1
    909    912     1
    909    911     1
    913    921     1
    913    929     1
    913    934     1
    913    922     1
    914    920     1
    914    928     1
    914    931     1
    914    932     1
    915    917     1
    915    926     1
    915    916     1
    915    933     1
    915    931     1
    915    932     1
    915    919     1
    916    918     1
    916    925     1
    916    921     1
    916    929     1
    916    927     1
    916    935     1
    917    922     1
    917    930     1
    917    929     1
    918    928     1
    919    930     1
    919    921     1
    920    923     1
    920    935     1
    920    922     1
    920    930     1
    920    925     1
    920    921     1
    921    924     1
    921    928     1
    921    926     1
    922    924     1
    931    934     1
    931    935     1
    932    934     1
    932    935     1
    936    944     1
    936    952     1
    936    957     1
    936    945     1
    937    954     1
    937    955     1
    937    943     1
    937    951     1
    938    940     1
    938    949     1
    938    939     1
    938    956     1
    938    954     1
    938    955     1
    938    942     1
    939    950     1
    939    958     1
    939    941     1
    939    948     1
    939    944     1
    939    952     1
    940    952     1
    940    945     1
    940    953     1
    941    951     1
    942    944     1
    942    953     1
    943    948     1
    943    944     1
    943    946     1
    943    958     1
    943    945     1
    943    953     1
    944    949     1
    944    947     1
    944    951     1
    945    947     1
    954    958     1
    954    957     1
    955    958     1
    955    957     1
    959    967     1
    959    975     1
    959    980     1
    959    968     1
    960    966     1
    960    974     1
    960    977     1
    960    978     1
    961    963     1
    961    972     1
    961    962     1
    961    979     1
    961    977     1
    961    978     1
    961    965     1
    962    964     1
    962    971     1
    962    967     1
    962    975     1
    962    973     1
    962    981     1
    963    968     1
    963    976     1
    963    975     1
    964    974     1
    965    976     1
    965    967     1
    966    969     1
    966    981     1
    966    968     1
    966    976     1
    966    971     1
    966    967     1
    967    970     1
    967    974     1
    967    972     1
    968    970     1
    977    980     1
    977    981     1
    978    980     1
    978    981     1
    982    990     1
    982    998     1
    982   1003     1
    982    991     1
    983   1000     1
    983   1001     1
    983    989     1
    983    997     1
    984    986     1
    984    995     1
    984    985     1
    984   1002     1
    984   1000     1
    984   1001     1
    984    988     1
    985    996     1
    985   1004     1
    985    987     1
    985    994     1
    985    990     1
    985    998     1
    986    998     1
    986    991     1
    986    999     1
    987    997     1
    988    990     1
    988    999     1
    989    994     1
    989    990     1
    989    992     1
    989   1004     1
    989    991     1
    989    999     1
    990    995     1
    990    993     1
    990    997     1
    991    993     1
   1000   1004     1
   1000   1003     1
   1001   1004     1
   1001   1003     1
   1005   1013     1
   1005   1021     1
   1005   1026     1
   1005   1014     1
   1006   1012     1
   1006   1020     1
   1006   1023     1
   1006   1024     1
   1007   1009     1
   1007   1018     1
   1007   1008     1
   1007   1025     1
   1007   1023     1
   1007   1024     1
   1007   1011     1
   1008   1010     1
   1008   1017     1
   1008   1013     1
   1008   1021     1
   1008   1019     1
   1008   1027     1
   1009   1014     1
   1009   1022     1
   1009   1021     1
   1010   1020     1
   1011   1022     1
   1011   1013     1
   1012   1015     1
   1012   1027     1
   1012   1014     1
   1012   1022     1
   1012   1017     1
   1012   1013     1
   1013   1016     1
   1013   1020     1
   1013   1018     1
   1014   1016     1
   1023   1026     1
   1023   1027     1
   1024   1026     1
   1024   1027     1
   1028   1036     1
   1028   1044     1
   1028   1049     1
   1028   1037     1
   1029   1046     1
   1029   1047     1
   1029   1035     1
   1029   1043     1
   1030   1032     1
   1030   1041     1
   1030   1031     1
   1030   1048     1
   1030   1046     1
   1030   1047     1
   1030   1034     1
   1031   1042     1
   1031   1050     1
   1031   1033     1
   1031   1040     1
   1031   1036     1
   1031   1044     1
   1032   1044     1
   1032   1037     1
   1032   1045     1
   1033   1043     1
   1034   1036     1
   1034   1045     1
   1035   1040     1
   1035   1036     1
   1035   1038     1
   1035   1050     1
   1035   1037     1
   1035   1045     1
   1036   1041     1
   1036   1039     1
   1036   1043     1
   1037   1039     1
   1046   1050     1
   1046   1049     1
   1047   1050     1
   1047   1049     1
   1051   1059     1
   1051   1067     1
   1051   1072     1
   1051   1060     1
   1052   1058     1
   1052   1066     1
   1052   1069     1
   1052   1070     1
   1053   1055     1
   1053   1064     1
   1053   1054     1
   1053   1071     1
   1053   1069     1
   1053   1070     1
   1053   1057     1
   1054   1056     1
   1054   1063     1
   1054   1059     1
   1054   1067     1
   1054   1065     1
   1054   1073     1
   1055   1060     1
   1055   1068     1
   1055   1067     1
   1056   1066     1
   1057   1068     1
   1057   1059     1
   1058   1061     1
   1058   1073     1
   1058   1060     1
   1058   1068     1
   1058   1063     1
   1058   1059     1
   1059   1062     1
   1059   1066     1
   1059   1064     1
   1060   1062     1
   1069   1072     1
   1069   1073     1
   1070   1072     1
   1070   1073     1
   1074   1082     1
   1074   1090     1
   1074   1095     1
   1074   1083     1
   1075   1092     1
   1075   1093     1
   1075   1081     1
   1075   1089     1
   1076   1078     1
   1076   1087     1
   1076   1077     1
   1076   1094     1
   1076   1092     1
   1076   1093     1
   1076   1080     1
   1077   1088     1
   1077   1096     1
   1077   1079     1
   1077   1086     1
   1077   1082     1
   1077   1090     1
   1078   1090     1
   1078   1083     1
   1078   1091     1
   1079   1089     1
   1080   1082     1
   1080   1091     1
   1081   1086     1
   1081   1082     1
   1081   1084     1
   1081   1096     1
   1081   1083     1
   1081   1091     1
   1082   1087     1
   1082   1085     1
   1082   1089     1
   1083   1085     1
   1092   1096     1
   1092   1095     1
   1093   1096     1
   1093   1095     1
   1097   1105     1
   1097   1113     1
   1097   1118     1
   1097   1106     1
   1098   1104     1
   1098   1112     1
   1098   1115     1
   1098   1116     1
   1099   1101     1
   1099   1110     1
   1099   1100     1
   1099   1117     1
   1099   1115     1
   1099   1116     1
   1099   1103     1
   1100   1102     1
   1100   1109     1
   1100   1105     1
   1100   1113     1
   1100   1111     1
   1100   1119     1
   1101   1106     1
   1101   1114     1
   1101   1113     1
   1102   1112     1
   1103   1114     1
   1103   1105     1
   1104   1107     1
   1104   1119     1
   1104   1106     1
   1104   1114     1
   1104   1109     1
   1104   1105     1
   1105   1108     1
   1105   1112     1
   1105   1110     1
   1106   1108     1
   1115   1118     1
   1115   1119     1
   1116   1118     1
   1116   1119     1
   1120   1128     1
   1120   1136     1
   1120   1141     1
   1120   1129     1
   1121   1138     1
   1121   1139     1
   1121   1127     1
   1121   1135     1
   1122   1124     1
   1122   1133     1
   1122   1123     1
   1122   1140     1
   1122   1138     1
   1122   1139     1
   1122   1126     1
   1123   1134     1
   1123   1142     1
   1123   1125     1
   1123   1132     1
   1123   1128     1
   1123   1136     1
   1124   1136     1
   1124   1129     1
   1124   1137     1
   1125   1135     1
   1126   1128     1
   1126   1137     1
   1127   1132     1
   1127   1128     1
   1127   1130     1
   1127   1142     1
   1127   1129     1
   1127   1137     1
   1128   1133     1
   1128   1131     1
   1128   1135     1
   1129   1131     1
   1138   1142     1
   1138   1141     1
   1139   1142     1
   1139   1141     1
   1143   1151     1
   1143   1159     1
   1143   1164     1
   1143   1152     1
   1144   1150     1
   1144   1158     1
   1144   1161     1
   1144   1162     1
   1145   1147     1
   1145   1156     1
   1145   1146     1
   1145   1163     1
   1145   1161     1
   1145   1162     1
   1145   1149     1
   1146   1148     1
   1146   1155     1
   1146   1151     1
   1146   1159     1
   1146   1157     1
   1146   1165     1
   1147   1152     1
   1147   1160     1
   1147   1159     1
   1148   1158     1
   1149   1160     1
   1149   1151     1
   1150   1153     1
   1150   1165     1
   1150   1152     1
   1150   1160     1
   1150   1155     1
   1150   1151     1
   1151   1154     1
   1151   1158     1
   1151   1156     1
   1152   1154     1
   1161   1164     1
   1161   1165     1
   1162   1164     1
   1162   1165     1
   1166   1174     1
   1166   1182     1
   1166   1187     1
   1166   1175     1
   1167   1184     1
   1167   1185     1
   1167   1173     1
   1167   1181     1
   1168   1170     1
   1168   1179     1
   1168   1169     1
   1168   1186     1
   1168   1184     1
   1168   1185     1
   1168   1172     1
   1169   1180     1
   1169   1188     1
   1169   1171     1
   1169   1178     1
   1169   1174     1
   1169   1182     1
   1170   1182     1
   1170   1175     1
   1170   1183     1
   1171   1181     1
   1172   1174     1
   1172   1183     1
   1173   1178     1
   1173   1174     1
   1173   1176     1
   1173   1188     1
   1173   1175     1
   1173   1183     1
   1174   1179     1
   1174   1177     1
   1174   1181     1
   1175   1177     1
   1184   1188     1
   1184   1187     1
   1185   1188     1
   1185   1187     1
   1189   1197     1
   1189   1205     1
   1189   1210     1
   1189   1198     1
   1190   1196     1
   1190   1204     1
   1190   1207     1
   1190   1208     1
   1191   1193     1
   1191   1202     1
   1191   1192     1
   1191   1209     1
   1191   1207     1
   1191   1208     1
   1191   1195     1
   1192   1194     1
   1192   1201     1
   1192   1197     1
   1192   1205     1
   1192   1203     1
   1192   1211     1
   1193   1198     1
   1193   1206     1
   1193   1205     1
   1194   1204     1
   1195   1206     1
   1195   1197     1
   1196   1199     1
   1196   1211     1
   1196   1198     1
   1196   1206     1
   1196   1201     1
   1196   1197     1
   1197   1200     1
   1197   1204     1
   1197   1202     1
   1198   1200     1
   1207   1210     1
   1207   1211     1
   1208   1210     1
   1208   1211     1

[ angles ]
;    ai     aj     ak funct         c0         c1         c2         c3
      1      2     14     1   114.2100488 537.225600
      1      5     17     1   114.2100488 537.225600
      1      8     11     1   114.2100488 537.225600
      2      1      5     1   109.6600471 523.836800
      2      1      8     1   109.6600471 523.836800
      2     14     26     1   111.5100476 526.347200
      5      1      8     1   109.6600471 523.836800
      5     17     20     1   111.5100476 526.347200
      8     11     23     1   111.5100476 526.347200
     11     23     88     1   107.9700462 569.024000
     14     26    118     1   107.9700462 569.024000
     17     20     58     1   107.9700462 569.024000
     20     58     49     1   112.4800480 524.673600
     23     88     79     1   112.4800480 524.673600
     26    118    109     1   112.4800480 524.673600
     30     31     43     1   114.2100488 537.225600
     30     34     46     1   114.2100488 537.225600
     30     37     40     1   114.2100488 537.225600
     31     30     34     1   109.6600471 523.836800
     31     30     37     1   109.6600471 523.836800
     31     43     55     1   111.5100476 526.347200
     34     30     37     1   109.6600471 523.836800
     34     46     52     1   111.5100476 526.347200
     37     40     49     1   111.5100476 526.347200
     40     49     58     1   107.9700462 569.024000
     43     55    178     1   107.9700462 569.024000
     46     52    148     1   107.9700462 569.024000
     52    148    139     1   112.4800480 524.673600
     55    178    169     1   112.4800480 524.673600
     60     61     73     1   114.2100488 537.225600
     60     64     76     1   114.2100488 537.225600
     60     67     70     1   114.2100488 537.225600
     61     60     64     1   109.6600471 523.836800
     61     60     67     1   109.6600471 523.836800
     61     73     85     1   111.5100476 526.347200
     64     60     67     1   109.6600471 523.836800
     64     76     82     1   111.5100476 526.347200
     67     70     79     1   111.5100476 526.347200
     70     79     88     1   107.9700462 569.024000
     73     85    238     1   107.9700462 569.024000
     76     82    208     1   107.9700462 569.024000
     82    208    199     1   112.4800480 524.673600
     85    238    229     1   112.4800480 524.673600
     90     91    103     1   114.2100488 537.225600
     90     94    106     1   114.2100488 537.225600
     90     97    100     1   114.2100488 537.225600
     91     90     94     1   109.6600471 523.836800
     91     90     97     1   109.6600471 523.836800
     91    103    115     1   111.5100476 526.347200
     94     90     97     1   109.6600471 523.836800
     94    106    112     1   111.5100476 526.347200
     97    100    109     1   111.5100476 526.347200
    100    109    118     1   107.9700462 569.024000
    103    115    298     1   107.9700462 569.024000
    106    112    268     1   107.9700462 569.024000
    112    268    259     1   112.4800480 524.673600
    115    298    289     1   112.4800480 524.673600
    120    121    133     1   114.2100488 537.225600
    120    124    136     1   114.2100488 537.225600
    120    127    130     1   114.2100488 537.225600
    121    120    124     1   109.6600471 523.836800
    121    120    127     1   109.6600471 523.836800
    121    133    145     1   111.5100476 526.347200
    124    120    127     1   109.6600471 523.836800
    124    136    142     1   111.5100476 526.347200
    127    130    139     1   111.5100476 526.347200
    130    139    148     1   107.9700462 569.024000
    133    145    358     1   107.9700462 569.024000
    136    142    328     1   107.9700462 569.024000
    142    328    319     1   112.4800480 524.673600
    145    358    349     1   112.4800480 524.673600
    150    151    163     1   114.2100488 537.225600
    150    154    166     1   114.2100488 537.225600
    150    157    160     1   114.2100488 537.225600
    151    150    154     1   109.6600471 523.836800
    151    150    157     1   109.6600471 523.836800
    151    163    175     1   111.5100476 526.347200
    154    150    157     1   109.6600471 523.836800
    154    166    172     1   111.5100476 526.347200
    157    160    169     1   111.5100476 526.347200
    160    169    178     1   107.9700462 569.024000
    163    175    418     1   107.9700462 569.024000
    166    172    388     1   107.9700462 569.024000
    172    388    379     1   112.4800480 524.673600
    175    418    409     1   112.4800480 524.673600
    180    181    193     1   114.2100488 537.225600
    180    184    196     1   114.2100488 537.225600
    180    187    190     1   114.2100488 537.225600
    181    180    184     1   109.6600471 523.836800
    181    180    187     1   109.6600471 523.836800
    181    193    205     1   111.5100476 526.347200
    184    180    187     1   109.6600471 523.836800
    184    196    202     1   111.5100476 526.347200
    187    190    199     1   111.5100476 526.347200
    190    199    208     1   107.9700462 569.024000
    193    205    478     1   107.9700462 569.024000
    196    202    448     1   107.9700462 569.024000
    202    448    439     1   112.4800480 524.673600
    205    478    469     1   112.4800480 524.673600
    210    211    223     1   114.2100488 537.225600
    210    214    226     1   114.2100488 537.225600
    210    217    220     1   114.2100488 537.225600
    211    210    214     1   109.6600471 523.836800
    211    210    217     1   109.6600471 523.836800
    211    223    235     1   111.5100476 526.347200
    214    210    217     1   109.6600471 523.836800
    214    226    232     1   111.5100476 526.347200
    217    220    229     1   111.5100476 526.347200
    220    229    238     1   107.9700462 569.024000
    223    235    538     1   107.9700462 569.024000
    226    232    508     1   107.9700462 569.024000
    232    508    499     1   112.4800480 524.673600
    235    538    529     1   112.4800480 524.673600
    240    241    253     1   114.2100488 537.225600
    240    244    256     1   114.2100488 537.225600
    240    247    250     1   114.2100488 537.225600
    241    240    244     1   109.6600471 523.836800
    241    240    247     1   109.6600471 523.836800
    241    253    265     1   111.5100476 526.347200
    244    240    247     1   109.6600471 523.836800
    244    256    262     1   111.5100476 526.347200
    247    250    259     1   111.5100476 526.347200
    250    259    268     1   107.9700462 569.024000
    253    265    598     1   107.9700462 569.024000
    256    262    568     1   107.9700462 569.024000
    262    568    559     1   112.4800480 524.673600
    265    598    589     1   112.4800480 524.673600
    270    271    283     1   114.2100488 537.225600
    270    274    286     1   114.2100488 537.225600
    270    277    280     1   114.2100488 537.225600
    271    270    274     1   109.6600471 523.836800
    271    270    277     1   109.6600471 523.836800
    271    283    295     1   111.5100476 526.347200
    274    270    277     1   109.6600471 523.836800
    274    286    292     1   111.5100476 526.347200
    277    280    289     1   111.5100476 526.347200
    280    289    298     1   107.9700462 569.024000
    283    295    658     1   107.9700462 569.024000
    286    292    628     1   107.9700462 569.024000
    292    628    619     1   112.4800480 524.673600
    295    658    649     1   112.4800480 524.673600
    300    301    313     1   114.2100488 537.225600
    300    304    316     1   114.2100488 537.225600
    300    307    310     1   114.2100488 537.225600
    301    300    304     1   109.6600471 523.836800
    301    300    307     1   109.6600471 523.836800
    301    313    325     1   111.5100476 526.347200
    304    300    307     1   109.6600471 523.836800
    304    316    322     1   111.5100476 526.347200
    307    310    319     1   111.5100476 526.347200
    310    319    328     1   107.9700462 569.024000
    313    325    693     1   107.9700462 569.024000
    316    322    670     1   107.9700462 569.024000
    322    670    666     1   112.4800480 524.673600
    325    693    689     1   112.4800480 524.673600
    330    331    343     1   114.2100488 537.225600
    330    334    346     1   114.2100488 537.225600
    330    337    340     1   114.2100488 537.225600
    331    330    334     1   109.6600471 523.836800
    331    330    337     1   109.6600471 523.836800
    331    343    355     1   111.5100476 526.347200
    334    330    337     1   109.6600471 523.836800
    334    346    352     1   111.5100476 526.347200
    337    340    349     1   111.5100476 526.347200
    340    349    358     1   107.9700462 569.024000
    343    355    739     1   107.9700462 569.024000
    346    352    716     1   107.9700462 569.024000
    352    716    712     1   112.4800480 524.673600
    355    739    735     1   112.4800480 524.673600
    360    361    373     1   114.2100488 537.225600
    360    364    376     1   114.2100488 537.225600
    360    367    370     1   114.2100488 537.225600
    361    360    364     1   109.6600471 523.836800
    361    360    367     1   109.6600471 523.836800
    361    373    385     1   111.5100476 526.347200
    364    360    367     1   109.6600471 523.836800
    364    376    382     1   111.5100476 526.347200
    367    370    379     1   111.5100476 526.347200
    370    379    388     1   107.9700462 569.024000
    373    385    785     1   107.9700462 569.024000
    376    382    762     1   107.9700462 569.024000
    382    762    758     1   112.4800480 524.673600
    385    785    781     1   112.4800480 524.673600
    390    391    403     1   114.2100488 537.225600
    390    394    406     1   114.2100488 537.225600
    390    397    400     1   114.2100488 537.225600
    391    390    394     1   109.6600471 523.836800
    391    390    397     1   109.6600471 523.836800
    391    403    415     1   111.5100476 526.347200
    394    390    397     1   109.6600471 523.836800
    394    406    412     1   111.5100476 526.347200
    397    400    409     1   111.5100476 526.347200
    400    409    418     1   107.9700462 569.024000
    403    415    831     1   107.9700462 569.024000
    406    412    808     1   107.9700462 569.024000
    412    808    804     1   112.4800480 524.673600
    415    831    827     1   112.4800480 524.673600
    420    421    433     1   114.2100488 537.225600
    420    424    436     1   114.2100488 537.225600
    420    427    430     1   114.2100488 537.225600
    421    420    424     1   109.6600471 523.836800
    421    420    427     1   109.6600471 523.836800
    421    433    445     1   111.5100476 526.347200
    424    420    427     1   109.6600471 523.836800
    424    436    442     1   111.5100476 526.347200
    427    430    439     1   111.5100476 526.347200
    430    439    448     1   107.9700462 569.024000
    433    445    877     1   107.9700462 569.024000
    436    442    854     1   107.9700462 569.024000
    442    854    850     1   112.4800480 524.673600
    445    877    873     1   112.4800480 524.673600
    450    451    463     1   114.2100488 537.225600
    450    454    466     1   114.2100488 537.225600
    450    457    460     1   114.2100488 537.225600
    451    450    454     1   109.6600471 523.836800
    451    450    457     1   109.6600471 523.836800
    451    463    475     1   111.5100476 526.347200
    454    450    457     1   109.6600471 523.836800
    454    466    472     1   111.5100476 526.347200
    457    460    469     1   111.5100476 526.347200
    460    469    478     1   107.9700462 569.024000
    463    475    923     1   107.9700462 569.024000
    466    472    900     1   107.9700462 569.024000
    472    900    896     1   112.4800480 524.673600
    475    923    919     1   112.4800480 524.673600
    480    481    493     1   114.2100488 537.225600
    480    484    496     1   114.2100488 537.225600
    480    487    490     1   114.2100488 537.225600
    481    480    484     1   109.6600471 523.836800
    481    480    487     1   109.6600471 523.836800
    481    493    505     1   111.5100476 526.347200
    484    480    487     1   109.6600471 523.836800
    484    496    502     1   111.5100476 526.347200
    487    490    499     1   111.5100476 526.347200
    490    499    508     1   107.9700462 569.024000
    493    505    969     1   107.9700462 569.024000
    496    502    946     1   107.9700462 569.024000
    502    946    942     1   112.4800480 524.673600
    505    969    965     1   112.4800480 524.673600
    510    511    523     1   114.2100488 537.225600
    510    514    526     1   114.2100488 537.225600
    510    517    520     1   114.2100488 537.225600
    511    510    514     1   109.6600471 523.836800
    511    510    517     1   109.6600471 523.836800
    511    523    535     1   111.5100476 526.347200
    514    510    517     1   109.6600471 523.836800
    514    526    532     1   111.5100476 526.347200
    517    520    529     1   111.5100476 526.347200
    520    529    538     1   107.9700462 569.024000
    523    535   1015     1   107.9700462 569.024000
    526    532    992     1   107.9700462 569.024000
    532    992    988     1   112.4800480 524.673600
    535   1015   1011     1   112.4800480 524.673600
    540    541    553     1   114.2100488 537.225600
    540    544    556     1   114.2100488 537.225600
    540    547    550     1   114.2100488 537.225600
    541    540    544     1   109.6600471 523.836800
    541    540    547     1   109.6600471 523.836800
    541    553    565     1   111.5100476 526.347200
    544    540    547     1   109.6600471 523.836800
    544    556    562     1   111.5100476 526.347200
    547    550    559     1   111.5100476 526.347200
    550    559    568     1   107.9700462 569.024000
    553    565   1061     1   107.9700462 569.024000
    556    562   1038     1   107.9700462 569.024000
    562   1038   1034     1   112.4800480 524.673600
    565   1061   1057     1   112.4800480 524.673600
    570    571    583     1   114.2100488 537.225600
    570    574    586     1   114.2100488 537.225600
    570    577    580     1   114.2100488 537.225600
    571    570    574     1   109.6600471 523.836800
    571    570    577     1   109.6600471 523.836800
    571    583    595     1   111.5100476 526.347200
    574    570    577     1   109.6600471 523.836800
    574    586    592     1   111.5100476 526.347200
    577    580    589     1   111.5100476 526.347200
    580    589    598     1   107.9700462 569.024000
    583    595   1107     1   107.9700462 569.024000
    586    592   1084     1   107.9700462 569.024000
    592   1084   1080     1   112.4800480 524.673600
    595   1107   1103     1   112.4800480 524.673600
    600    601    613     1   114.2100488 537.225600
    600    604    616     1   114.2100488 537.225600
    600    607    610     1   114.2100488 537.225600
    601    600    604     1   109.6600471 523.836800
    601    600    607     1   109.6600471 523.836800
    601    613    625     1   111.5100476 526.347200
    604    600    607     1   109.6600471 523.836800
    604    616    622     1   111.5100476 526.347200
    607    610    619     1   111.5100476 526.347200
    610    619    628     1   107.9700462 569.024000
    613    625   1153     1   107.9700462 569.024000
    616    622   1130     1   107.9700462 569.024000
    622   1130   1126     1   112.4800480 524.673600
    625   1153   1149     1   112.4800480 524.673600
    630    631    643     1   114.2100488 537.225600
    630    634    646     1   114.2100488 537.225600
    630    637    640     1   114.2100488 537.225600
    631    630    634     1   109.6600471 523.836800
    631    630    637     1   109.6600471 523.836800
    631    643    655     1   111.5100476 526.347200
    634    630    637     1   109.6600471 523.836800
    634    646    652     1   111.5100476 526.347200
    637    640    649     1   111.5100476 526.347200
    640    649    658     1   107.9700462 569.024000
    643    655   1199     1   107.9700462 569.024000
    646    652   1176     1   107.9700462 569.024000
    652   1176   1172     1   112.4800480 524.673600
    655   1199   1195     1   112.4800480 524.673600
    660    661    664     1   111.5100476 526.347200
    660    661    673     1   110.1900474 564.840000
    660    674    680     1   110.1900474 564.840000
    660    682    666     1   112.4800480 524.673600
    661    660    674     1   111.5100476 526.347200
    661    660    682     1   107.9700462 569.024000
    661    664    665     1   111.5100476 526.347200
    661    664    672     1   110.1900474 564.840000
    664    661    673     1   110.1900474 564.840000
    664    665    666     1   111.5100476 526.347200
    664    665    671     1   110.1900474 564.840000
    665    664    672     1   110.1900474 564.840000
    665    666    670     1   107.9700462 569.024000
    665    666    682     1   107.9700462 569.024000
    666    665    671     1   110.1900474 564.840000
    670    666    682     1   108.2900466 608.353600
    674    660    682     1   107.9700462 569.024000
    683    684    687     1   111.5100476 526.347200
    683    684    696     1   110.1900474 564.840000
    683    697    703     1   110.1900474 564.840000
    683    705    689     1   112.4800480 524.673600
    684    687    688     1   111.5100476 526.347200
    684    687    695     1   110.1900474 564.840000
    684    683    697     1   111.5100476 526.347200
    684    683    705     1   107.9700462 569.024000
    687    688    689     1   111.5100476 526.347200
    687    688    694     1   110.1900474 564.840000
    687    684    696     1   110.1900474 564.840000
    688    689    693     1   107.9700462 569.024000
    688    689    705     1   107.9700462 569.024000
    688    687    695     1   110.1900474 564.840000
    689    688    694     1   110.1900474 564.840000
    693    689    705     1   108.2900466 608.353600
    697    683    705     1   107.9700462 569.024000
    706    707    710     1   111.5100476 526.347200
    706    707    719     1   110.1900474 564.840000
    706    720    726     1   110.1900474 564.840000
    706    728    712     1   112.4800480 524.673600
    707    706    720     1   111.5100476 526.347200
    707    706    728     1   107.9700462 569.024000
    707    710    711     1   111.5100476 526.347200
    707    710    718     1   110.1900474 564.840000
    710    707    719     1   110.1900474 564.840000
    710    711    712     1   111.5100476 526.347200
    710    711    717     1   110.1900474 564.840000
    711    710    718     1   110.1900474 564.840000
    711    712    716     1   107.9700462 569.024000
    711    712    728     1   107.9700462 569.024000
    712    711    717     1   110.1900474 564.840000
    716    712    728     1   108.2900466 608.353600
    720    706    728     1   107.9700462 569.024000
    729    730    733     1   111.5100476 526.347200
    729    730    742     1   110.1900474 564.840000
    729    743    749     1   110.1900474 564.840000
    729    751    735     1   112.4800480 524.673600
    730    733    734     1   111.5100476 526.347200
    730    733    741     1   110.1900474 564.840000
    730    729    743     1   111.5100476 526.347200
    730    729    751     1   107.9700462 569.024000
    733    734    735     1   111.5100476 526.347200
    733    734    740     1   110.1900474 564.840000
    733    730    742     1   110.1900474 564.840000
    734    735    739     1   107.9700462 569.024000
    734    735    751     1   107.9700462 569.024000
    734    733    741     1   110.1900474 564.840000
    735    734    740     1   110.1900474 564.840000
    739    735    751     1   108.2900466 608.353600
    743    729    751     1   107.9700462 569.024000
    752    753    756     1   111.5100476 526.347200
    752    753    765     1   110.1900474 564.840000
    752    766    772     1   110.1900474 564.840000
    752    774    758     1   112.4800480 524.673600
    753    752    766     1   111.5100476 526.347200
    753    752    774     1   107.9700462 569.024000
    753    756    757     1   111.5100476 526.347200
    753    756    764     1   110.1900474 564.840000
    756    753    765     1   110.1900474 564.840000
    756    757    758     1   111.5100476 526.347200
    756    757    763     1   110.1900474 564.840000
    757    756    764     1   110.1900474 564.840000
    757    758    762     1   107.9700462 569.024000
    757    758    774     1   107.9700462 569.024000
    758    757    763     1   110.1900474 564.840000
    762    758    774     1   108.2900466 608.353600
    766    752    774     1   107.9700462 569.024000
    775    776    779     1   111.5100476 526.347200
    775    776    788     1   110.1900474 564.840000
    775    789    795     1   110.1900474 564.840000
    775    797    781     1   112.4800480 524.673600
    776    779    780     1   111.5100476 526.347200
    776    779    787     1   110.1900474 564.840000
    776    775    789     1   111.5100476 526.347200
    776    775    797     1   107.9700462 569.024000
    779    780    781     1   111.5100476 526.347200
    779    780    786     1   110.1900474 564.840000
    779    776    788     1   110.1900474 564.840000
    780    781    785     1   107.9700462 569.024000
    780    781    797     1   107.9700462 569.024000
    780    779    787     1   110.1900474 564.840000
    781    780    786     1   110.1900474 564.840000
    785    781    797     1   108.2900466 608.353600
    789    775    797     1   107.9700462 569.024000
    798    799    802     1   111.5100476 526.347200
    798    799    811     1   110.1900474 564.840000
    798    812    818     1   110.1900474 564.840000
    798    820    804     1   112.4800480 524.673600
    799    798    812     1   111.5100476 526.347200
    799    798    820     1   107.9700462 569.024000
    799    802    803     1   111.5100476 526.347200
    799    802    810     1   110.1900474 564.840000
    802    799    811     1   110.1900474 564.840000
    802    803    804     1   111.5100476 526.347200
    802    803    809     1   110.1900474 564.840000
    803    802    810     1   110.1900474 564.840000
    803    804    808     1   107.9700462 569.024000
    803    804    820     1   107.9700462 569.024000
    804    803    809     1   110.1900474 564.840000
    808    804    820     1   108.2900466 608.353600
    812    798    820     1   107.9700462 569.024000
    821    822    825     1   111.5100476 526.347200
    821    822    834     1   110.1900474 564.840000
    821    835    841     1   110.1900474 564.840000
    821    843    827     1   112.4800480 524.673600
    822    825    826     1   111.5100476 526.347200
    822    825    833     1   110.1900474 564.840000
    822    821    835     1   111.5100476 526.347200
    822    821    843     1   107.9700462 569.024000
    825    826    827     1   111.5100476 526.347200
    825    826    832     1   110.1900474 564.840000
    825    822    834     1   110.1900474 564.840000
    826    827    831     1   107.9700462 569.024000
    826    827    843     1   107.9700462 569.024000
    826    825    833     1   110.1900474 564.840000
    827    826    832     1   110.1900474 564.840000
    831    827    843     1   108.2900466 608.353600
    835    821    843     1   107.9700462 569.024000
    844    845    848     1   111.5100476 526.347200
    844    845    857     1   110.1900474 564.840000
    844    858    864     1   110.1900474 564.840000
    844    866    850     1   112.4800480 524.673600
    845    844    858     1   111.5100476 526.347200
    845    844    866     1   107.9700462 569.024000
    845    848    849     1   111.5100476 526.347200
    845    848    856     1   110.1900474 564.840000
    848    845    857     1   110.1900474 564.840000
    848    849    850     1   111.5100476 526.347200
    848    849    855     1   110.1900474 564.840000
    849    848    856     1   110.1900474 564.840000
    849    850    854     1   107.9700462 569.024000
    849    850    866     1   107.9700462 569.024000
    850    849    855     1   110.1900474 564.840000
    854    850    866     1   108.2900466 608.353600
    858    844    866     1   107.9700462 569.024000
    867    868    871     1   111.5100476 526.347200
    867    868    880     1   110.1900474 564.840000
    867    881    887     1   110.1900474 564.840000
    867    889    873     1   112.4800480 524.673600
    868    871    872     1   111.5100476 526.347200
    868    871    879     1   110.1900474 564.840000
    868    867    881     1   111.5100476 526.347200
    868    867    889     1   107.9700462 569.024000
    871    872    873     1   111.5100476 526.347200
    871    872    878     1   110.1900474 564.840000
    871    868    880     1   110.1900474 564.840000
    872    873    877     1   107.9700462 569.024000
    872    873    889     1   107.9700462 569.024000
    872    871    879     1   110.1900474 564.840000
    873    872    878     1   110.1900474 564.840000
    877    873    889     1   108.2900466 608.353600
    881    867    889     1   107.9700462 569.024000
    890    891    894     1   111.5100476 526.347200
    890    891    903     1   110.1900474 564.840000
    890    904    910     1   110.1900474 564.840000
    890    912    896     1   112.4800480 524.673600
    891    890    904     1   111.5100476 526.347200
    891    890    912     1   107.9700462 569.024000
    891    894    895     1   111.5100476 526.347200
    891    894    902     1   110.1900474 564.840000
    894    891    903     1   110.1900474 564.840000
    894    895    896     1   111.5100476 526.347200
    894    895    901     1   110.1900474 564.840000
    895    894    902     1   110.1900474 564.840000
    895    896    900     1   107.9700462 569.024000
    895    896    912     1   107.9700462 569.024000
    896    895    901     1   110.1900474 564.840000
    900    896    912     1   108.2900466 608.353600
    904    890    912     1   107.9700462 569.024000
    913    914    917     1   111.5100476 526.347200
    913    914    926     1   110.1900474 564.840000
    913    927    933     1   110.1900474 564.840000
    913    935    919     1   112.4800480 524.673600
    914    917    918     1   111.5100476 526.347200
    914    917    925     1   110.1900474 564.840000
    914    913    927     1   111.5100476 526.347200
    914    913    935     1   107.9700462 569.024000
    917    918    919     1   111.5100476 526.347200
    917    918    924     1   110.1900474 564.840000
    917    914    926     1   110.1900474 564.840000
    918    919    923     1   107.9700462 569.024000
    918    919    935     1   107.9700462 569.024000
    918    917    925     1   110.1900474 564.840000
    919    918    924     1   110.1900474 564.840000
    923    919    935     1   108.2900466 608.353600
    927    913    935     1   107.9700462 569.024000
    936    937    940     1   111.5100476 526.347200
    936    937    949     1   110.1900474 564.840000
    936    950    956     1   110.1900474 564.840000
    936    958    942     1   112.4800480 524.673600
    937    936    950     1   111.5100476 526.347200
    937    936    958     1   107.9700462 569.024000
    937    940    941     1   111.5100476 526.347200
    937    940    948     1   110.1900474 564.840000
    940    937    949     1   110.1900474 564.840000
    940    941    942     1   111.5100476 526.347200
    940    941    947     1   110.1900474 564.840000
    941    940    948     1   110.1900474 564.840000
    941    942    946     1   107.9700462 569.024000
    941    942    958     1   107.9700462 569.024000
    942    941    947     1   110.1900474 564.840000
    946    942    958     1   108.2900466 608.353600
    950    936    958     1   107.9700462 569.024000
    959    960    963     1   111.5100476 526.347200
    959    960    972     1   110.1900474 564.840000
    959    973    979     1   110.1900474 564.840000
    959    981    965     1   112.4800480 524.673600
    960    963    964     1   111.5100476 526.347200
    960    963    971     1   110.1900474 564.840000
    960    959    973     1   111.5100476 526.347200
    960    959    981     1   107.9700462 569.024000
    963    964    965     1   111.5100476 526.347200
    963    964    970     1   110.1900474 564.840000
    963    960    972     1   110.1900474 564.840000
    964    965    969     1   107.9700462 569.024000
    964    965    981     1   107.9700462 569.024000
    964    963    971     1   110.1900474 564.840000
    965    964    970     1   110.1900474 564.840000
    969    965    981     1   108.2900466 608.353600
    973    959    981     1   107.9700462 569.024000
    982    983    986     1   111.5100476 526.347200
    982    983    995     1   110.1900474 564.840000
    982    996   1002     1   110.1900474 564.840000
    982   1004    988     1   112.4800480 524.673600
    983    982    996     1   111.5100476 526.347200
    983    982   1004     1   107.9700462 569.024000
    983    986    987     1   111.5100476 526.347200
    983    986    994     1   110.1900474 564.840000
    986    983    995     1   110.1900474 564.840000
    986    987    988     1   111.5100476 526.347200
    986    987    993     1   110.1900474 564.840000
    987    986    994     1   110.1900474 564.840000
    987    988    992     1   107.9700462 569.024000
    987    988   1004     1   107.9700462 569.024000
    988    987    993     1   110.1900474 564.840000
    992    988   1004     1   108.2900466 608.353600
    996    982   1004     1   107.9700462 569.024000
   1005   1006   1009     1   111.5100476 526.347200
   1005   1006   1018     1   110.1900474 564.840000
   1005   1019   1025     1   110.1900474 564.840000
   1005   1027   1011     1   112.4800480 524.673600
   1006   1009   1010     1   111.5100476 526.347200
   1006   1009   1017     1   110.1900474 564.840000
   1006   1005   1019     1   111.5100476 526.347200
   1006   1005   1027     1   107.9700462 569.024000
   1009   1010   1011     1   111.5100476 526.347200
   1009   1010   1016     1   110.1900474 564.840000
   1009   1006   1018     1   110.1900474 564.840000
   1010   1011   1015     1   107.9700462 569.024000
   1010   1011   1027     1   107.9700462 569.024000
   1010   1009   1017     1   110.1900474 564.840000
   1011   1010   1016     1   110.1900474 564.840000
   1015   1011   1027     1   108.2900466 608.353600
   1019   1005   1027     1   107.9700462 569.024000
   1028   1029   1032     1   111.5100476 526.347200
   1028   1029   1041     1   110.1900474 564.840000
   1028   1042   1048     1   110.1900474 564.840000
   1028   1050   1034     1   112.4800480 524.673600
   1029   1028   1042     1   111.5100476 526.347200
   1029   1028   1050     1   107.9700462 569.024000
   1029   1032   1033     1   111.5100476 526.347200
   1029   1032   1040     1   110.1900474 564.840000
   1032   1029   1041     1   110.1900474 564.840000
   1032   1033   1034     1   111.5100476 526.347200
   1032   1033   1039     1   110.1900474 564.840000
   1033   1032   1040     1   110.1900474 564.840000
   1033   1034   1038     1   107.9700462 569.024000
   1033   1034   1050     1   107.9700462 569.024000
   1034   1033   1039     1   110.1900474 564.840000
   1038   1034   1050     1   108.2900466 608.353600
   1042   1028   1050     1   107.9700462 569.024000
   1051   1052   1055     1   111.5100476 526.347200
   1051   1052   1064     1   110.1900474 564.840000
   1051   1065   1071     1   110.1900474 564.840000
   1051   1073   1057     1   112.4800480 524.673600
   1052   1055   1056     1   111.5100476 526.347200
   1052   1055   1063     1   110.1900474 564.840000
   1052   1051   1065     1   111.5100476 526.347200
   1052   1051   1073     1   107.9700462 569.024000
   1055   1056   1057     1   111.5100476 526.347200
   1055   1056   1062     1   110.1900474 564.840000
   1055   1052   1064     1   110.1900474 564.840000
   1056   1057   1061     1   107.9700462 569.024000
   1056   1057   1073     1   107.9700462 569.024000
   1056   1055   1063     1   110.1900474 564.840000
   1057   1056   1062     1   110.1900474 564.840000
   1061   1057   1073     1   108.2900466 608.353600
   1065   1051   1073     1   107.9700462 569.024000
   1074   1075   1078     1   111.5100476 526.347200
   1074   1075   1087     1   110.1900474 564.840000
   1074   1088   1094     1   110.1900474 564.840000
   1074   1096   1080     1   112.4800480 524.673600
   1075   1074   1088     1   111.5100476 526.347200
   1075   1074   1096     1   107.9700462 569.024000
   1075   1078   1079     1   111.5100476 526.347200
   1075   1078   1086     1   110.1900474 564.840000
   1078   1075   1087     1   110.1900474 564.840000
   1078   1079   1080     1   111.5100476 526.347200
   1078   1079   1085     1   110.1900474 564.840000
   1079   1078   1086     1   110.1900474 564.840000
   1079   1080   1084     1   107.9700462 569.024000
   1079   1080   1096     1   107.9700462 569.024000
   1080   1079   1085     1   110.1900474 564.840000
   1084   1080   1096     1   108.2900466 608.353600
   1088   1074   1096     1   107.9700462 569.024000
   1097   1098   1101     1   111.5100476 526.347200
   1097   1098   1110     1   110.1900474 564.840000
   1097   1111   1117     1   110.1900474 564.840000
   1097   1119   1103     1   112.4800480 524.673600
   1098   1101   1102     1   111.5100476 526.347200
   1098   1101   1109     1   110.1900474 564.840000
   1098   1097   1111     1   111.5100476 526.347200
   1098   1097   1119     1   107.9700462 569.024000
   1101   1102   1103     1   111.5100476 526.347200
   1101   1102   1108     1   110.1900474 564.840000
   1101   1098   1110     1   110.1900474 564.840000
   1102   1103   1107     1   107.9700462 569.024000
   1102   1103   1119     1   107.9700462 569.024000
   1102   1101   1109     1   110.1900474 564.840000
   1103   1102   1108     1   110.1900474 564.840000
   1107   1103   1119     1   108.2900466 608.353600
   1111   1097   1119     1   107.9700462 569.024000
   1120   1121   1124     1   111.5100476 526.347200
   1120   1121   1133     1   110.1900474 564.840000
   1120   1134   1140     1   110.1900474 564.840000
   1120   1142   1126     1   112.4800480 524.673600
   1121   1120   1134     1   111.5100476 526.347200
   1121   1120   1142     1   107.9700462 569.024000
   1121   1124   1125     1   111.5100476 526.347200
   1121   1124   1132     1   110.1900474 564.840000
   1124   1121   1133     1   110.1900474 564.840000
   1124   1125   1126     1   111.5100476 526.347200
   1124   1125   1131     1   110.1900474 564.840000
   1125   1124   1132     1   110.1900474 564.840000
   1125   1126   1130     1   107.9700462 569.024000
   1125   1126   1142     1   107.9700462 569.024000
   1126   1125   1131     1   110.1900474 564.840000
   1130   1126   1142     1   108.2900466 608.353600
   1134   1120   1142     1   107.9700462 569.024000
   1143   1144   1147     1   111.5100476 526.347200
   1143   1144   1156     1   110.1900474 564.840000
   1143   1157   1163     1   110.1900474 564.840000
   1143   1165   1149     1   112.4800480 524.673600
   1144   1147   1148     1   111.5100476 526.347200
   1144   1147   1155     1   110.1900474 564.840000
   1144   1143   1157     1   111.5100476 526.347200
   1144   1143   1165     1   107.9700462 569.024000
   1147   1148   1149     1   111.5100476 526.347200
   1147   1148   1154     1   110.1900474 564.840000
   1147   1144   1156     1   110.1900474 564.840000
   1148   1149   1153     1   107.9700462 569.024000
   1148   1149   1165     1   107.9700462 569.024000
   1148   1147   1155     1   110.1900474 564.840000
   1149   1148   1154     1   110.1900474 564.840000
   1153   1149   1165     1   108.2900466 608.353600
   1157   1143   1165     1   107.9700462 569.024000
   1166   1167   1170     1   111.5100476 526.347200
   1166   1167   1179     1   110.1900474 564.840000
   1166   1180   1186     1   110.1900474 564.840000
   1166   1188   1172     1   112.4800480 524.673600
   1167   1166   1180     1   111.5100476 526.347200
   1167   1166   1188     1   107.9700462 569.024000
   1167   1170   1171     1   111.5100476 526.347200
   1167   1170   1178     1   110.1900474 564.840000
   1170   1167   1179     1   110.1900474 564.840000
   1170   1171   1172     1   111.5100476 526.347200
   1170   1171   1177     1   110.1900474 564.840000
   1171   1170   1178     1   110.1900474 564.840000
   1171   1172   1176     1   107.9700462 569.024000
   1171   1172   1188     1   107.9700462 569.024000
   1172   1171   1177     1   110.1900474 564.840000
   1176   1172   1188     1   108.2900466 608.353600
   1180   1166   1188     1   107.9700462 569.024000
   1189   1190   1193     1   111.5100476 526.347200
   1189   1190   1202     1   110.1900474 564.840000
   1189   1203   1209     1   110.1900474 564.840000
   1189   1211   1195     1   112.4800480 524.673600
   1190   1193   1194     1   111.5100476 526.347200
   1190   1193   1201     1   110.1900474 564.840000
   1190   1189   1203     1   111.5100476 526.347200
   1190   1189   1211     1   107.9700462 569.024000
   1193   1194   1195     1   111.5100476 526.347200
   1193   1194   1200     1   110.1900474 564.840000
   1193   1190   1202     1   110.1900474 564.840000
   1194   1195   1199     1   107.9700462 569.024000
   1194   1195   1211     1   107.9700462 569.024000
   1194   1193   1201     1   110.1900474 564.840000
   1195   1194   1200     1   110.1900474 564.840000
   1199   1195   1211     1   108.2900466 608.353600
   1203   1189   1211     1   107.9700462 569.024000
      1      2      3     1   108.0100461 406.684800
      1      2      4     1   108.0100461 406.684800
      1      5      6     1   108.0100461 406.684800
      1      5      7     1   108.0100461 406.684800
      1      8      9     1   108.0100461 406.684800
      1      8     10     1   108.0100461 406.684800
      2      1     29     1   110.1100470 384.091200
      2     14     15     1   109.8000471 387.438400
      2     14     16     1   109.8000471 387.438400
      3      2     14     1   110.5600475 386.601600
      3      2      4     1   109.7500473 328.025600
      4      2     14     1   110.5600475 386.601600
      5      1     29     1   110.1100470 384.091200
      5     17     18     1   109.8000471 387.438400
      5     17     19     1   109.8000471 387.438400
      6      5     17     1   110.5600475 386.601600
      6      5      7     1   109.7500473 328.025600
      7      5     17     1   110.5600475 386.601600
      8      1     29     1   110.1100470 384.091200
      8     11     12     1   109.8000471 387.438400
      8     11     13     1   109.8000471 387.438400
      9      8     11     1   110.5600475 386.601600
      9      8     10     1   109.7500473 328.025600
     10      8     11     1   110.5600475 386.601600
     11     23     24     1   109.5600471 388.275200
     11     23     25     1   109.5600471 388.275200
     12     11     23     1   109.8000471 387.438400
     12     11     13     1   107.5800459 329.699200
     13     11     23     1   109.8000471 387.438400
     14     26     27     1   109.5600471 388.275200
     14     26     28     1   109.5600471 388.275200
     15     14     26     1   109.8000471 387.438400
     15     14     16     1   107.5800459 329.699200
     16     14     26     1   109.8000471 387.438400
     17     20     21     1   109.5600471 388.275200
     17     20     22     1   109.5600471 388.275200
     18     17     20     1   109.8000471 387.438400
     18     17     19     1   107.5800459 329.699200
     19     17     20     1   109.8000471 387.438400
     21     20     58     1   109.7800468 425.094400
     21     20     22     1   108.4600466 328.025600
     22     20     58     1   109.7800468 425.094400
     24     23     88     1   109.7800468 425.094400
     24     23     25     1   108.4600466 328.025600
     25     23     88     1   109.7800468 425.094400
     27     26    118     1   109.7800468 425.094400
     27     26     28     1   108.4600466 328.025600
     28     26    118     1   109.7800468 425.094400
     30     31     32     1   108.0100461 406.684800
     30     31     33     1   108.0100461 406.684800
     30     34     35     1   108.0100461 406.684800
     30     34     36     1   108.0100461 406.684800
     30     37     38     1   108.0100461 406.684800
     30     37     39     1   108.0100461 406.684800
     31     30     59     1   110.1100470 384.091200
     31     43     44     1   109.8000471 387.438400
     31     43     45     1   109.8000471 387.438400
     32     31     43     1   110.5600475 386.601600
     32     31     33     1   109.7500473 328.025600
     33     31     43     1   110.5600475 386.601600
     34     30     59     1   110.1100470 384.091200
     34     46     47     1   109.8000471 387.438400
     34     46     48     1   109.8000471 387.438400
     35     34     46     1   110.5600475 386.601600
     35     34     36     1   109.7500473 328.025600
     36     34     46     1   110.5600475 386.601600
     37     30     59     1   110.1100470 384.091200
     37     40     41     1   109.8000471 387.438400
     37     40     42     1   109.8000471 387.438400
     38     37     40     1   110.5600475 386.601600
     38     37     39     1   109.7500473 328.025600
     39     37     40     1   110.5600475 386.601600
     40     49     50     1   109.5600471 388.275200
     40     49     51     1   109.5600471 388.275200
     41     40     49     1   109.8000471 387.438400
     41     40     42     1   107.5800459 329.699200
     42     40     49     1   109.8000471 387.438400
     43     55     56     1   109.5600471 388.275200
     43     55     57     1   109.5600471 388.275200
     44     43     55     1   109.8000471 387.438400
     44     43     45     1   107.5800459 329.699200
     45     43     55     1   109.8000471 387.438400
     46     52     53     1   109.5600471 388.275200
     46     52     54     1   109.5600471 388.275200
     47     46     52     1   109.8000471 387.438400
     47     46     48     1   107.5800459 329.699200
     48     46     52     1   109.8000471 387.438400
     50     49     58     1   109.7800468 425.094400
     50     49     51     1   108.4600466 328.025600
     51     49     58     1   109.7800468 425.094400
     53     52    148     1   109.7800468 425.094400
     53     52     54     1   108.4600466 328.025600
     54     52    148     1   109.7800468 425.094400
     56     55    178     1   109.7800468 425.094400
     56     55     57     1   108.4600466 328.025600
     57     55    178     1   109.7800468 425.094400
     60     61     62     1   108.0100461 406.684800
     60     61     63     1   108.0100461 406.684800
     60     64     65     1   108.0100461 406.684800
     60     64     66     1   108.0100461 406.684800
     60     67     68     1   108.0100461 406.684800
     60     67     69     1   108.0100461 406.684800
     61     60     89     1   110.1100470 384.091200
     61     73     74     1   109.8000471 387.438400
     61     73     75     1   109.8000471 387.438400
     62     61     73     1   110.5600475 386.601600
     62     61     63     1   109.7500473 328.025600
     63     61     73     1   110.5600475 386.601600
     64     60     89     1   110.1100470 384.091200
     64     76     77     1   109.8000471 387.438400
     64     76     78     1   109.8000471 387.438400
     65     64     76     1   110.5600475 386.601600
     65     64     66     1   109.7500473 328.025600
     66     64     76     1   110.5600475 386.601600
     67     60     89     1   110.1100470 384.091200
     67     70     71     1   109.8000471 387.438400
     67     70     72     1   109.8000471 387.438400
     68     67     70     1   110.5600475 386.601600
     68     67     69     1   109.7500473 328.025600
     69     67     70     1   110.5600475 386.601600
     70     79     80     1   109.5600471 388.275200
     70     79     81     1   109.5600471 388.275200
     71     70     79     1   109.8000471 387.438400
     71     70     72     1   107.5800459 329.699200
     72     70     79     1   109.8000471 387.438400
     73     85     86     1   109.5600471 388.275200
     73     85     87     1   109.5600471 388.275200
     74     73     85     1   109.8000471 387.438400
     74     73     75     1   107.5800459 329.699200
     75     73     85     1   109.8000471 387.438400
     76     82     83     1   109.5600471 388.275200
     76     82     84     1   109.5600471 388.275200
     77     76     82     1   109.8000471 387.438400
     77     76     78     1   107.5800459 329.699200
     78     76     82     1   109.8000471 387.438400
     80     79     88     1   109.7800468 425.094400
     80     79     81     1   108.4600466 328.025600
     81     79     88     1   109.7800468 425.094400
     83     82    208     1   109.7800468 425.094400
     83     82     84     1   108.4600466 328.025600
     84     82    208     1   109.7800468 425.094400
     86     85    238     1   109.7800468 425.094400
     86     85     87     1   108.4600466 328.025600
     87     85    238     1   109.7800468 425.094400
     90     91     92     1   108.0100461 406.684800
     90     91     93     1   108.0100461 406.684800
     90     94     95     1   108.0100461 406.684800
     90     94     96     1   108.0100461 406.684800
     90     97     98     1   108.0100461 406.684800
     90     97     99     1   108.0100461 406.684800
     91     90    119     1   110.1100470 384.091200
     91    103    104     1   109.8000471 387.438400
     91    103    105     1   109.8000471 387.438400
     92     91    103     1   110.5600475 386.601600
     92     91     93     1   109.7500473 328.025600
     93     91    103     1   110.5600475 386.601600
     94     90    119     1   110.1100470 384.091200
     94    106    107     1   109.8000471 387.438400
     94    106    108     1   109.8000471 387.438400
     95     94    106     1   110.5600475 386.601600
     95     94     96     1   109.7500473 328.025600
     96     94    106     1   110.5600475 386.601600
     97     90    119     1   110.1100470 384.091200
     97    100    101     1   109.8000471 387.438400
     97    100    102     1   109.8000471 387.438400
     98     97    100     1   110.5600475 386.601600
     98     97     99     1   109.7500473 328.025600
     99     97    100     1   110.5600475 386.601600
    100    109    110     1   109.5600471 388.275200
    100    109    111     1   109.5600471 388.275200
    101    100    109     1   109.8000471 387.438400
    101    100    102     1   107.5800459 329.699200
    102    100    109     1   109.8000471 387.438400
    103    115    116     1   109.5600471 388.275200
    103    115    117     1   109.5600471 388.275200
    104    103    115     1   109.8000471 387.438400
    104    103    105     1   107.5800459 329.699200
    105    103    115     1   109.8000471 387.438400
    106    112    113     1   109.5600471 388.275200
    106    112    114     1   109.5600471 388.275200
    107    106    112     1   109.8000471 387.438400
    107    106    108     1   107.5800459 329.699200
    108    106    112     1   109.8000471 387.438400
    110    109    118     1   109.7800468 425.094400
    110    109    111     1   108.4600466 328.025600
    111    109    118     1   109.7800468 425.094400
    113    112    268     1   109.7800468 425.094400
    113    112    114     1   108.4600466 328.025600
    114    112    268     1   109.7800468 425.094400
    116    115    298     1   109.7800468 425.094400
    116    115    117     1   108.4600466 328.025600
    117    115    298     1   109.7800468 425.094400
    120    121    122     1   108.0100461 406.684800
    120    121    123     1   108.0100461 406.684800
    120    124    125     1   108.0100461 406.684800
    120    124    126     1   108.0100461 406.684800
    120    127    128     1   108.0100461 406.684800
    120    127    129     1   108.0100461 406.684800
    121    120    149     1   110.1100470 384.091200
    121    133    134     1   109.8000471 387.438400
    121    133    135     1   109.8000471 387.438400
    122    121    133     1   110.5600475 386.601600
    122    121    123     1   109.7500473 328.025600
    123    121    133     1   110.5600475 386.601600
    124    120    149     1   110.1100470 384.091200
    124    136    137     1   109.8000471 387.438400
    124    136    138     1   109.8000471 387.438400
    125    124    136     1   110.5600475 386.601600
    125    124    126     1   109.7500473 328.025600
    126    124    136     1   110.5600475 386.601600
    127    120    149     1   110.1100470 384.091200
    127    130    131     1   109.8000471 387.438400
    127    130    132     1   109.8000471 387.438400
    128    127    130     1   110.5600475 386.601600
    128    127    129     1   109.7500473 328.025600
    129    127    130     1   110.5600475 386.601600
    130    139    140     1   109.5600471 388.275200
    130    139    141     1   109.5600471 388.275200
    131    130    139     1   109.8000471 387.438400
    131    130    132     1   107.5800459 329.699200
    132    130    139     1   109.8000471 387.438400
    133    145    146     1   109.5600471 388.275200
    133    145    147     1   109.5600471 388.275200
    134    133    145     1   109.8000471 387.438400
    134    133    135     1   107.5800459 329.699200
    135    133    145     1   109.8000471 387.438400
    136    142    143     1   109.5600471 388.275200
    136    142    144     1   109.5600471 388.275200
    137    136    142     1   109.8000471 387.438400
    137    136    138     1   107.5800459 329.699200
    138    136    142     1   109.8000471 387.438400
    140    139    148     1   109.7800468 425.094400
    140    139    141     1   108.4600466 328.025600
    141    139    148     1   109.7800468 425.094400
    143    142    328     1   109.7800468 425.094400
    143    142    144     1   108.4600466 328.025600
    144    142    328     1   109.7800468 425.094400
    146    145    358     1   109.7800468 425.094400
    146    145    147     1   108.4600466 328.025600
    147    145    358     1   109.7800468 425.094400
    150    151    152     1   108.0100461 406.684800
    150    151    153     1   108.0100461 406.684800
    150    154    155     1   108.0100461 406.684800
    150    154    156     1   108.0100461 406.684800
    150    157    158     1   108.0100461 406.684800
    150    157    159     1   108.0100461 406.684800
    151    150    179     1   110.1100470 384.091200
    151    163    164     1   109.8000471 387.438400
    151    163    165     1   109.8000471 387.438400
    152    151    163     1   110.5600475 386.601600
    152    151    153     1   109.7500473 328.025600
    153    151    163     1   110.5600475 386.601600
    154    150    179     1   110.1100470 384.091200
    154    166    167     1   109.8000471 387.438400
    154    166    168     1   109.8000471 387.438400
    155    154    166     1   110.5600475 386.601600
    155    154    156     1   109.7500473 328.025600
    156    154    166     1   110.5600475 386.601600
    157    150    179     1   110.1100470 384.091200
    157    160    161     1   109.8000471 387.438400
    157    160    162     1   109.8000471 387.438400
    158    157    160     1   110.5600475 386.601600
    158    157    159     1   109.7500473 328.025600
    159    157    160     1   110.5600475 386.601600
    160    169    170     1   109.5600471 388.275200
    160    169    171     1   109.5600471 388.275200
    161    160    169     1   109.8000471 387.438400
    161    160    162     1   107.5800459 329.699200
    162    160    169     1   109.8000471 387.438400
    163    175    176     1   109.5600471 388.275200
    163    175    177     1   109.5600471 388.275200
    164    163    175     1   109.8000471 387.438400
    164    163    165     1   107.5800459 329.699200
    165    163    175     1   109.8000471 387.438400
    166    172    173     1   109.5600471 388.275200
    166    172    174     1   109.5600471 388.275200
    167    166    172     1   109.8000471 387.438400
    167    166    168     1   107.5800459 329.699200
    168    166    172     1   109.8000471 387.438400
    170    169    178     1   109.7800468 425.094400
    170    169    171     1   108.4600466 328.025600
    171    169    178     1   109.7800468 425.094400
    173    172    388     1   109.7800468 425.094400
    173    172    174     1   108.4600466 328.025600
    174    172    388     1   109.7800468 425.094400
    176    175    418     1   109.7800468 425.094400
    176    175    177     1   108.4600466 328.025600
    177    175    418     1   109.7800468 425.094400
    180    181    182     1   108.0100461 406.684800
    180    181    183     1   108.0100461 406.684800
    180    184    185     1   108.0100461 406.684800
    180    184    186     1   108.0100461 406.684800
    180    187    188     1   108.0100461 406.684800
    180    187    189     1   108.0100461 406.684800
    181    180    209     1   110.1100470 384.091200
    181    193    194     1   109.8000471 387.438400
    181    193    195     1   109.8000471 387.438400
    182    181    193     1   110.5600475 386.601600
    182    181    183     1   109.7500473 328.025600
    183    181    193     1   110.5600475 386.601600
    184    180    209     1   110.1100470 384.091200
    184    196    197     1   109.8000471 387.438400
    184    196    198     1   109.8000471 387.438400
    185    184    196     1   110.5600475 386.601600
    185    184    186     1   109.7500473 328.025600
    186    184    196     1   110.5600475 386.601600
    187    180    209     1   110.1100470 384.091200
    187    190    191     1   109.8000471 387.438400
    187    190    192     1   109.8000471 387.438400
    188    187    190     1   110.5600475 386.601600
    188    187    189     1   109.7500473 328.025600
    189    187    190     1   110.5600475 386.601600
    190    199    200     1   109.5600471 388.275200
    190    199    201     1   109.5600471 388.275200
    191    190    199     1   109.8000471 387.438400
    191    190    192     1   107.5800459 329.699200
    192    190    199     1   109.8000471 387.438400
    193    205    206     1   109.5600471 388.275200
    193    205    207     1   109.5600471 388.275200
    194    193    205     1   109.8000471 387.438400
    194    193    195     1   107.5800459 329.699200
    195    193    205     1   109.8000471 387.438400
    196    202    203     1   109.5600471 388.275200
    196    202    204     1   109.5600471 388.275200
    197    196    202     1   109.8000471 387.438400
    197    196    198     1   107.5800459 329.699200
    198    196    202     1   109.8000471 387.438400
    200    199    208     1   109.7800468 425.094400
    200    199    201     1   108.4600466 328.025600
    201    199    208     1   109.7800468 425.094400
    203    202    448     1   109.7800468 425.094400
    203    202    204     1   108.4600466 328.025600
    204    202    448     1   109.7800468 425.094400
    206    205    478     1   109.7800468 425.094400
    206    205    207     1   108.4600466 328.025600
    207    205    478     1   109.7800468 425.094400
    210    211    212     1   108.0100461 406.684800
    210    211    213     1   108.0100461 406.684800
    210    214    215     1   108.0100461 406.684800
    210    214    216     1   108.0100461 406.684800
    210    217    218     1   108.0100461 406.684800
    210    217    219     1   108.0100461 406.684800
    211    210    239     1   110.1100470 384.091200
    211    223    224     1   109.8000471 387.438400
    211    223    225     1   109.8000471 387.438400
    212    211    223     1   110.5600475 386.601600
    212    211    213     1   109.7500473 328.025600
    213    211    223     1   110.5600475 386.601600
    214    210    239     1   110.1100470 384.091200
    214    226    227     1   109.8000471 387.438400
    214    226    228     1   109.8000471 387.438400
    215    214    226     1   110.5600475 386.601600
    215    214    216     1   109.7500473 328.025600
    216    214    226     1   110.5600475 386.601600
    217    210    239     1   110.1100470 384.091200
    217    220    221     1   109.8000471 387.438400
    217    220    222     1   109.8000471 387.438400
    218    217    220     1   110.5600475 386.601600
    218    217    219     1   109.7500473 328.025600
    219    217    220     1   110.5600475 386.601600
    220    229    230     1   109.5600471 388.275200
    220    229    231     1   109.5600471 388.275200
    221    220    229     1   109.8000471 387.438400
    221    220    222     1   107.5800459 329.699200
    222    220    229     1   109.8000471 387.438400
    223    235    236     1   109.5600471 388.275200
    223    235    237     1   109.5600471 388.275200
    224    223    235     1   109.8000471 387.438400
    224    223    225     1   107.5800459 329.699200
    225    223    235     1   109.8000471 387.438400
    226    232    233     1   109.5600471 388.275200
    226    232    234     1   109.5600471 388.275200
    227    226    232     1   109.8000471 387.438400
    227    226    228     1   107.5800459 329.699200
    228    226    232     1   109.8000471 387.438400
    230    229    238     1   109.7800468 425.094400
    230    229    231     1   108.4600466 328.025600
    231    229    238     1   109.7800468 425.094400
    233    232    508     1   109.7800468 425.094400
    233    232    234     1   108.4600466 328.025600
    234    232    508     1   109.7800468 425.094400
    236    235    538     1   109.7800468 425.094400
    236    235    237     1   108.4600466 328.025600
    237    235    538     1   109.7800468 425.094400
    240    241    242     1   108.0100461 406.684800
    240    241    243     1   108.0100461 406.684800
    240    244    245     1   108.0100461 406.684800
    240    244    246     1   108.0100461 406.684800
    240    247    248     1   108.0100461 406.684800
    240    247    249     1   108.0100461 406.684800
    241    240    269     1   110.1100470 384.091200
    241    253    254     1   109.8000471 387.438400
    241    253    255     1   109.8000471 387.438400
    242    241    253     1   110.5600475 386.601600
    242    241    243     1   109.7500473 328.025600
    243    241    253     1   110.5600475 386.601600
    244    240    269     1   110.1100470 384.091200
    244    256    257     1   109.8000471 387.438400
    244    256    258     1   109.8000471 387.438400
    245    244    256     1   110.5600475 386.601600
    245    244    246     1   109.7500473 328.025600
    246    244    256     1   110.5600475 386.601600
    247    240    269     1   110.1100470 384.091200
    247    250    251     1   109.8000471 387.438400
    247    250    252     1   109.8000471 387.438400
    248    247    250     1   110.5600475 386.601600
    248    247    249     1   109.7500473 328.025600
    249    247    250     1   110.5600475 386.601600
    250    259    260     1   109.5600471 388.275200
    250    259    261     1   109.5600471 388.275200
    251    250    259     1   109.8000471 387.438400
    251    250    252     1   107.5800459 329.699200
    252    250    259     1   109.8000471 387.438400
    253    265    266     1   109.5600471 388.275200
    253    265    267     1   109.5600471 388.275200
    254    253    265     1   109.8000471 387.438400
    254    253    255     1   107.5800459 329.699200
    255    253    265     1   109.8000471 387.438400
    256    262    263     1   109.5600471 388.275200
    256    262    264     1   109.5600471 388.275200
    257    256    262     1   109.8000471 387.438400
    257    256    258     1   107.5800459 329.699200
    258    256    262     1   109.8000471 387.438400
    260    259    268     1   109.7800468 425.094400
    260    259    261     1   108.4600466 328.025600
    261    259    268     1   109.7800468 425.094400
    263    262    568     1   109.7800468 425.094400
    263    262    264     1   108.4600466 328.025600
    264    262    568     1   109.7800468 425.094400
    266    265    598     1   109.7800468 425.094400
    266    265    267     1   108.4600466 328.025600
    267    265    598     1   109.7800468 425.094400
    270    271    272     1   108.0100461 406.684800
    270    271    273     1   108.0100461 406.684800
    270    274    275     1   108.0100461 406.684800
    270    274    276     1   108.0100461 406.684800
    270    277    278     1   108.0100461 406.684800
    270    277    279     1   108.0100461 406.684800
    271    270    299     1   110.1100470 384.091200
    271    283    284     1   109.8000471 387.438400
    271    283    285     1   109.8000471 387.438400
    272    271    283     1   110.5600475 386.601600
    272    271    273     1   109.7500473 328.025600
    273    271    283     1   110.5600475 386.601600
    274    270    299     1   110.1100470 384.091200
    274    286    287     1   109.8000471 387.438400
    274    286    288     1   109.8000471 387.438400
    275    274    286     1   110.5600475 386.601600
    275    274    276     1   109.7500473 328.025600
    276    274    286     1   110.5600475 386.601600
    277    270    299     1   110.1100470 384.091200
    277    280    281     1   109.8000471 387.438400
    277    280    282     1   109.8000471 387.438400
    278    277    280     1   110.5600475 386.601600
    278    277    279     1   109.7500473 328.025600
    279    277    280     1   110.5600475 386.601600
    280    289    290     1   109.5600471 388.275200
    280    289    291     1   109.5600471 388.275200
    281    280    289     1   109.8000471 387.438400
    281    280    282     1   107.5800459 329.699200
    282    280    289     1   109.8000471 387.438400
    283    295    296     1   109.5600471 388.275200
    283    295    297     1   109.5600471 388.275200
    284    283    295     1   109.8000471 387.438400
    284    283    285     1   107.5800459 329.699200
    285    283    295     1   109.8000471 387.438400
    286    292    293     1   109.5600471 388.275200
    286    292    294     1   109.5600471 388.275200
    287    286    292     1   109.8000471 387.438400
    287    286    288     1   107.5800459 329.699200
    288    286    292     1   109.8000471 387.438400
    290    289    298     1   109.7800468 425.094400
    290    289    291     1   108.4600466 328.025600
    291    289    298     1   109.7800468 425.094400
    293    292    628     1   109.7800468 425.094400
    293    292    294     1   108.4600466 328.025600
    294    292    628     1   109.7800468 425.094400
    296    295    658     1   109.7800468 425.094400
    296    295    297     1   108.4600466 328.025600
    297    295    658     1   109.7800468 425.094400
    300    301    302     1   108.0100461 406.684800
    300    301    303     1   108.0100461 406.684800
    300    304    305     1   108.0100461 406.684800
    300    304    306     1   108.0100461 406.684800
    300    307    308     1   108.0100461 406.684800
    300    307    309     1   108.0100461 406.684800
    301    300    329     1   110.1100470 384.091200
    301    313    314     1   109.8000471 387.438400
    301    313    315     1   109.8000471 387.438400
    302    301    313     1   110.5600475 386.601600
    302    301    303     1   109.7500473 328.025600
    303    301    313     1   110.5600475 386.601600
    304    300    329     1   110.1100470 384.091200
    304    316    317     1   109.8000471 387.438400
    304    316    318     1   109.8000471 387.438400
    305    304    316     1   110.5600475 386.601600
    305    304    306     1   109.7500473 328.025600
    306    304    316     1   110.5600475 386.601600
    307    300    329     1   110.1100470 384.091200
    307    310    311     1   109.8000471 387.438400
    307    310    312     1   109.8000471 387.438400
    308    307    310     1   110.5600475 386.601600
    308    307    309     1   109.7500473 328.025600
    309    307    310     1   110.5600475 386.601600
    310    319    320     1   109.5600471 388.275200
    310    319    321     1   109.5600471 388.275200
    311    310    319     1   109.8000471 387.438400
    311    310    312     1   107.5800459 329.699200
    312    310    319     1   109.8000471 387.438400
    313    325    326     1   109.5600471 388.275200
    313    325    327     1   109.5600471 388.275200
    314    313    325     1   109.8000471 387.438400
    314    313    315     1   107.5800459 329.699200
    315    313    325     1   109.8000471 387.438400
    316    322    323     1   109.5600471 388.275200
    316    322    324     1   109.5600471 388.275200
    317    316    322     1   109.8000471 387.438400
    317    316    318     1   107.5800459 329.699200
    318    316    322     1   109.8000471 387.438400
    320    319    328     1   109.7800468 425.094400
    320    319    321     1   108.4600466 328.025600
    321    319    328     1   109.7800468 425.094400
    323    322    670     1   109.7800468 425.094400
    323    322    324     1   108.4600466 328.025600
    324    322    670     1   109.7800468 425.094400
    326    325    693     1   109.7800468 425.094400
    326    325    327     1   108.4600466 328.025600
    327    325    693     1   109.7800468 425.094400
    330    331    332     1   108.0100461 406.684800
    330    331    333     1   108.0100461 406.684800
    330    334    335     1   108.0100461 406.684800
    330    334    336     1   108.0100461 406.684800
    330    337    338     1   108.0100461 406.684800
    330    337    339     1   108.0100461 406.684800
    331    330    359     1   110.1100470 384.091200
    331    343    344     1   109.8000471 387.438400
    331    343    345     1   109.8000471 387.438400
    332    331    343     1   110.5600475 386.601600
    332    331    333     1   109.7500473 328.025600
    333    331    343     1   110.5600475 386.601600
    334    330    359     1   110.1100470 384.091200
    334    346    347     1   109.8000471 387.438400
    334    346    348     1   109.8000471 387.438400
    335    334    346     1   110.5600475 386.601600
    335    334    336     1   109.7500473 328.025600
    336    334    346     1   110.5600475 386.601600
    337    330    359     1   110.1100470 384.091200
    337    340    341     1   109.8000471 387.438400
    337    340    342     1   109.8000471 387.438400
    338    337    340     1   110.5600475 386.601600
    338    337    339     1   109.7500473 328.025600
    339    337    340     1   110.5600475 386.601600
    340    349    350     1   109.5600471 388.275200
    340    349    351     1   109.5600471 388.275200
    341    340    349     1   109.8000471 387.438400
    341    340    342     1   107.5800459 329.699200
    342    340    349     1   109.8000471 387.438400
    343    355    356     1   109.5600471 388.275200
    343    355    357     1   109.5600471 388.275200
    344    343    355     1   109.8000471 387.438400
    344    343    345     1   107.5800459 329.699200
    345    343    355     1   109.8000471 387.438400
    346    352    353     1   109.5600471 388.275200
    346    352    354     1   109.5600471 388.275200
    347    346    352     1   109.8000471 387.438400
    347    346    348     1   107.5800459 329.699200
    348    346    352     1   109.8000471 387.438400
    350    349    358     1   109.7800468 425.094400
    350    349    351     1   108.4600466 328.025600
    351    349    358     1   109.7800468 425.094400
    353    352    716     1   109.7800468 425.094400
    353    352    354     1   108.4600466 328.025600
    354    352    716     1   109.7800468 425.094400
    356    355    739     1   109.7800468 425.094400
    356    355    357     1   108.4600466 328.025600
    357    355    739     1   109.7800468 425.094400
    360    361    362     1   108.0100461 406.684800
    360    361    363     1   108.0100461 406.684800
    360    364    365     1   108.0100461 406.684800
    360    364    366     1   108.0100461 406.684800
    360    367    368     1   108.0100461 406.684800
    360    367    369     1   108.0100461 406.684800
    361    360    389     1   110.1100470 384.091200
    361    373    374     1   109.8000471 387.438400
    361    373    375     1   109.8000471 387.438400
    362    361    373     1   110.5600475 386.601600
    362    361    363     1   109.7500473 328.025600
    363    361    373     1   110.5600475 386.601600
    364    360    389     1   110.1100470 384.091200
    364    376    377     1   109.8000471 387.438400
    364    376    378     1   109.8000471 387.438400
    365    364    376     1   110.5600475 386.601600
    365    364    366     1   109.7500473 328.025600
    366    364    376     1   110.5600475 386.601600
    367    360    389     1   110.1100470 384.091200
    367    370    371     1   109.8000471 387.438400
    367    370    372     1   109.8000471 387.438400
    368    367    370     1   110.5600475 386.601600
    368    367    369     1   109.7500473 328.025600
    369    367    370     1   110.5600475 386.601600
    370    379    380     1   109.5600471 388.275200
    370    379    381     1   109.5600471 388.275200
    371    370    379     1   109.8000471 387.438400
    371    370    372     1   107.5800459 329.699200
    372    370    379     1   109.8000471 387.438400
    373    385    386     1   109.5600471 388.275200
    373    385    387     1   109.5600471 388.275200
    374    373    385     1   109.8000471 387.438400
    374    373    375     1   107.5800459 329.699200
    375    373    385     1   109.8000471 387.438400
    376    382    383     1   109.5600471 388.275200
    376    382    384     1   109.5600471 388.275200
    377    376    382     1   109.8000471 387.438400
    377    376    378     1   107.5800459 329.699200
    378    376    382     1   109.8000471 387.438400
    380    379    388     1   109.7800468 425.094400
    380    379    381     1   108.4600466 328.025600
    381    379    388     1   109.7800468 425.094400
    383    382    762     1   109.7800468 425.094400
    383    382    384     1   108.4600466 328.025600
    384    382    762     1   109.7800468 425.094400
    386    385    785     1   109.7800468 425.094400
    386    385    387     1   108.4600466 328.025600
    387    385    785     1   109.7800468 425.094400
    390    391    392     1   108.0100461 406.684800
    390    391    393     1   108.0100461 406.684800
    390    394    395     1   108.0100461 406.684800
    390    394    396     1   108.0100461 406.684800
    390    397    398     1   108.0100461 406.684800
    390    397    399     1   108.0100461 406.684800
    391    390    419     1   110.1100470 384.091200
    391    403    404     1   109.8000471 387.438400
    391    403    405     1   109.8000471 387.438400
    392    391    403     1   110.5600475 386.601600
    392    391    393     1   109.7500473 328.025600
    393    391    403     1   110.5600475 386.601600
    394    390    419     1   110.1100470 384.091200
    394    406    407     1   109.8000471 387.438400
    394    406    408     1   109.8000471 387.438400
    395    394    406     1   110.5600475 386.601600
    395    394    396     1   109.7500473 328.025600
    396    394    406     1   110.5600475 386.601600
    397    390    419     1   110.1100470 384.091200
    397    400    401     1   109.8000471 387.438400
    397    400    402     1   109.8000471 387.438400
    398    397    400     1   110.5600475 386.601600
    398    397    399     1   109.7500473 328.025600
    399    397    400     1   110.5600475 386.601600
    400    409    410     1   109.5600471 388.275200
    400    409    411     1   109.5600471 388.275200
    401    400    409     1   109.8000471 387.438400
    401    400    402     1   107.5800459 329.699200
    402    400    409     1   109.8000471 387.438400
    403    415    416     1   109.5600471 388.275200
    403    415    417     1   109.5600471 388.275200
    404    403    415     1   109.8000471 387.438400
    404    403    405     1   107.5800459 329.699200
    405    403    415     1   109.8000471 387.438400
    406    412    413     1   109.5600471 388.275200
    406    412    414     1   109.5600471 388.275200
    407    406    412     1   109.8000471 387.438400
    407    406    408     1   107.5800459 329.699200
    408    406    412     1   109.8000471 387.438400
    410    409    418     1   109.7800468 425.094400
    410    409    411     1   108.4600466 328.025600
    411    409    418     1   109.7800468 425.094400
    413    412    808     1   109.7800468 425.094400
    413    412    414     1   108.4600466 328.025600
    414    412    808     1   109.7800468 425.094400
    416    415    831     1   109.7800468 425.094400
    416    415    417     1   108.4600466 328.025600
    417    415    831     1   109.7800468 425.094400
    420    421    422     1   108.0100461 406.684800
    420    421    423     1   108.0100461 406.684800
    420    424    425     1   108.0100461 406.684800
    420    424    426     1   108.0100461 406.684800
    420    427    428     1   108.0100461 406.684800
    420    427    429     1   108.0100461 406.684800
    421    420    449     1   110.1100470 384.091200
    421    433    434     1   109.8000471 387.438400
    421    433    435     1   109.8000471 387.438400
    422    421    433     1   110.5600475 386.601600
    422    421    423     1   109.7500473 328.025600
    423    421    433     1   110.5600475 386.601600
    424    420    449     1   110.1100470 384.091200
    424    436    437     1   109.8000471 387.438400
    424    436    438     1   109.8000471 387.438400
    425    424    436     1   110.5600475 386.601600
    425    424    426     1   109.7500473 328.025600
    426    424    436     1   110.5600475 386.601600
    427    420    449     1   110.1100470 384.091200
    427    430    431     1   109.8000471 387.438400
    427    430    432     1   109.8000471 387.438400
    428    427    430     1   110.5600475 386.601600
    428    427    429     1   109.7500473 328.025600
    429    427    430     1   110.5600475 386.601600
    430    439    440     1   109.5600471 388.275200
    430    439    441     1   109.5600471 388.275200
    431    430    439     1   109.8000471 387.438400
    431    430    432     1   107.5800459 329.699200
    432    430    439     1   109.8000471 387.438400
    433    445    446     1   109.5600471 388.275200
    433    445    447     1   109.5600471 388.275200
    434    433    445     1   109.8000471 387.438400
    434    433    435     1   107.5800459 329.699200
    435    433    445     1   109.8000471 387.438400
    436    442    443     1   109.5600471 388.275200
    436    442    444     1   109.5600471 388.275200
    437    436    442     1   109.8000471 387.438400
    437    436    438     1   107.5800459 329.699200
    438    436    442     1   109.8000471 387.438400
    440    439    448     1   109.7800468 425.094400
    440    439    441     1   108.4600466 328.025600
    441    439    448     1   109.7800468 425.094400
    443    442    854     1   109.7800468 425.094400
    443    442    444     1   108.4600466 328.025600
    444    442    854     1   109.7800468 425.094400
    446    445    877     1   109.7800468 425.094400
    446    445    447     1   108.4600466 328.025600
    447    445    877     1   109.7800468 425.094400
    450    451    452     1   108.0100461 406.684800
    450    451    453     1   108.0100461 406.684800
    450    454    455     1   108.0100461 406.684800
    450    454    456     1   108.0100461 406.684800
    450    457    458     1   108.0100461 406.684800
    450    457    459     1   108.0100461 406.684800
    451    450    479     1   110.1100470 384.091200
    451    463    464     1   109.8000471 387.438400
    451    463    465     1   109.8000471 387.438400
    452    451    463     1   110.5600475 386.601600
    452    451    453     1   109.7500473 328.025600
    453    451    463     1   110.5600475 386.601600
    454    450    479     1   110.1100470 384.091200
    454    466    467     1   109.8000471 387.438400
    454    466    468     1   109.8000471 387.438400
    455    454    466     1   110.5600475 386.601600
    455    454    456     1   109.7500473 328.025600
    456    454    466     1   110.5600475 386.601600
    457    450    479     1   110.1100470 384.091200
    457    460    461     1   109.8000471 387.438400
    457    460    462     1   109.8000471 387.438400
    458    457    460     1   110.5600475 386.601600
    458    457    459     1   109.7500473 328.025600
    459    457    460     1   110.5600475 386.601600
    460    469    470     1   109.5600471 388.275200
    460    469    471     1   109.5600471 388.275200
    461    460    469     1   109.8000471 387.438400
    461    460    462     1   107.5800459 329.699200
    462    460    469     1   109.8000471 387.438400
    463    475    476     1   109.5600471 388.275200
    463    475    477     1   109.5600471 388.275200
    464    463    475     1   109.8000471 387.438400
    464    463    465     1   107.5800459 329.699200
    465    463    475     1   109.8000471 387.438400
    466    472    473     1   109.5600471 388.275200
    466    472    474     1   109.5600471 388.275200
    467    466    472     1   109.8000471 387.438400
    467    466    468     1   107.5800459 329.699200
    468    466    472     1   109.8000471 387.438400
    470    469    478     1   109.7800468 425.094400
    470    469    471     1   108.4600466 328.025600
    471    469    478     1   109.7800468 425.094400
    473    472    900     1   109.7800468 425.094400
    473    472    474     1   108.4600466 328.025600
    474    472    900     1   109.7800468 425.094400
    476    475    923     1   109.7800468 425.094400
    476    475    477     1   108.4600466 328.025600
    477    475    923     1   109.7800468 425.094400
    480    481    482     1   108.0100461 406.684800
    480    481    483     1   108.0100461 406.684800
    480    484    485     1   108.0100461 406.684800
    480    484    486     1   108.0100461 406.684800
    480    487    488     1   108.0100461 406.684800
    480    487    489     1   108.0100461 406.684800
    481    480    509     1   110.1100470 384.091200
    481    493    494     1   109.8000471 387.438400
    481    493    495     1   109.8000471 387.438400
    482    481    493     1   110.5600475 386.601600
    482    481    483     1   109.7500473 328.025600
    483    481    493     1   110.5600475 386.601600
    484    480    509     1   110.1100470 384.091200
    484    496    497     1   109.8000471 387.438400
    484    496    498     1   109.8000471 387.438400
    485    484    496     1   110.5600475 386.601600
    485    484    486     1   109.7500473 328.025600
    486    484    496     1   110.5600475 386.601600
    487    480    509     1   110.1100470 384.091200
    487    490    491     1   109.8000471 387.438400
    487    490    492     1   109.8000471 387.438400
    488    487    490     1   110.5600475 386.601600
    488    487    489     1   109.7500473 328.025600
    489    487    490     1   110.5600475 386.601600
    490    499    500     1   109.5600471 388.275200
    490    499    501     1   109.5600471 388.275200
    491    490    499     1   109.8000471 387.438400
    491    490    492     1   107.5800459 329.699200
    492    490    499     1   109.8000471 387.438400
    493    505    506     1   109.5600471 388.275200
    493    505    507     1   109.5600471 388.275200
    494    493    505     1   109.8000471 387.438400
    494    493    495     1   107.5800459 329.699200
    495    493    505     1   109.8000471 387.438400
    496    502    503     1   109.5600471 388.275200
    496    502    504     1   109.5600471 388.275200
    497    496    502     1   109.8000471 387.438400
    497    496    498     1   107.5800459 329.699200
    498    496    502     1   109.8000471 387.438400
    500    499    508     1   109.7800468 425.094400
    500    499    501     1   108.4600466 328.025600
    501    499    508     1   109.7800468 425.094400
    503    502    946     1   109.7800468 425.094400
    503    502    504     1   108.4600466 328.025600
    504    502    946     1   109.7800468 425.094400
    506    505    969     1   109.7800468 425.094400
    506    505    507     1   108.4600466 328.025600
    507    505    969     1   109.7800468 425.094400
    510    511    512     1   108.0100461 406.684800
    510    511    513     1   108.0100461 406.684800
    510    514    515     1   108.0100461 406.684800
    510    514    516     1   108.0100461 406.684800
    510    517    518     1   108.0100461 406.684800
    510    517    519     1   108.0100461 406.684800
    511    510    539     1   110.1100470 384.091200
    511    523    524     1   109.8000471 387.438400
    511    523    525     1   109.8000471 387.438400
    512    511    523     1   110.5600475 386.601600
    512    511    513     1   109.7500473 328.025600
    513    511    523     1   110.5600475 386.601600
    514    510    539     1   110.1100470 384.091200
    514    526    527     1   109.8000471 387.438400
    514    526    528     1   109.8000471 387.438400
    515    514    526     1   110.5600475 386.601600
    515    514    516     1   109.7500473 328.025600
    516    514    526     1   110.5600475 386.601600
    517    510    539     1   110.1100470 384.091200
    517    520    521     1   109.8000471 387.438400
    517    520    522     1   109.8000471 387.438400
    518    517    520     1   110.5600475 386.601600
    518    517    519     1   109.7500473 328.025600
    519    517    520     1   110.5600475 386.601600
    520    529    530     1   109.5600471 388.275200
    520    529    531     1   109.5600471 388.275200
    521    520    529     1   109.8000471 387.438400
    521    520    522     1   107.5800459 329.699200
    522    520    529     1   109.8000471 387.438400
    523    535    536     1   109.5600471 388.275200
    523    535    537     1   109.5600471 388.275200
    524    523    535     1   109.8000471 387.438400
    524    523    525     1   107.5800459 329.699200
    525    523    535     1   109.8000471 387.438400
    526    532    533     1   109.5600471 388.275200
    526    532    534     1   109.5600471 388.275200
    527    526    532     1   109.8000471 387.438400
    527    526    528     1   107.5800459 329.699200
    528    526    532     1   109.8000471 387.438400
    530    529    538     1   109.7800468 425.094400
    530    529    531     1   108.4600466 328.025600
    531    529    538     1   109.7800468 425.094400
    533    532    992     1   109.7800468 425.094400
    533    532    534     1   108.4600466 328.025600
    534    532    992     1   109.7800468 425.094400
    536    535   1015     1   109.7800468 425.094400
    536    535    537     1   108.4600466 328.025600
    537    535   1015     1   109.7800468 425.094400
    540    541    542     1   108.0100461 406.684800
    540    541    543     1   108.0100461 406.684800
    540    544    545     1   108.0100461 406.684800
    540    544    546     1   108.0100461 406.684800
    540    547    548     1   108.0100461 406.684800
    540    547    549     1   108.0100461 406.684800
    541    540    569     1   110.1100470 384.091200
    541    553    554     1   109.8000471 387.438400
    541    553    555     1   109.8000471 387.438400
    542    541    553     1   110.5600475 386.601600
    542    541    543     1   109.7500473 328.025600
    543    541    553     1   110.5600475 386.601600
    544    540    569     1   110.1100470 384.091200
    544    556    557     1   109.8000471 387.438400
    544    556    558     1   109.8000471 387.438400
    545    544    556     1   110.5600475 386.601600
    545    544    546     1   109.7500473 328.025600
    546    544    556     1   110.5600475 386.601600
    547    540    569     1   110.1100470 384.091200
    547    550    551     1   109.8000471 387.438400
    547    550    552     1   109.8000471 387.438400
    548    547    550     1   110.5600475 386.601600
    548    547    549     1   109.7500473 328.025600
    549    547    550     1   110.5600475 386.601600
    550    559    560     1   109.5600471 388.275200
    550    559    561     1   109.5600471 388.275200
    551    550    559     1   109.8000471 387.438400
    551    550    552     1   107.5800459 329.699200
    552    550    559     1   109.8000471 387.438400
    553    565    566     1   109.5600471 388.275200
    553    565    567     1   109.5600471 388.275200
    554    553    565     1   109.8000471 387.438400
    554    553    555     1   107.5800459 329.699200
    555    553    565     1   109.8000471 387.438400
    556    562    563     1   109.5600471 388.275200
    556    562    564     1   109.5600471 388.275200
    557    556    562     1   109.8000471 387.438400
    557    556    558     1   107.5800459 329.699200
    558    556    562     1   109.8000471 387.438400
    560    559    568     1   109.7800468 425.094400
    560    559    561     1   108.4600466 328.025600
    561    559    568     1   109.7800468 425.094400
    563    562   1038     1   109.7800468 425.094400
    563    562    564     1   108.4600466 328.025600
    564    562   1038     1   109.7800468 425.094400
    566    565   1061     1   109.7800468 425.094400
    566    565    567     1   108.4600466 328.025600
    567    565   1061     1   109.7800468 425.094400
    570    571    572     1   108.0100461 406.684800
    570    571    573     1   108.0100461 406.684800
    570    574    575     1   108.0100461 406.684800
    570    574    576     1   108.0100461 406.684800
    570    577    578     1   108.0100461 406.684800
    570    577    579     1   108.0100461 406.684800
    571    570    599     1   110.1100470 384.091200
    571    583    584     1   109.8000471 387.438400
    571    583    585     1   109.8000471 387.438400
    572    571    583     1   110.5600475 386.601600
    572    571    573     1   109.7500473 328.025600
    573    571    583     1   110.5600475 386.601600
    574    570    599     1   110.1100470 384.091200
    574    586    587     1   109.8000471 387.438400
    574    586    588     1   109.8000471 387.438400
    575    574    586     1   110.5600475 386.601600
    575    574    576     1   109.7500473 328.025600
    576    574    586     1   110.5600475 386.601600
    577    570    599     1   110.1100470 384.091200
    577    580    581     1   109.8000471 387.438400
    577    580    582     1   109.8000471 387.438400
    578    577    580     1   110.5600475 386.601600
    578    577    579     1   109.7500473 328.025600
    579    577    580     1   110.5600475 386.601600
    580    589    590     1   109.5600471 388.275200
    580    589    591     1   109.5600471 388.275200
    581    580    589     1   109.8000471 387.438400
    581    580    582     1   107.5800459 329.699200
    582    580    589     1   109.8000471 387.438400
    583    595    596     1   109.5600471 388.275200
    583    595    597     1   109.5600471 388.275200
    584    583    595     1   109.8000471 387.438400
    584    583    585     1   107.5800459 329.699200
    585    583    595     1   109.8000471 387.438400
    586    592    593     1   109.5600471 388.275200
    586    592    594     1   109.5600471 388.275200
    587    586    592     1   109.8000471 387.438400
    587    586    588     1   107.5800459 329.699200
    588    586    592     1   109.8000471 387.438400
    590    589    598     1   109.7800468 425.094400
    590    589    591     1   108.4600466 328.025600
    591    589    598     1   109.7800468 425.094400
    593    592   1084     1   109.7800468 425.094400
    593    592    594     1   108.4600466 328.025600
    594    592   1084     1   109.7800468 425.094400
    596    595   1107     1   109.7800468 425.094400
    596    595    597     1   108.4600466 328.025600
    597    595   1107     1   109.7800468 425.094400
    600    601    602     1   108.0100461 406.684800
    600    601    603     1   108.0100461 406.684800
    600    604    605     1   108.0100461 406.684800
    600    604    606     1   108.0100461 406.684800
    600    607    608     1   108.0100461 406.684800
    600    607    609     1   108.0100461 406.684800
    601    600    629     1   110.1100470 384.091200
    601    613    614     1   109.8000471 387.438400
    601    613    615     1   109.8000471 387.438400
    602    601    613     1   110.5600475 386.601600
    602    601    603     1   109.7500473 328.025600
    603    601    613     1   110.5600475 386.601600
    604    600    629     1   110.1100470 384.091200
    604    616    617     1   109.8000471 387.438400
    604    616    618     1   109.8000471 387.438400
    605    604    616     1   110.5600475 386.601600
    605    604    606     1   109.7500473 328.025600
    606    604    616     1   110.5600475 386.601600
    607    600    629     1   110.1100470 384.091200
    607    610    611     1   109.8000471 387.438400
    607    610    612     1   109.8000471 387.438400
    608    607    610     1   110.5600475 386.601600
    608    607    609     1   109.7500473 328.025600
    609    607    610     1   110.5600475 386.601600
    610    619    620     1   109.5600471 388.275200
    610    619    621     1   109.5600471 388.275200
    611    610    619     1   109.8000471 387.438400
    611    610    612     1   107.5800459 329.699200
    612    610    619     1   109.8000471 387.438400
    613    625    626     1   109.5600471 388.275200
    613    625    627     1   109.5600471 388.275200
    614    613    625     1   109.8000471 387.438400
    614    613    615     1   107.5800459 329.699200
    615    613    625     1   109.8000471 387.438400
    616    622    623     1   109.5600471 388.275200
    616    622    624     1   109.5600471 388.275200
    617    616    622     1   109.8000471 387.438400
    617    616    618     1   107.5800459 329.699200
    618    616    622     1   109.8000471 387.438400
    620    619    628     1   109.7800468 425.094400
    620    619    621     1   108.4600466 328.025600
    621    619    628     1   109.7800468 425.094400
    623    622   1130     1   109.7800468 425.094400
    623    622    624     1   108.4600466 328.025600
    624    622   1130     1   109.7800468 425.094400
    626    625   1153     1   109.7800468 425.094400
    626    625    627     1   108.4600466 328.025600
    627    625   1153     1   109.7800468 425.094400
    630    631    632     1   108.0100461 406.684800
    630    631    633     1   108.0100461 406.684800
    630    634    635     1   108.0100461 406.684800
    630    634    636     1   108.0100461 406.684800
    630    637    638     1   108.0100461 406.684800
    630    637    639     1   108.0100461 406.684800
    631    630    659     1   110.1100470 384.091200
    631    643    644     1   109.8000471 387.438400
    631    643    645     1   109.8000471 387.438400
    632    631    643     1   110.5600475 386.601600
    632    631    633     1   109.7500473 328.025600
    633    631    643     1   110.5600475 386.601600
    634    630    659     1   110.1100470 384.091200
    634    646    647     1   109.8000471 387.438400
    634    646    648     1   109.8000471 387.438400
    635    634    646     1   110.5600475 386.601600
    635    634    636     1   109.7500473 328.025600
    636    634    646     1   110.5600475 386.601600
    637    630    659     1   110.1100470 384.091200
    637    640    641     1   109.8000471 387.438400
    637    640    642     1   109.8000471 387.438400
    638    637    640     1   110.5600475 386.601600
    638    637    639     1   109.7500473 328.025600
    639    637    640     1   110.5600475 386.601600
    640    649    650     1   109.5600471 388.275200
    640    649    651     1   109.5600471 388.275200
    641    640    649     1   109.8000471 387.438400
    641    640    642     1   107.5800459 329.699200
    642    640    649     1   109.8000471 387.438400
    643    655    656     1   109.5600471 388.275200
    643    655    657     1   109.5600471 388.275200
    644    643    655     1   109.8000471 387.438400
    644    643    645     1   107.5800459 329.699200
    645    643    655     1   109.8000471 387.438400
    646    652    653     1   109.5600471 388.275200
    646    652    654     1   109.5600471 388.275200
    647    646    652     1   109.8000471 387.438400
    647    646    648     1   107.5800459 329.699200
    648    646    652     1   109.8000471 387.438400
    650    649    658     1   109.7800468 425.094400
    650    649    651     1   108.4600466 328.025600
    651    649    658     1   109.7800468 425.094400
    653    652   1176     1   109.7800468 425.094400
    653    652    654     1   108.4600466 328.025600
    654    652   1176     1   109.7800468 425.094400
    656    655   1199     1   109.7800468 425.094400
    656    655    657     1   108.4600466 328.025600
    657    655   1199     1   109.7800468 425.094400
    660    661    663     1   109.5600471 388.275200
    660    674    678     1   109.5600471 388.275200
    660    674    679     1   109.5600471 388.275200
    661    660    662     1   109.5600471 388.275200
    661    664    668     1   109.5600471 388.275200
    661    673    676     1   107.2600461 396.643200
    662    660    674     1   109.5600471 388.275200
    662    660    682     1   109.7800468 425.094400
    663    661    664     1   109.5600471 388.275200
    663    661    673     1   110.2600474 425.931200
    664    665    667     1   109.5600471 388.275200
    664    672    675     1   107.2600461 396.643200
    665    664    668     1   109.5600471 388.275200
    665    666    669     1   110.2200475 386.601600
    665    671    677     1   107.2600461 396.643200
    666    665    667     1   109.5600471 388.275200
    667    665    671     1   110.2600474 425.931200
    668    664    672     1   110.2600474 425.931200
    669    666    670     1   109.5800467 425.931200
    669    666    682     1   109.5800467 425.931200
    674    680    681     1   107.2600461 396.643200
    678    674    680     1   110.2600474 425.931200
    678    674    679     1   108.4600466 328.025600
    679    674    680     1   110.2600474 425.931200
    683    684    686     1   109.5600471 388.275200
    683    697    701     1   109.5600471 388.275200
    683    697    702     1   109.5600471 388.275200
    684    687    691     1   109.5600471 388.275200
    684    696    699     1   107.2600461 396.643200
    684    683    685     1   109.5600471 388.275200
    685    683    697     1   109.5600471 388.275200
    685    683    705     1   109.7800468 425.094400
    686    684    687     1   109.5600471 388.275200
    686    684    696     1   110.2600474 425.931200
    687    688    690     1   109.5600471 388.275200
    687    695    698     1   107.2600461 396.643200
    688    689    692     1   110.2200475 386.601600
    688    694    700     1   107.2600461 396.643200
    688    687    691     1   109.5600471 388.275200
    689    688    690     1   109.5600471 388.275200
    690    688    694     1   110.2600474 425.931200
    691    687    695     1   110.2600474 425.931200
    692    689    693     1   109.5800467 425.931200
    692    689    705     1   109.5800467 425.931200
    697    703    704     1   107.2600461 396.643200
    701    697    703     1   110.2600474 425.931200
    701    697    702     1   108.4600466 328.025600
    702    697    703     1   110.2600474 425.931200
    706    707    709     1   109.5600471 388.275200
    706    720    724     1   109.5600471 388.275200
    706    720    725     1   109.5600471 388.275200
    707    706    708     1   109.5600471 388.275200
    707    710    714     1   109.5600471 388.275200
    707    719    722     1   107.2600461 396.643200
    708    706    720     1   109.5600471 388.275200
    708    706    728     1   109.7800468 425.094400
    709    707    710     1   109.5600471 388.275200
    709    707    719     1   110.2600474 425.931200
    710    711    713     1   109.5600471 388.275200
    710    718    721     1   107.2600461 396.643200
    711    710    714     1   109.5600471 388.275200
    711    712    715     1   110.2200475 386.601600
    711    717    723     1   107.2600461 396.643200
    712    711    713     1   109.5600471 388.275200
    713    711    717     1   110.2600474 425.931200
    714    710    718     1   110.2600474 425.931200
    715    712    716     1   109.5800467 425.931200
    715    712    728     1   109.5800467 425.931200
    720    726    727     1   107.2600461 396.643200
    724    720    726     1   110.2600474 425.931200
    724    720    725     1   108.4600466 328.025600
    725    720    726     1   110.2600474 425.931200
    729    730    732     1   109.5600471 388.275200
    729    743    747     1   109.5600471 388.275200
    729    743    748     1   109.5600471 388.275200
    730    733    737     1   109.5600471 388.275200
    730    742    745     1   107.2600461 396.643200
    730    729    731     1   109.5600471 388.275200
    731    729    743     1   109.5600471 388.275200
    731    729    751     1   109.7800468 425.094400
    732    730    733     1   109.5600471 388.275200
    732    730    742     1   110.2600474 425.931200
    733    734    736     1   109.5600471 388.275200
    733    741    744     1   107.2600461 396.643200
    734    735    738     1   110.2200475 386.601600
    734    740    746     1   107.2600461 396.643200
    734    733    737     1   109.5600471 388.275200
    735    734    736     1   109.5600471 388.275200
    736    734    740     1   110.2600474 425.931200
    737    733    741     1   110.2600474 425.931200
    738    735    739     1   109.5800467 425.931200
    738    735    751     1   109.5800467 425.931200
    743    749    750     1   107.2600461 396.643200
    747    743    749     1   110.2600474 425.931200
    747    743    748     1   108.4600466 328.025600
    748    743    749     1   110.2600474 425.931200
    752    753    755     1   109.5600471 388.275200
    752    766    770     1   109.5600471 388.275200
    752    766    771     1   109.5600471 388.275200
    753    752    754     1   109.5600471 388.275200
    753    756    760     1   109.5600471 388.275200
    753    765    768     1   107.2600461 396.643200
    754    752    766     1   109.5600471 388.275200
    754    752    774     1   109.7800468 425.094400
    755    753    756     1   109.5600471 388.275200
    755    753    765     1   110.2600474 425.931200
    756    757    759     1   109.5600471 388.275200
    756    764    767     1   107.2600461 396.643200
    757    756    760     1   109.5600471 388.275200
    757    758    761     1   110.2200475 386.601600
    757    763    769     1   107.2600461 396.643200
    758    757    759     1   109.5600471 388.275200
    759    757    763     1   110.2600474 425.931200
    760    756    764     1   110.2600474 425.931200
    761    758    762     1   109.5800467 425.931200
    761    758    774     1   109.5800467 425.931200
    766    772    773     1   107.2600461 396.643200
    770    766    772     1   110.2600474 425.931200
    770    766    771     1   108.4600466 328.025600
    771    766    772     1   110.2600474 425.931200
    775    776    778     1   109.5600471 388.275200
    775    789    793     1   109.5600471 388.275200
    775    789    794     1   109.5600471 388.275200
    776    779    783     1   109.5600471 388.275200
    776    788    791     1   107.2600461 396.643200
    776    775    777     1   109.5600471 388.275200
    777    775    789     1   109.5600471 388.275200
    777    775    797     1   109.7800468 425.094400
    778    776    779     1   109.5600471 388.275200
    778    776    788     1   110.2600474 425.931200
    779    780    782     1   109.5600471 388.275200
    779    787    790     1   107.2600461 396.643200
    780    781    784     1   110.2200475 386.601600
    780    786    792     1   107.2600461 396.643200
    780    779    783     1   109.5600471 388.275200
    781    780    782     1   109.5600471 388.275200
    782    780    786     1   110.2600474 425.931200
    783    779    787     1   110.2600474 425.931200
    784    781    785     1   109.5800467 425.931200
    784    781    797     1   109.5800467 425.931200
    789    795    796     1   107.2600461 396.643200
    793    789    795     1   110.2600474 425.931200
    793    789    794     1   108.4600466 328.025600
    794    789    795     1   110.2600474 425.931200
    798    799    801     1   109.5600471 388.275200
    798    812    816     1   109.5600471 388.275200
    798    812    817     1   109.5600471 388.275200
    799    798    800     1   109.5600471 388.275200
    799    802    806     1   109.5600471 388.275200
    799    811    814     1   107.2600461 396.643200
    800    798    812     1   109.5600471 388.275200
    800    798    820     1   109.7800468 425.094400
    801    799    802     1   109.5600471 388.275200
    801    799    811     1   110.2600474 425.931200
    802    803    805     1   109.5600471 388.275200
    802    810    813     1   107.2600461 396.643200
    803    802    806     1   109.5600471 388.275200
    803    804    807     1   110.2200475 386.601600
    803    809    815     1   107.2600461 396.643200
    804    803    805     1   109.5600471 388.275200
    805    803    809     1   110.2600474 425.931200
    806    802    810     1   110.2600474 425.931200
    807    804    808     1   109.5800467 425.931200
    807    804    820     1   109.5800467 425.931200
    812    818    819     1   107.2600461 396.643200
    816    812    818     1   110.2600474 425.931200
    816    812    817     1   108.4600466 328.025600
    817    812    818     1   110.2600474 425.931200
    821    822    824     1   109.5600471 388.275200
    821    835    839     1   109.5600471 388.275200
    821    835    840     1   109.5600471 388.275200
    822    825    829     1   109.5600471 388.275200
    822    834    837     1   107.2600461 396.643200
    822    821    823     1   109.5600471 388.275200
    823    821    835     1   109.5600471 388.275200
    823    821    843     1   109.7800468 425.094400
    824    822    825     1   109.5600471 388.275200
    824    822    834     1   110.2600474 425.931200
    825    826    828     1   109.5600471 388.275200
    825    833    836     1   107.2600461 396.643200
    826    827    830     1   110.2200475 386.601600
    826    832    838     1   107.2600461 396.643200
    826    825    829     1   109.5600471 388.275200
    827    826    828     1   109.5600471 388.275200
    828    826    832     1   110.2600474 425.931200
    829    825    833     1   110.2600474 425.931200
    830    827    831     1   109.5800467 425.931200
    830    827    843     1   109.5800467 425.931200
    835    841    842     1   107.2600461 396.643200
    839    835    841     1   110.2600474 425.931200
    839    835    840     1   108.4600466 328.025600
    840    835    841     1   110.2600474 425.931200
    844    845    847     1   109.5600471 388.275200
    844    858    862     1   109.5600471 388.275200
    844    858    863     1   109.5600471 388.275200
    845    844    846     1   109.5600471 388.275200
    845    848    852     1   109.5600471 388.275200
    845    857    860     1   107.2600461 396.643200
    846    844    858     1   109.5600471 388.275200
    846    844    866     1   109.7800468 425.094400
    847    845    848     1   109.5600471 388.275200
    847    845    857     1   110.2600474 425.931200
    848    849    851     1   109.5600471 388.275200
    848    856    859     1   107.2600461 396.643200
    849    848    852     1   109.5600471 388.275200
    849    850    853     1   110.2200475 386.601600
    849    855    861     1   107.2600461 396.643200
    850    849    851     1   109.5600471 388.275200
    851    849    855     1   110.2600474 425.931200
    852    848    856     1   110.2600474 425.931200
    853    850    854     1   109.5800467 425.931200
    853    850    866     1   109.5800467 425.931200
    858    864    865     1   107.2600461 396.643200
    862    858    864     1   110.2600474 425.931200
    862    858    863     1   108.4600466 328.025600
    863    858    864     1   110.2600474 425.931200
    867    868    870     1   109.5600471 388.275200
    867    881    885     1   109.5600471 388.275200
    867    881    886     1   109.5600471 388.275200
    868    871    875     1   109.5600471 388.275200
    868    880    883     1   107.2600461 396.643200
    868    867    869     1   109.5600471 388.275200
    869    867    881     1   109.5600471 388.275200
    869    867    889     1   109.7800468 425.094400
    870    868    871     1   109.5600471 388.275200
    870    868    880     1   110.2600474 425.931200
    871    872    874     1   109.5600471 388.275200
    871    879    882     1   107.2600461 396.643200
    872    873    876     1   110.2200475 386.601600
    872    878    884     1   107.2600461 396.643200
    872    871    875     1   109.5600471 388.275200
    873    872    874     1   109.5600471 388.275200
    874    872    878     1   110.2600474 425.931200
    875    871    879     1   110.2600474 425.931200
    876    873    877     1   109.5800467 425.931200
    876    873    889     1   109.5800467 425.931200
    881    887    888     1   107.2600461 396.643200
    885    881    887     1   110.2600474 425.931200
    885    881    886     1   108.4600466 328.025600
    886    881    887     1   110.2600474 425.931200
    890    891    893     1   109.5600471 388.275200
    890    904    908     1   109.5600471 388.275200
    890    904    909     1   109.5600471 388.275200
    891    890    892     1   109.5600471 388.275200
    891    894    898     1   109.5600471 388.275200
    891    903    906     1   107.2600461 396.643200
    892    890    904     1   109.5600471 388.275200
    892    890    912     1   109.7800468 425.094400
    893    891    894     1   109.5600471 388.275200
    893    891    903     1   110.2600474 425.931200
    894    895    897     1   109.5600471 388.275200
    894    902    905     1   107.2600461 396.643200
    895    894    898     1   109.5600471 388.275200
    895    896    899     1   110.2200475 386.601600
    895    901    907     1   107.2600461 396.643200
    896    895    897     1   109.5600471 388.275200
    897    895    901     1   110.2600474 425.931200
    898    894    902     1   110.2600474 425.931200
    899    896    900     1   109.5800467 425.931200
    899    896    912     1   109.5800467 425.931200
    904    910    911     1   107.2600461 396.643200
    908    904    910     1   110.2600474 425.931200
    908    904    909     1   108.4600466 328.025600
    909    904    910     1   110.2600474 425.931200
    913    914    916     1   109.5600471 388.275200
    913    927    931     1   109.5600471 388.275200
    913    927    932     1   109.5600471 388.275200
    914    917    921     1   109.5600471 388.275200
    914    926    929     1   107.2600461 396.643200
    914    913    915     1   109.5600471 388.275200
    915    913    927     1   109.5600471 388.275200
    915    913    935     1   109.7800468 425.094400
    916    914    917     1   109.5600471 388.275200
    916    914    926     1   110.2600474 425.931200
    917    918    920     1   109.5600471 388.275200
    917    925    928     1   107.2600461 396.643200
    918    919    922     1   110.2200475 386.601600
    918    924    930     1   107.2600461 396.643200
    918    917    921     1   109.5600471 388.275200
    919    918    920     1   109.5600471 388.275200
    920    918    924     1   110.2600474 425.931200
    921    917    925     1   110.2600474 425.931200
    922    919    923     1   109.5800467 425.931200
    922    919    935     1   109.5800467 425.931200
    927    933    934     1   107.2600461 396.643200
    931    927    933     1   110.2600474 425.931200
    931    927    932     1   108.4600466 328.025600
    932    927    933     1   110.2600474 425.931200
    936    937    939     1   109.5600471 388.275200
    936    950    954     1   109.5600471 388.275200
    936    950    955     1   109.5600471 388.275200
    937    936    938     1   109.5600471 388.275200
    937    940    944     1   109.5600471 388.275200
    937    949    952     1   107.2600461 396.643200
    938    936    950     1   109.5600471 388.275200
    938    936    958     1   109.7800468 425.094400
    939    937    940     1   109.5600471 388.275200
    939    937    949     1   110.2600474 425.931200
    940    941    943     1   109.5600471 388.275200
    940    948    951     1   107.2600461 396.643200
    941    940    944     1   109.5600471 388.275200
    941    942    945     1   110.2200475 386.601600
    941    947    953     1   107.2600461 396.643200
    942    941    943     1   109.5600471 388.275200
    943    941    947     1   110.2600474 425.931200
    944    940    948     1   110.2600474 425.931200
    945    942    946     1   109.5800467 425.931200
    945    942    958     1   109.5800467 425.931200
    950    956    957     1   107.2600461 396.643200
    954    950    956     1   110.2600474 425.931200
    954    950    955     1   108.4600466 328.025600
    955    950    956     1   110.2600474 425.931200
    959    960    962     1   109.5600471 388.275200
    959    973    977     1   109.5600471 388.275200
    959    973    978     1   109.5600471 388.275200
    960    963    967     1   109.5600471 388.275200
    960    972    975     1   107.2600461 396.643200
    960    959    961     1   109.5600471 388.275200
    961    959    973     1   109.5600471 388.275200
    961    959    981     1   109.7800468 425.094400
    962    960    963     1   109.5600471 388.275200
    962    960    972     1   110.2600474 425.931200
    963    964    966     1   109.5600471 388.275200
    963    971    974     1   107.2600461 396.643200
    964    965    968     1   110.2200475 386.601600
    964    970    976     1   107.2600461 396.643200
    964    963    967     1   109.5600471 388.275200
    965    964    966     1   109.5600471 388.275200
    966    964    970     1   110.2600474 425.931200
    967    963    971     1   110.2600474 425.931200
    968    965    969     1   109.5800467 425.931200
    968    965    981     1   109.5800467 425.931200
    973    979    980     1   107.2600461 396.643200
    977    973    979     1   110.2600474 425.931200
    977    973    978     1   108.4600466 328.025600
    978    973    979     1   110.2600474 425.931200
    982    983    985     1   109.5600471 388.275200
    982    996   1000     1   109.5600471 388.275200
    982    996   1001     1   109.5600471 388.275200
    983    982    984     1   109.5600471 388.275200
    983    986    990     1   109.5600471 388.275200
    983    995    998     1   107.2600461 396.643200
    984    982    996     1   109.5600471 388.275200
    984    982   1004     1   109.7800468 425.094400
    985    983    986     1   109.5600471 388.275200
    985    983    995     1   110.2600474 425.931200
    986    987    989     1   109.5600471 388.275200
    986    994    997     1   107.2600461 396.643200
    987    986    990     1   109.5600471 388.275200
    987    988    991     1   110.2200475 386.601600
    987    993    999     1   107.2600461 396.643200
    988    987    989     1   109.5600471 388.275200
    989    987    993     1   110.2600474 425.931200
    990    986    994     1   110.2600474 425.931200
    991    988    992     1   109.5800467 425.931200
    991    988   1004     1   109.5800467 425.931200
    996   1002   1003     1   107.2600461 396.643200
   1000    996   1002     1   110.2600474 425.931200
   1000    996   1001     1   108.4600466 328.025600
   1001    996   1002     1   110.2600474 425.931200
   1005   1006   1008     1   109.5600471 388.275200
   1005   1019   1023     1   109.5600471 388.275200
   1005   1019   1024     1   109.5600471 388.275200
   1006   1009   1013     1   109.5600471 388.275200
   1006   1018   1021     1   107.2600461 396.643200
   1006   1005   1007     1   109.5600471 388.275200
   1007   1005   1019     1   109.5600471 388.275200
   1007   1005   1027     1   109.7800468 425.094400
   1008   1006   1009     1   109.5600471 388.275200
   1008   1006   1018     1   110.2600474 425.931200
   1009   1010   1012     1   109.5600471 388.275200
   1009   1017   1020     1   107.2600461 396.643200
   1010   1011   1014     1   110.2200475 386.601600
   1010   1016   1022     1   107.2600461 396.643200
   1010   1009   1013     1   109.5600471 388.275200
   1011   1010   1012     1   109.5600471 388.275200
   1012   1010   1016     1   110.2600474 425.931200
   1013   1009   1017     1   110.2600474 425.931200
   1014   1011   1015     1   109.5800467 425.931200
   1014   1011   1027     1   109.5800467 425.931200
   1019   1025   1026     1   107.2600461 396.643200
   1023   1019   1025     1   110.2600474 425.931200
   1023   1019   1024     1   108.4600466 328.025600
   1024   1019   1025     1   110.2600474 425.931200
   1028   1029   1031     1   109.5600471 388.275200
   1028   1042   1046     1   109.5600471 388.275200
   1028   1042   1047     1   109.5600471 388.275200
   1029   1028   1030     1   109.5600471 388.275200
   1029   1032   1036     1   109.5600471 388.275200
   1029   1041   1044     1   107.2600461 396.643200
   1030   1028   1042     1   109.5600471 388.275200
   1030   1028   1050     1   109.7800468 425.094400
   1031   1029   1032     1   109.5600471 388.275200
   1031   1029   1041     1   110.2600474 425.931200
   1032   1033   1035     1   109.5600471 388.275200
   1032   1040   1043     1   107.2600461 396.643200
   1033   1032   1036     1   109.5600471 388.275200
   1033   1034   1037     1   110.2200475 386.601600
   1033   1039   1045     1   107.2600461 396.643200
   1034   1033   1035     1   109.5600471 388.275200
   1035   1033   1039     1   110.2600474 425.931200
   1036   1032   1040     1   110.2600474 425.931200
   1037   1034   1038     1   109.5800467 425.931200
   1037   1034   1050     1   109.5800467 425.931200
   1042   1048   1049     1   107.2600461 396.643200
   1046   1042   1048     1   110.2600474 425.931200
   1046   1042   1047     1   108.4600466 328.025600
   1047   1042   1048     1   110.2600474 425.931200
   1051   1052   1054     1   109.5600471 388.275200
   1051   1065   1069     1   109.5600471 388.275200
   1051   1065   1070     1   109.5600471 388.275200
   1052   1055   1059     1   109.5600471 388.275200
   1052   1064   1067     1   107.2600461 396.643200
   1052   1051   1053     1   109.5600471 388.275200
   1053   1051   1065     1   109.5600471 388.275200
   1053   1051   1073     1   109.7800468 425.094400
   1054   1052   1055     1   109.5600471 388.275200
   1054   1052   1064     1   110.2600474 425.931200
   1055   1056   1058     1   109.5600471 388.275200
   1055   1063   1066     1   107.2600461 396.643200
   1056   1057   1060     1   110.2200475 386.601600
   1056   1062   1068     1   107.2600461 396.643200
   1056   1055   1059     1   109.5600471 388.275200
   1057   1056   1058     1   109.5600471 388.275200
   1058   1056   1062     1   110.2600474 425.931200
   1059   1055   1063     1   110.2600474 425.931200
   1060   1057   1061     1   109.5800467 425.931200
   1060   1057   1073     1   109.5800467 425.931200
   1065   1071   1072     1   107.2600461 396.643200
   1069   1065   1071     1   110.2600474 425.931200
   1069   1065   1070     1   108.4600466 328.025600
   1070   1065   1071     1   110.2600474 425.931200
   1074   1075   1077     1   109.5600471 388.275200
   1074   1088   1092     1   109.5600471 388.275200
   1074   1088   1093     1   109.5600471 388.275200
   1075   1074   1076     1   109.5600471 388.275200
   1075   1078   1082     1   109.5600471 388.275200
   1075   1087   1090     1   107.2600461 396.643200
   1076   1074   1088     1   109.5600471 388.275200
   1076   1074   1096     1   109.7800468 425.094400
   1077   1075   1078     1   109.5600471 388.275200
   1077   1075   1087     1   110.2600474 425.931200
   1078   1079   1081     1   109.5600471 388.275200
   1078   1086   1089     1   107.2600461 396.643200
   1079   1078   1082     1   109.5600471 388.275200
   1079   1080   1083     1   110.2200475 386.601600
   1079   1085   1091     1   107.2600461 396.643200
   1080   1079   1081     1   109.5600471 388.275200
   1081   1079   1085     1   110.2600474 425.931200
   1082   1078   1086     1   110.2600474 425.931200
   1083   1080   1084     1   109.5800467 425.931200
   1083   1080   1096     1   109.5800467 425.931200
   1088   1094   1095     1   107.2600461 396.643200
   1092   1088   1094     1   110.2600474 425.931200
   1092   1088   1093     1   108.4600466 328.025600
   1093   1088   1094     1   110.2600474 425.931200
   1097   1098   1100     1   109.5600471 388.275200
   1097   1111   1115     1   109.5600471 388.275200
   1097   1111   1116     1   109.5600471 388.275200
   1098   1101   1105     1   109.5600471 388.275200
   1098   1110   1113     1   107.2600461 396.643200
   1098   1097   1099     1   109.5600471 388.275200
   1099   1097   1111     1   109.5600471 388.275200
   1099   1097   1119     1   109.7800468 425.094400
   1100   1098   1101     1   109.5600471 388.275200
   1100   1098   1110     1   110.2600474 425.931200
   1101   1102   1104     1   109.5600471 388.275200
   1101   1109   1112     1   107.2600461 396.643200
   1102   1103   1106     1   110.2200475 386.601600
   1102   1108   1114     1   107.2600461 396.643200
   1102   1101   1105     1   109.5600471 388.275200
   1103   1102   1104     1   109.5600471 388.275200
   1104   1102   1108     1   110.2600474 425.931200
   1105   1101   1109     1   110.2600474 425.931200
   1106   1103   1107     1   109.5800467 425.931200
   1106   1103   1119     1   109.5800467 425.931200
   1111   1117   1118     1   107.2600461 396.643200
   1115   1111   1117     1   110.2600474 425.931200
   1115   1111   1116     1   108.4600466 328.025600
   1116   1111   1117     1   110.2600474 425.931200
   1120   1121   1123     1   109.5600471 388.275200
   1120   1134   1138     1   109.5600471 388.275200
   1120   1134   1139     1   109.5600471 388.275200
   1121   1120   1122     1   109.5600471 388.275200
   1121   1124   1128     1   109.5600471 388.275200
   1121   1133   1136     1   107.2600461 396.643200
   1122   1120   1134     1   109.5600471 388.275200
   1122   1120   1142     1   109.7800468 425.094400
   1123   1121   1124     1   109.5600471 388.275200
   1123   1121   1133     1   110.2600474 425.931200
   1124   1125   1127     1   109.5600471 388.275200
   1124   1132   1135     1   107.2600461 396.643200
   1125   1124   1128     1   109.5600471 388.275200
   1125   1126   1129     1   110.2200475 386.601600
   1125   1131   1137     1   107.2600461 396.643200
   1126   1125   1127     1   109.5600471 388.275200
   1127   1125   1131     1   110.2600474 425.931200
   1128   1124   1132     1   110.2600474 425.931200
   1129   1126   1130     1   109.5800467 425.931200
   1129   1126   1142     1   109.5800467 425.931200
   1134   1140   1141     1   107.2600461 396.643200
   1138   1134   1140     1   110.2600474 425.931200
   1138   1134   1139     1   108.4600466 328.025600
   1139   1134   1140     1   110.2600474 425.931200
   1143   1144   1146     1   109.5600471 388.275200
   1143   1157   1161     1   109.5600471 388.275200
   1143   1157   1162     1   109.5600471 388.275200
   1144   1147   1151     1   109.5600471 388.275200
   1144   1156   1159     1   107.2600461 396.643200
   1144   1143   1145     1   109.5600471 388.275200
   1145   1143   1157     1   109.5600471 388.275200
   1145   1143   1165     1   109.7800468 425.094400
   1146   1144   1147     1   109.5600471 388.275200
   1146   1144   1156     1   110.2600474 425.931200
   1147   1148   1150     1   109.5600471 388.275200
   1147   1155   1158     1   107.2600461 396.643200
   1148   1149   1152     1   110.2200475 386.601600
   1148   1154   1160     1   107.2600461 396.643200
   1148   1147   1151     1   109.5600471 388.275200
   1149   1148   1150     1   109.5600471 388.275200
   1150   1148   1154     1   110.2600474 425.931200
   1151   1147   1155     1   110.2600474 425.931200
   1152   1149   1153     1   109.5800467 425.931200
   1152   1149   1165     1   109.5800467 425.931200
   1157   1163   1164     1   107.2600461 396.643200
   1161   1157   1163     1   110.2600474 425.931200
   1161   1157   1162     1   108.4600466 328.025600
   1162   1157   1163     1   110.2600474 425.931200
   1166   1167   1169     1   109.5600471 388.275200
   1166   1180   1184     1   109.5600471 388.275200
   1166   1180   1185     1   109.5600471 388.275200
   1167   1166   1168     1   109.5600471 388.275200
   1167   1170   1174     1   109.5600471 388.275200
   1167   1179   1182     1   107.2600461 396.643200
   1168   1166   1180     1   109.5600471 388.275200
   1168   1166   1188     1   109.7800468 425.094400
   1169   1167   1170     1   109.5600471 388.275200
   1169   1167   1179     1   110.2600474 425.931200
   1170   1171   1173     1   109.5600471 388.275200
   1170   1178   1181     1   107.2600461 396.643200
   1171   1170   1174     1   109.5600471 388.275200
   1171   1172   1175     1   110.2200475 386.601600
   1171   1177   1183     1   107.2600461 396.643200
   1172   1171   1173     1   109.5600471 388.275200
   1173   1171   1177     1   110.2600474 425.931200
   1174   1170   1178     1   110.2600474 425.931200
   1175   1172   1176     1   109.5800467 425.931200
   1175   1172   1188     1   109.5800467 425.931200
   1180   1186   1187     1   107.2600461 396.643200
   1184   1180   1186     1   110.2600474 425.931200
   1184   1180   1185     1   108.4600466 328.025600
   1185   1180   1186     1   110.2600474 425.931200
   1189   1190   1192     1   109.5600471 388.275200
   1189   1203   1207     1   109.5600471 388.275200
   1189   1203   1208     1   109.5600471 388.275200
   1190   1193   1197     1   109.5600471 388.275200
   1190   1202   1205     1   107.2600461 396.643200
   1190   1189   1191     1   109.5600471 388.275200
   1191   1189   1203     1   109.5600471 388.275200
   1191   1189   1211     1   109.7800468 425.094400
   1192   1190   1193     1   109.5600471 388.275200
   1192   1190   1202     1   110.2600474 425.931200
   1193   1194   1196     1   109.5600471 388.275200
   1193   1201   1204     1   107.2600461 396.643200
   1194   1195   1198     1   110.2200475 386.601600
   1194   1200   1206     1   107.2600461 396.643200
   1194   1193   1197     1   109.5600471 388.275200
   1195   1194   1196     1   109.5600471 388.275200
   1196   1194   1200     1   110.2600474 425.931200
   1197   1193   1201     1   110.2600474 425.931200
   1198   1195   1199     1   109.5800467 425.931200
   1198   1195   1211     1   109.5800467 425.931200
   1203   1209   1210     1   107.2600461 396.643200
   1207   1203   1209     1   110.2600474 425.931200
   1207   1203   1208     1   108.4600466 328.025600
   1208   1203   1209     1   110.2600474 425.931200

[ dihedrals ]
;    ai     aj     ak     al funct         c0         c1         c2         c3         c4         c5
      1      2     14     26     1  0.0000000  0.6508444  3
      1      5     17     20     1  0.0000000  0.6508444  3
      1      8     11     23     1  0.0000000  0.6508444  3
      2      1      5     17     1  0.0000000  0.6508444  3
      2      1      8     11     1  0.0000000  0.6508444  3
      2     14     26    118     1  0.0000000  0.6508444  3
      5      1      2     14     1  0.0000000  0.6508444  3
      5      1      8     11     1  0.0000000  0.6508444  3
      5     17     20     58     1  0.0000000  0.6508444  3
      8      1      2     14     1  0.0000000  0.6508444  3
      8      1      5     17     1  0.0000000  0.6508444  3
      8     11     23     88     1  0.0000000  0.6508444  3
     11     23     88     79     1  180.0000771  0.4184000  2
     11     23     88     79     1  0.0000000  1.6024720  3
     14     26    118    109     1  180.0000771  0.4184000  2
     14     26    118    109     1  0.0000000  1.6024720  3
     17     20     58     49     1  180.0000771  0.4184000  2
     17     20     58     49     1  0.0000000  1.6024720  3
     20     58     49     40     1  180.0000771  0.4184000  2
     20     58     49     40     1  0.0000000  1.6024720  3
     23     88     79     70     1  180.0000771  0.4184000  2
     23     88     79     70     1  0.0000000  1.6024720  3
     26    118    109    100     1  180.0000771  0.4184000  2
     26    118    109    100     1  0.0000000  1.6024720  3
     30     31     43     55     1  0.0000000  0.6508444  3
     30     34     46     52     1  0.0000000  0.6508444  3
     30     37     40     49     1  0.0000000  0.6508444  3
     31     30     34     46     1  0.0000000  0.6508444  3
     31     30     37     40     1  0.0000000  0.6508444  3
     31     43     55    178     1  0.0000000  0.6508444  3
     34     30     31     43     1  0.0000000  0.6508444  3
     34     30     37     40     1  0.0000000  0.6508444  3
     34     46     52    148     1  0.0000000  0.6508444  3
     37     30     31     43     1  0.0000000  0.6508444  3
     37     30     34     46     1  0.0000000  0.6508444  3
     37     40     49     58     1  0.0000000  0.6508444  3
     43     55    178    169     1  180.0000771  0.4184000  2
     43     55    178    169     1  0.0000000  1.6024720  3
     46     52    148    139     1  180.0000771  0.4184000  2
     46     52    148    139     1  0.0000000  1.6024720  3
     52    148    139    130     1  180.0000771  0.4184000  2
     52    148    139    130     1  0.0000000  1.6024720  3
     55    178    169    160     1  180.0000771  0.4184000  2
     55    178    169    160     1  0.0000000  1.6024720  3
     60     61     73     85     1  0.0000000  0.6508444  3
     60     64     76     82     1  0.0000000  0.6508444  3
     60     67     70     79     1  0.0000000  0.6508444  3
     61     60     64     76     1  0.0000000  0.6508444  3
     61     60     67     70     1  0.0000000  0.6508444  3
     61     73     85    238     1  0.0000000  0.6508444  3
     64     60     61     73     1  0.0000000  0.6508444  3
     64     60     67     70     1  0.0000000  0.6508444  3
     64     76     82    208     1  0.0000000  0.6508444  3
     67     60     61     73     1  0.0000000  0.6508444  3
     67     60     64     76     1  0.0000000  0.6508444  3
     67     70     79     88     1  0.0000000  0.6508444  3
     73     85    238    229     1  180.0000771  0.4184000  2
     73     85    238    229     1  0.0000000  1.6024720  3
     76     82    208    199     1  180.0000771  0.4184000  2
     76     82    208    199     1  0.0000000  1.6024720  3
     82    208    199    190     1  180.0000771  0.4184000  2
     82    208    199    190     1  0.0000000  1.6024720  3
     85    238    229    220     1  180.0000771  0.4184000  2
     85    238    229    220     1  0.0000000  1.6024720  3
     90     91    103    115     1  0.0000000  0.6508444  3
     90     94    106    112     1  0.0000000  0.6508444  3
     90     97    100    109     1  0.0000000  0.6508444  3
     91     90     94    106     1  0.0000000  0.6508444  3
     91     90     97    100     1  0.0000000  0.6508444  3
     91    103    115    298     1  0.0000000  0.6508444  3
     94     90     91    103     1  0.0000000  0.6508444  3
     94     90     97    100     1  0.0000000  0.6508444  3
     94    106    112    268     1  0.0000000  0.6508444  3
     97     90     91    103     1  0.0000000  0.6508444  3
     97     90     94    106     1  0.0000000  0.6508444  3
     97    100    109    118     1  0.0000000  0.6508444  3
    103    115    298    289     1  180.0000771  0.4184000  2
    103    115    298    289     1  0.0000000  1.6024720  3
    106    112    268    259     1  180.0000771  0.4184000  2
    106    112    268    259     1  0.0000000  1.6024720  3
    112    268    259    250     1  180.0000771  0.4184000  2
    112    268    259    250     1  0.0000000  1.6024720  3
    115    298    289    280     1  180.0000771  0.4184000  2
    115    298    289    280     1  0.0000000  1.6024720  3
    120    121    133    145     1  0.0000000  0.6508444  3
    120    124    136    142     1  0.0000000  0.6508444  3
    120    127    130    139     1  0.0000000  0.6508444  3
    121    120    124    136     1  0.0000000  0.6508444  3
    121    120    127    130     1  0.0000000  0.6508444  3
    121    133    145    358     1  0.0000000  0.6508444  3
    124    120    121    133     1  0.0000000  0.6508444  3
    124    120    127    130     1  0.0000000  0.6508444  3
    124    136    142    328     1  0.0000000  0.6508444  3
    127    120    121    133     1  0.0000000  0.6508444  3
    127    120    124    136     1  0.0000000  0.6508444  3
    127    130    139    148     1  0.0000000  0.6508444  3
    133    145    358    349     1  180.0000771  0.4184000  2
    133    145    358    349     1  0.0000000  1.6024720  3
    136    142    328    319     1  180.0000771  0.4184000  2
    136    142    328    319     1  0.0000000  1.6024720  3
    142    328    319    310     1  180.0000771  0.4184000  2
    142    328    319    310     1  0.0000000  1.6024720  3
    145    358    349    340     1  180.0000771  0.4184000  2
    145    358    349    340     1  0.0000000  1.6024720  3
    150    151    163    175     1  0.0000000  0.6508444  3
    150    154    166    172     1  0.0000000  0.6508444  3
    150    157    160    169     1  0.0000000  0.6508444  3
    151    150    154    166     1  0.0000000  0.6508444  3
    151    150    157    160     1  0.0000000  0.6508444  3
    151    163    175    418     1  0.0000000  0.6508444  3
    154    150    151    163     1  0.0000000  0.6508444  3
    154    150    157    160     1  0.0000000  0.6508444  3
    154    166    172    388     1  0.0000000  0.6508444  3
    157    150    151    163     1  0.0000000  0.6508444  3
    157    150    154    166     1  0.0000000  0.6508444  3
    157    160    169    178     1  0.0000000  0.6508444  3
    163    175    418    409     1  180.0000771  0.4184000  2
    163    175    418    409     1  0.0000000  1.6024720  3
    166    172    388    379     1  180.0000771  0.4184000  2
    166    172    388    379     1  0.0000000  1.6024720  3
    172    388    379    370     1  180.0000771  0.4184000  2
    172    388    379    370     1  0.0000000  1.6024720  3
    175    418    409    400     1  180.0000771  0.4184000  2
    175    418    409    400     1  0.0000000  1.6024720  3
    180    181    193    205     1  0.0000000  0.6508444  3
    180    184    196    202     1  0.0000000  0.6508444  3
    180    187    190    199     1  0.0000000  0.6508444  3
    181    180    184    196     1  0.0000000  0.6508444  3
    181    180    187    190     1  0.0000000  0.6508444  3
    181    193    205    478     1  0.0000000  0.6508444  3
    184    180    181    193     1  0.0000000  0.6508444  3
    184    180    187    190     1  0.0000000  0.6508444  3
    184    196    202    448     1  0.0000000  0.6508444  3
    187    180    181    193     1  0.0000000  0.6508444  3
    187    180    184    196     1  0.0000000  0.6508444  3
    187    190    199    208     1  0.0000000  0.6508444  3
    193    205    478    469     1  180.0000771  0.4184000  2
    193    205    478    469     1  0.0000000  1.6024720  3
    196    202    448    439     1  180.0000771  0.4184000  2
    196    202    448    439     1  0.0000000  1.6024720  3
    202    448    439    430     1  180.0000771  0.4184000  2
    202    448    439    430     1  0.0000000  1.6024720  3
    205    478    469    460     1  180.0000771  0.4184000  2
    205    478    469    460     1  0.0000000  1.6024720  3
    210    211    223    235     1  0.0000000  0.6508444  3
    210    214    226    232     1  0.0000000  0.6508444  3
    210    217    220    229     1  0.0000000  0.6508444  3
    211    210    214    226     1  0.0000000  0.6508444  3
    211    210    217    220     1  0.0000000  0.6508444  3
    211    223    235    538     1  0.0000000  0.6508444  3
    214    210    211    223     1  0.0000000  0.6508444  3
    214    210    217    220     1  0.0000000  0.6508444  3
    214    226    232    508     1  0.0000000  0.6508444  3
    217    210    211    223     1  0.0000000  0.6508444  3
    217    210    214    226     1  0.0000000  0.6508444  3
    217    220    229    238     1  0.0000000  0.6508444  3
    223    235    538    529     1  180.0000771  0.4184000  2
    223    235    538    529     1  0.0000000  1.6024720  3
    226    232    508    499     1  180.0000771  0.4184000  2
    226    232    508    499     1  0.0000000  1.6024720  3
    232    508    499    490     1  180.0000771  0.4184000  2
    232    508    499    490     1  0.0000000  1.6024720  3
    235    538    529    520     1  180.0000771  0.4184000  2
    235    538    529    520     1  0.0000000  1.6024720  3
    240    241    253    265     1  0.0000000  0.6508444  3
    240    244    256    262     1  0.0000000  0.6508444  3
    240    247    250    259     1  0.0000000  0.6508444  3
    241    240    244    256     1  0.0000000  0.6508444  3
    241    240    247    250     1  0.0000000  0.6508444  3
    241    253    265    598     1  0.0000000  0.6508444  3
    244    240    241    253     1  0.0000000  0.6508444  3
    244    240    247    250     1  0.0000000  0.6508444  3
    244    256    262    568     1  0.0000000  0.6508444  3
    247    240    241    253     1  0.0000000  0.6508444  3
    247    240    244    256     1  0.0000000  0.6508444  3
    247    250    259    268     1  0.0000000  0.6508444  3
    253    265    598    589     1  180.0000771  0.4184000  2
    253    265    598    589     1  0.0000000  1.6024720  3
    256    262    568    559     1  180.0000771  0.4184000  2
    256    262    568    559     1  0.0000000  1.6024720  3
    262    568    559    550     1  180.0000771  0.4184000  2
    262    568    559    550     1  0.0000000  1.6024720  3
    265    598    589    580     1  180.0000771  0.4184000  2
    265    598    589    580     1  0.0000000  1.6024720  3
    270    271    283    295     1  0.0000000  0.6508444  3
    270    274    286    292     1  0.0000000  0.6508444  3
    270    277    280    289     1  0.0000000  0.6508444  3
    271    270    274    286     1  0.0000000  0.6508444  3
    271    270    277    280     1  0.0000000  0.6508444  3
    271    283    295    658     1  0.0000000  0.6508444  3
    274    270    271    283     1  0.0000000  0.6508444  3
    274    270    277    280     1  0.0000000  0.6508444  3
    274    286    292    628     1  0.0000000  0.6508444  3
    277    270    271    283     1  0.0000000  0.6508444  3
    277    270    274    286     1  0.0000000  0.6508444  3
    277    280    289    298     1  0.0000000  0.6508444  3
    283    295    658    649     1  180.0000771  0.4184000  2
    283    295    658    649     1  0.0000000  1.6024720  3
    286    292    628    619     1  180.0000771  0.4184000  2
    286    292    628    619     1  0.0000000  1.6024720  3
    292    628    619    610     1  180.0000771  0.4184000  2
    292    628    619    610     1  0.0000000  1.6024720  3
    295    658    649    640     1  180.0000771  0.4184000  2
    295    658    649    640     1  0.0000000  1.6024720  3
    300    301    313    325     1  0.0000000  0.6508444  3
    300    304    316    322     1  0.0000000  0.6508444  3
    300    307    310    319     1  0.0000000  0.6508444  3
    301    300    304    316     1  0.0000000  0.6508444  3
    301    300    307    310     1  0.0000000  0.6508444  3
    301    313    325    693     1  0.0000000  0.6508444  3
    304    300    301    313     1  0.0000000  0.6508444  3
    304    300    307    310     1  0.0000000  0.6508444  3
    304    316    322    670     1  0.0000000  0.6508444  3
    307    300    301    313     1  0.0000000  0.6508444  3
    307    300    304    316     1  0.0000000  0.6508444  3
    307    310    319    328     1  0.0000000  0.6508444  3
    313    325    693    689     1  180.0000771  0.4184000  2
    313    325    693    689     1  0.0000000  1.6024720  3
    316    322    670    666     1  180.0000771  0.4184000  2
    316    322    670    666     1  0.0000000  1.6024720  3
    322    670    666    665     1  180.0000771  0.4184000  2
    322    670    666    665     1  0.0000000  1.6024720  3
    322    670    666    682     1  180.0000771  5.6484000  1
    322    670    666    682     1  180.0000771  3.5564000  2
    322    670    666    682     1  0.0000000  0.4184000  3
    325    693    689    705     1  180.0000771  5.6484000  1
    325    693    689    705     1  180.0000771  3.5564000  2
    325    693    689    705     1  0.0000000  0.4184000  3
    325    693    689    688     1  180.0000771  0.4184000  2
    325    693    689    688     1  0.0000000  1.6024720  3
    330    331    343    355     1  0.0000000  0.6508444  3
    330    334    346    352     1  0.0000000  0.6508444  3
    330    337    340    349     1  0.0000000  0.6508444  3
    331    330    334    346     1  0.0000000  0.6508444  3
    331    330    337    340     1  0.0000000  0.6508444  3
    331    343    355    739     1  0.0000000  0.6508444  3
    334    330    331    343     1  0.0000000  0.6508444  3
    334    330    337    340     1  0.0000000  0.6508444  3
    334    346    352    716     1  0.0000000  0.6508444  3
    337    330    331    343     1  0.0000000  0.6508444  3
    337    330    334    346     1  0.0000000  0.6508444  3
    337    340    349    358     1  0.0000000  0.6508444  3
    343    355    739    735     1  180.0000771  0.4184000  2
    343    355    739    735     1  0.0000000  1.6024720  3
    346    352    716    712     1  180.0000771  0.4184000  2
    346    352    716    712     1  0.0000000  1.6024720  3
    352    716    712    711     1  180.0000771  0.4184000  2
    352    716    712    711     1  0.0000000  1.6024720  3
    352    716    712    728     1  180.0000771  5.6484000  1
    352    716    712    728     1  180.0000771  3.5564000  2
    352    716    712    728     1  0.0000000  0.4184000  3
    355    739    735    751     1  180.0000771  5.6484000  1
    355    739    735    751     1  180.0000771  3.5564000  2
    355    739    735    751     1  0.0000000  0.4184000  3
    355    739    735    734     1  180.0000771  0.4184000  2
    355    739    735    734     1  0.0000000  1.6024720  3
    360    361    373    385     1  0.0000000  0.6508444  3
    360    364    376    382     1  0.0000000  0.6508444  3
    360    367    370    379     1  0.0000000  0.6508444  3
    361    360    364    376     1  0.0000000  0.6508444  3
    361    360    367    370     1  0.0000000  0.6508444  3
    361    373    385    785     1  0.0000000  0.6508444  3
    364    360    361    373     1  0.0000000  0.6508444  3
    364    360    367    370     1  0.0000000  0.6508444  3
    364    376    382    762     1  0.0000000  0.6508444  3
    367    360    361    373     1  0.0000000  0.6508444  3
    367    360    364    376     1  0.0000000  0.6508444  3
    367    370    379    388     1  0.0000000  0.6508444  3
    373    385    785    781     1  180.0000771  0.4184000  2
    373    385    785    781     1  0.0000000  1.6024720  3
    376    382    762    758     1  180.0000771  0.4184000  2
    376    382    762    758     1  0.0000000  1.6024720  3
    382    762    758    757     1  180.0000771  0.4184000  2
    382    762    758    757     1  0.0000000  1.6024720  3
    382    762    758    774     1  180.0000771  5.6484000  1
    382    762    758    774     1  180.0000771  3.5564000  2
    382    762    758    774     1  0.0000000  0.4184000  3
    385    785    781    797     1  180.0000771  5.6484000  1
    385    785    781    797     1  180.0000771  3.5564000  2
    385    785    781    797     1  0.0000000  0.4184000  3
    385    785    781    780     1  180.0000771  0.4184000  2
    385    785    781    780     1  0.0000000  1.6024720  3
    390    391    403    415     1  0.0000000  0.6508444  3
    390    394    406    412     1  0.0000000  0.6508444  3
    390    397    400    409     1  0.0000000  0.6508444  3
    391    390    394    406     1  0.0000000  0.6508444  3
    391    390    397    400     1  0.0000000  0.6508444  3
    391    403    415    831     1  0.0000000  0.6508444  3
    394    390    391    403     1  0.0000000  0.6508444  3
    394    390    397    400     1  0.0000000  0.6508444  3
    394    406    412    808     1  0.0000000  0.6508444  3
    397    390    391    403     1  0.0000000  0.6508444  3
    397    390    394    406     1  0.0000000  0.6508444  3
    397    400    409    418     1  0.0000000  0.6508444  3
    403    415    831    827     1  180.0000771  0.4184000  2
    403    415    831    827     1  0.0000000  1.6024720  3
    406    412    808    804     1  180.0000771  0.4184000  2
    406    412    808    804     1  0.0000000  1.6024720  3
    412    808    804    803     1  180.0000771  0.4184000  2
    412    808    804    803     1  0.0000000  1.6024720  3
    412    808    804    820     1  180.0000771  5.6484000  1
    412    808    804    820     1  180.0000771  3.5564000  2
    412    808    804    820     1  0.0000000  0.4184000  3
    415    831    827    843     1  180.0000771  5.6484000  1
    415    831    827    843     1  180.0000771  3.5564000  2
    415    831    827    843     1  0.0000000  0.4184000  3
    415    831    827    826     1  180.0000771  0.4184000  2
    415    831    827    826     1  0.0000000  1.6024720  3
    420    421    433    445     1  0.0000000  0.6508444  3
    420    424    436    442     1  0.0000000  0.6508444  3
    420    427    430    439     1  0.0000000  0.6508444  3
    421    420    424    436     1  0.0000000  0.6508444  3
    421    420    427    430     1  0.0000000  0.6508444  3
    421    433    445    877     1  0.0000000  0.6508444  3
    424    420    421    433     1  0.0000000  0.6508444  3
    424    420    427    430     1  0.0000000  0.6508444  3
    424    436    442    854     1  0.0000000  0.6508444  3
    427    420    421    433     1  0.0000000  0.6508444  3
    427    420    424    436     1  0.0000000  0.6508444  3
    427    430    439    448     1  0.0000000  0.6508444  3
    433    445    877    873     1  180.0000771  0.4184000  2
    433    445    877    873     1  0.0000000  1.6024720  3
    436    442    854    850     1  180.0000771  0.4184000  2
    436    442    854    850     1  0.0000000  1.6024720  3
    442    854    850    849     1  180.0000771  0.4184000  2
    442    854    850    849     1  0.0000000  1.6024720  3
    442    854    850    866     1  180.0000771  5.6484000  1
    442    854    850    866     1  180.0000771  3.5564000  2
    442    854    850    866     1  0.0000000  0.4184000  3
    445    877    873    889     1  180.0000771  5.6484000  1
    445    877    873    889     1  180.0000771  3.5564000  2
    445    877    873    889     1  0.0000000  0.4184000  3
    445    877    873    872     1  180.0000771  0.4184000  2
    445    877    873    872     1  0.0000000  1.6024720  3
    450    451    463    475     1  0.0000000  0.6508444  3
    450    454    466    472     1  0.0000000  0.6508444  3
    450    457    460    469     1  0.0000000  0.6508444  3
    451    450    454    466     1  0.0000000  0.6508444  3
    451    450    457    460     1  0.0000000  0.6508444  3
    451    463    475    923     1  0.0000000  0.6508444  3
    454    450    451    463     1  0.0000000  0.6508444  3
    454    450    457    460     1  0.0000000  0.6508444  3
    454    466    472    900     1  0.0000000  0.6508444  3
    457    450    451    463     1  0.0000000  0.6508444  3
    457    450    454    466     1  0.0000000  0.6508444  3
    457    460    469    478     1  0.0000000  0.6508444  3
    463    475    923    919     1  180.0000771  0.4184000  2
    463    475    923    919     1  0.0000000  1.6024720  3
    466    472    900    896     1  180.0000771  0.4184000  2
    466    472    900    896     1  0.0000000  1.6024720  3
    472    900    896    895     1  180.0000771  0.4184000  2
    472    900    896    895     1  0.0000000  1.6024720  3
    472    900    896    912     1  180.0000771  5.6484000  1
    472    900    896    912     1  180.0000771  3.5564000  2
    472    900    896    912     1  0.0000000  0.4184000  3
    475    923    919    935     1  180.0000771  5.6484000  1
    475    923    919    935     1  180.0000771  3.5564000  2
    475    923    919    935     1  0.0000000  0.4184000  3
    475    923    919    918     1  180.0000771  0.4184000  2
    475    923    919    918     1  0.0000000  1.6024720  3
    480    481    493    505     1  0.0000000  0.6508444  3
    480    484    496    502     1  0.0000000  0.6508444  3
    480    487    490    499     1  0.0000000  0.6508444  3
    481    480    484    496     1  0.0000000  0.6508444  3
    481    480    487    490     1  0.0000000  0.6508444  3
    481    493    505    969     1  0.0000000  0.6508444  3
    484    480    481    493     1  0.0000000  0.6508444  3
    484    480    487    490     1  0.0000000  0.6508444  3
    484    496    502    946     1  0.0000000  0.6508444  3
    487    480    481    493     1  0.0000000  0.6508444  3
    487    480    484    496     1  0.0000000  0.6508444  3
    487    490    499    508     1  0.0000000  0.6508444  3
    493    505    969    965     1  180.0000771  0.4184000  2
    493    505    969    965     1  0.0000000  1.6024720  3
    496    502    946    942     1  180.0000771  0.4184000  2
    496    502    946    942     1  0.0000000  1.6024720  3
    502    946    942    941     1  180.0000771  0.4184000  2
    502    946    942    941     1  0.0000000  1.6024720  3
    502    946    942    958     1  180.0000771  5.6484000  1
    502    946    942    958     1  180.0000771  3.5564000  2
    502    946    942    958     1  0.0000000  0.4184000  3
    505    969    965    981     1  180.0000771  5.6484000  1
    505    969    965    981     1  180.0000771  3.5564000  2
    505    969    965    981     1  0.0000000  0.4184000  3
    505    969    965    964     1  180.0000771  0.4184000  2
    505    969    965    964     1  0.0000000  1.6024720  3
    510    511    523    535     1  0.0000000  0.6508444  3
    510    514    526    532     1  0.0000000  0.6508444  3
    510    517    520    529     1  0.0000000  0.6508444  3
    511    510    514    526     1  0.0000000  0.6508444  3
    511    510    517    520     1  0.0000000  0.6508444  3
    511    523    535   1015     1  0.0000000  0.6508444  3
    514    510    511    523     1  0.0000000  0.6508444  3
    514    510    517    520     1  0.0000000  0.6508444  3
    514    526    532    992     1  0.0000000  0.6508444  3
    517    510    511    523     1  0.0000000  0.6508444  3
    517    510    514    526     1  0.0000000  0.6508444  3
    517    520    529    538     1  0.0000000  0.6508444  3
    523    535   1015   1011     1  180.0000771  0.4184000  2
    523    535   1015   1011     1  0.0000000  1.6024720  3
    526    532    992    988     1  180.0000771  0.4184000  2
    526    532    992    988     1  0.0000000  1.6024720  3
    532    992    988    987     1  180.0000771  0.4184000  2
    532    992    988    987     1  0.0000000  1.6024720  3
    532    992    988   1004     1  180.0000771  5.6484000  1
    532    992    988   1004     1  180.0000771  3.5564000  2
    532    992    988   1004     1  0.0000000  0.4184000  3
    535   1015   1011   1027     1  180.0000771  5.6484000  1
    535   1015   1011   1027     1  180.0000771  3.5564000  2
    535   1015   1011   1027     1  0.0000000  0.4184000  3
    535   1015   1011   1010     1  180.0000771  0.4184000  2
    535   1015   1011   1010     1  0.0000000  1.6024720  3
    540    541    553    565     1  0.0000000  0.6508444  3
    540    544    556    562     1  0.0000000  0.6508444  3
    540    547    550    559     1  0.0000000  0.6508444  3
    541    540    544    556     1  0.0000000  0.6508444  3
    541    540    547    550     1  0.0000000  0.6508444  3
    541    553    565   1061     1  0.0000000  0.6508444  3
    544    540    541    553     1  0.0000000  0.6508444  3
    544    540    547    550     1  0.0000000  0.6508444  3
    544    556    562   1038     1  0.0000000  0.6508444  3
    547    540    541    553     1  0.0000000  0.6508444  3
    547    540    544    556     1  0.0000000  0.6508444  3
    547    550    559    568     1  0.0000000  0.6508444  3
    553    565   1061   1057     1  180.0000771  0.4184000  2
    553    565   1061   1057     1  0.0000000  1.6024720  3
    556    562   1038   1034     1  180.0000771  0.4184000  2
    556    562   1038   1034     1  0.0000000  1.6024720  3
    562   1038   1034   1033     1  180.0000771  0.4184000  2
    562   1038   1034   1033     1  0.0000000  1.6024720  3
    562   1038   1034   1050     1  180.0000771  5.6484000  1
    562   1038   1034   1050     1  180.0000771  3.5564000  2
    562   1038   1034   1050     1  0.0000000  0.4184000  3
    565   1061   1057   1073     1  180.0000771  5.6484000  1
    565   1061   1057   1073     1  180.0000771  3.5564000  2
    565   1061   1057   1073     1  0.0000000  0.4184000  3
    565   1061   1057   1056     1  180.0000771  0.4184000  2
    565   1061   1057   1056     1  0.0000000  1.6024720  3
    570    571    583    595     1  0.0000000  0.6508444  3
    570    574    586    592     1  0.0000000  0.6508444  3
    570    577    580    589     1  0.0000000  0.6508444  3
    571    570    574    586     1  0.0000000  0.6508444  3
    571    570    577    580     1  0.0000000  0.6508444  3
    571    583    595   1107     1  0.0000000  0.6508444  3
    574    570    571    583     1  0.0000000  0.6508444  3
    574    570    577    580     1  0.0000000  0.6508444  3
    574    586    592   1084     1  0.0000000  0.6508444  3
    577    570    571    583     1  0.0000000  0.6508444  3
    577    570    574    586     1  0.0000000  0.6508444  3
    577    580    589    598     1  0.0000000  0.6508444  3
    583    595   1107   1103     1  180.0000771  0.4184000  2
    583    595   1107   1103     1  0.0000000  1.6024720  3
    586    592   1084   1080     1  180.0000771  0.4184000  2
    586    592   1084   1080     1  0.0000000  1.6024720  3
    592   1084   1080   1079     1  180.0000771  0.4184000  2
    592   1084   1080   1079     1  0.0000000  1.6024720  3
    592   1084   1080   1096     1  180.0000771  5.6484000  1
    592   1084   1080   1096     1  180.0000771  3.5564000  2
    592   1084   1080   1096     1  0.0000000  0.4184000  3
    595   1107   1103   1119     1  180.0000771  5.6484000  1
    595   1107   1103   1119     1  180.0000771  3.5564000  2
    595   1107   1103   1119     1  0.0000000  0.4184000  3
    595   1107   1103   1102     1  180.0000771  0.4184000  2
    595   1107   1103   1102     1  0.0000000  1.6024720  3
    600    601    613    625     1  0.0000000  0.6508444  3
    600    604    616    622     1  0.0000000  0.6508444  3
    600    607    610    619     1  0.0000000  0.6508444  3
    601    600    604    616     1  0.0000000  0.6508444  3
    601    600    607    610     1  0.0000000  0.6508444  3
    601    613    625   1153     1  0.0000000  0.6508444  3
    604    600    601    613     1  0.0000000  0.6508444  3
    604    600    607    610     1  0.0000000  0.6508444  3
    604    616    622   1130     1  0.0000000  0.6508444  3
    607    600    601    613     1  0.0000000  0.6508444  3
    607    600    604    616     1  0.0000000  0.6508444  3
    607    610    619    628     1  0.0000000  0.6508444  3
    613    625   1153   1149     1  180.0000771  0.4184000  2
    613    625   1153   1149     1  0.0000000  1.6024720  3
    616    622   1130   1126     1  180.0000771  0.4184000  2
    616    622   1130   1126     1  0.0000000  1.6024720  3
    622   1130   1126   1125     1  180.0000771  0.4184000  2
    622   1130   1126   1125     1  0.0000000  1.6024720  3
    622   1130   1126   1142     1  180.0000771  5.6484000  1
    622   1130   1126   1142     1  180.0000771  3.5564000  2
    622   1130   1126   1142     1  0.0000000  0.4184000  3
    625   1153   1149   1165     1  180.0000771  5.6484000  1
    625   1153   1149   1165     1  180.0000771  3.5564000  2
    625   1153   1149   1165     1  0.0000000  0.4184000  3
    625   1153   1149   1148     1  180.0000771  0.4184000  2
    625   1153   1149   1148     1  0.0000000  1.6024720  3
    630    631    643    655     1  0.0000000  0.6508444  3
    630    634    646    652     1  0.0000000  0.6508444  3
    630    637    640    649     1  0.0000000  0.6508444  3
    631    630    634    646     1  0.0000000  0.6508444  3
    631    630    637    640     1  0.0000000  0.6508444  3
    631    643    655   1199     1  0.0000000  0.6508444  3
    634    630    631    643     1  0.0000000  0.6508444  3
    634    630    637    640     1  0.0000000  0.6508444  3
    634    646    652   1176     1  0.0000000  0.6508444  3
    637    630    631    643     1  0.0000000  0.6508444  3
    637    630    634    646     1  0.0000000  0.6508444  3
    637    640    649    658     1  0.0000000  0.6508444  3
    643    655   1199   1195     1  180.0000771  0.4184000  2
    643    655   1199   1195     1  0.0000000  1.6024720  3
    646    652   1176   1172     1  180.0000771  0.4184000  2
    646    652   1176   1172     1  0.0000000  1.6024720  3
    652   1176   1172   1171     1  180.0000771  0.4184000  2
    652   1176   1172   1171     1  0.0000000  1.6024720  3
    652   1176   1172   1188     1  180.0000771  5.6484000  1
    652   1176   1172   1188     1  180.0000771  3.5564000  2
    652   1176   1172   1188     1  0.0000000  0.4184000  3
    655   1199   1195   1211     1  180.0000771  5.6484000  1
    655   1199   1195   1211     1  180.0000771  3.5564000  2
    655   1199   1195   1211     1  0.0000000  0.4184000  3
    655   1199   1195   1194     1  180.0000771  0.4184000  2
    655   1199   1195   1194     1  0.0000000  1.6024720  3
    660    661    664    665     1  180.0000771  0.8368000  1
    660    661    664    665     1  180.0000771  1.0460000  2
    660    661    664    665     1  0.0000000  0.7531200  3
    660    661    664    672     1  0.0000000  0.6508444  3
    660    682    666    665     1  180.0000771  0.4184000  2
    660    682    666    665     1  0.0000000  1.6024720  3
    660    682    666    670     1  180.0000771  5.6484000  1
    660    682    666    670     1  180.0000771  3.5564000  2
    660    682    666    670     1  0.0000000  0.4184000  3
    661    660    674    680     1  0.0000000  0.6508444  3
    661    660    682    666     1  180.0000771  0.4184000  2
    661    660    682    666     1  0.0000000  1.6024720  3
    661    664    665    666     1  180.0000771  0.8368000  1
    661    664    665    666     1  180.0000771  1.0460000  2
    661    664    665    666     1  0.0000000  0.7531200  3
    661    664    665    671     1  0.0000000  0.6508444  3
    664    661    660    674     1  180.0000771  0.8368000  1
    664    661    660    674     1  180.0000771  1.0460000  2
    664    661    660    674     1  0.0000000  0.7531200  3
    664    661    660    682     1  0.0000000  0.6508444  3
    664    665    666    670     1  0.0000000  0.6508444  3
    664    665    666    682     1  0.0000000  0.6508444  3
    665    664    661    673     1  0.0000000  0.6508444  3
    666    665    664    672     1  0.0000000  0.6508444  3
    666    682    660    674     1  180.0000771  0.4184000  2
    666    682    660    674     1  0.0000000  1.6024720  3
    670    666    665    671     1  0.0000000  4.9162000  2
    670    666    665    671     1  0.0000000  0.6024960  3
    671    665    664    672     1  0.0000000  4.9162000  2
    671    665    664    672     1  0.0000000  0.6024960  3
    671    665    666    682     1  0.0000000  4.9162000  2
    671    665    666    682     1  0.0000000  0.6024960  3
    672    664    661    673     1  0.0000000  4.9162000  2
    672    664    661    673     1  0.0000000  0.6024960  3
    673    661    660    674     1  0.0000000  0.6508444  3
    673    661    660    682     1  0.0000000  4.9162000  2
    673    661    660    682     1  0.0000000  0.6024960  3
    680    674    660    682     1  0.0000000  4.9162000  2
    680    674    660    682     1  0.0000000  0.6024960  3
    683    684    687    688     1  180.0000771  0.8368000  1
    683    684    687    688     1  180.0000771  1.0460000  2
    683    684    687    688     1  0.0000000  0.7531200  3
    683    684    687    695     1  0.0000000  0.6508444  3
    683    705    689    693     1  180.0000771  5.6484000  1
    683    705    689    693     1  180.0000771  3.5564000  2
    683    705    689    693     1  0.0000000  0.4184000  3
    683    705    689    688     1  180.0000771  0.4184000  2
    683    705    689    688     1  0.0000000  1.6024720  3
    684    687    688    689     1  180.0000771  0.8368000  1
    684    687    688    689     1  180.0000771  1.0460000  2
    684    687    688    689     1  0.0000000  0.7531200  3
    684    687    688    694     1  0.0000000  0.6508444  3
    684    683    697    703     1  0.0000000  0.6508444  3
    684    683    705    689     1  180.0000771  0.4184000  2
    684    683    705    689     1  0.0000000  1.6024720  3
    687    688    689    693     1  0.0000000  0.6508444  3
    687    688    689    705     1  0.0000000  0.6508444  3
    687    684    683    697     1  180.0000771  0.8368000  1
    687    684    683    697     1  180.0000771  1.0460000  2
    687    684    683    697     1  0.0000000  0.7531200  3
    687    684    683    705     1  0.0000000  0.6508444  3
    688    687    684    696     1  0.0000000  0.6508444  3
    689    705    683    697     1  180.0000771  0.4184000  2
    689    705    683    697     1  0.0000000  1.6024720  3
    689    688    687    695     1  0.0000000  0.6508444  3
    693    689    688    694     1  0.0000000  4.9162000  2
    693    689    688    694     1  0.0000000  0.6024960  3
    694    688    689    705     1  0.0000000  4.9162000  2
    694    688    689    705     1  0.0000000  0.6024960  3
    694    688    687    695     1  0.0000000  4.9162000  2
    694    688    687    695     1  0.0000000  0.6024960  3
    695    687    684    696     1  0.0000000  4.9162000  2
    695    687    684    696     1  0.0000000  0.6024960  3
    696    684    683    697     1  0.0000000  0.6508444  3
    696    684    683    705     1  0.0000000  4.9162000  2
    696    684    683    705     1  0.0000000  0.6024960  3
    703    697    683    705     1  0.0000000  4.9162000  2
    703    697    683    705     1  0.0000000  0.6024960  3
    706    707    710    711     1  180.0000771  0.8368000  1
    706    707    710    711     1  180.0000771  1.0460000  2
    706    707    710    711     1  0.0000000  0.7531200  3
    706    707    710    718     1  0.0000000  0.6508444  3
    706    728    712    711     1  180.0000771  0.4184000  2
    706    728    712    711     1  0.0000000  1.6024720  3
    706    728    712    716     1  180.0000771  5.6484000  1
    706    728    712    716     1  180.0000771  3.5564000  2
    706    728    712    716     1  0.0000000  0.4184000  3
    707    706    720    726     1  0.0000000  0.6508444  3
    707    706    728    712     1  180.0000771  0.4184000  2
    707    706    728    712     1  0.0000000  1.6024720  3
    707    710    711    712     1  180.0000771  0.8368000  1
    707    710    711    712     1  180.0000771  1.0460000  2
    707    710    711    712     1  0.0000000  0.7531200  3
    707    710    711    717     1  0.0000000  0.6508444  3
    710    707    706    720     1  180.0000771  0.8368000  1
    710    707    706    720     1  180.0000771  1.0460000  2
    710    707    706    720     1  0.0000000  0.7531200  3
    710    707    706    728     1  0.0000000  0.6508444  3
    710    711    712    716     1  0.0000000  0.6508444  3
    710    711    712    728     1  0.0000000  0.6508444  3
    711    710    707    719     1  0.0000000  0.6508444  3
    712    711    710    718     1  0.0000000  0.6508444  3
    712    728    706    720     1  180.0000771  0.4184000  2
    712    728    706    720     1  0.0000000  1.6024720  3
    716    712    711    717     1  0.0000000  4.9162000  2
    716    712    711    717     1  0.0000000  0.6024960  3
    717    711    710    718     1  0.0000000  4.9162000  2
    717    711    710    718     1  0.0000000  0.6024960  3
    717    711    712    728     1  0.0000000  4.9162000  2
    717    711    712    728     1  0.0000000  0.6024960  3
    718    710    707    719     1  0.0000000  4.9162000  2
    718    710    707    719     1  0.0000000  0.6024960  3
    719    707    706    720     1  0.0000000  0.6508444  3
    719    707    706    728     1  0.0000000  4.9162000  2
    719    707    706    728     1  0.0000000  0.6024960  3
    726    720    706    728     1  0.0000000  4.9162000  2
    726    720    706    728     1  0.0000000  0.6024960  3
    729    730    733    734     1  180.0000771  0.8368000  1
    729    730    733    734     1  180.0000771  1.0460000  2
    729    730    733    734     1  0.0000000  0.7531200  3
    729    730    733    741     1  0.0000000  0.6508444  3
    729    751    735    739     1  180.0000771  5.6484000  1
    729    751    735    739     1  180.0000771  3.5564000  2
    729    751    735    739     1  0.0000000  0.4184000  3
    729    751    735    734     1  180.0000771  0.4184000  2
    729    751    735    734     1  0.0000000  1.6024720  3
    730    733    734    735     1  180.0000771  0.8368000  1
    730    733    734    735     1  180.0000771  1.0460000  2
    730    733    734    735     1  0.0000000  0.7531200  3
    730    733    734    740     1  0.0000000  0.6508444  3
    730    729    743    749     1  0.0000000  0.6508444  3
    730    729    751    735     1  180.0000771  0.4184000  2
    730    729    751    735     1  0.0000000  1.6024720  3
    733    734    735    739     1  0.0000000  0.6508444  3
    733    734    735    751     1  0.0000000  0.6508444  3
    733    730    729    743     1  180.0000771  0.8368000  1
    733    730    729    743     1  180.0000771  1.0460000  2
    733    730    729    743     1  0.0000000  0.7531200  3
    733    730    729    751     1  0.0000000  0.6508444  3
    734    733    730    742     1  0.0000000  0.6508444  3
    735    751    729    743     1  180.0000771  0.4184000  2
    735    751    729    743     1  0.0000000  1.6024720  3
    735    734    733    741     1  0.0000000  0.6508444  3
    739    735    734    740     1  0.0000000  4.9162000  2
    739    735    734    740     1  0.0000000  0.6024960  3
    740    734    735    751     1  0.0000000  4.9162000  2
    740    734    735    751     1  0.0000000  0.6024960  3
    740    734    733    741     1  0.0000000  4.9162000  2
    740    734    733    741     1  0.0000000  0.6024960  3
    741    733    730    742     1  0.0000000  4.9162000  2
    741    733    730    742     1  0.0000000  0.6024960  3
    742    730    729    743     1  0.0000000  0.6508444  3
    742    730    729    751     1  0.0000000  4.9162000  2
    742    730    729    751     1  0.0000000  0.6024960  3
    749    743    729    751     1  0.0000000  4.9162000  2
    749    743    729    751     1  0.0000000  0.6024960  3
    752    753    756    757     1  180.0000771  0.8368000  1
    752    753    756    757     1  180.0000771  1.0460000  2
    752    753    756    757     1  0.0000000  0.7531200  3
    752    753    756    764     1  0.0000000  0.6508444  3
    752    774    758    757     1  180.0000771  0.4184000  2
    752    774    758    757     1  0.0000000  1.6024720  3
    752    774    758    762     1  180.0000771  5.6484000  1
    752    774    758    762     1  180.0000771  3.5564000  2
    752    774    758    762     1  0.0000000  0.4184000  3
    753    752    766    772     1  0.0000000  0.6508444  3
    753    752    774    758     1  180.0000771  0.4184000  2
    753    752    774    758     1  0.0000000  1.6024720  3
    753    756    757    758     1  180.0000771  0.8368000  1
    753    756    757    758     1  180.0000771  1.0460000  2
    753    756    757    758     1  0.0000000  0.7531200  3
    753    756    757    763     1  0.0000000  0.6508444  3
    756    753    752    766     1  180.0000771  0.8368000  1
    756    753    752    766     1  180.0000771  1.0460000  2
    756    753    752    766     1  0.0000000  0.7531200  3
    756    753    752    774     1  0.0000000  0.6508444  3
    756    757    758    762     1  0.0000000  0.6508444  3
    756    757    758    774     1  0.0000000  0.6508444  3
    757    756    753    765     1  0.0000000  0.6508444  3
    758    757    756    764     1  0.0000000  0.6508444  3
    758    774    752    766     1  180.0000771  0.4184000  2
    758    774    752    766     1  0.0000000  1.6024720  3
    762    758    757    763     1  0.0000000  4.9162000  2
    762    758    757    763     1  0.0000000  0.6024960  3
    763    757    756    764     1  0.0000000  4.9162000  2
    763    757    756    764     1  0.0000000  0.6024960  3
    763    757    758    774     1  0.0000000  4.9162000  2
    763    757    758    774     1  0.0000000  0.6024960  3
    764    756    753    765     1  0.0000000  4.9162000  2
    764    756    753    765     1  0.0000000  0.6024960  3
    765    753    752    766     1  0.0000000  0.6508444  3
    765    753    752    774     1  0.0000000  4.9162000  2
    765    753    752    774     1  0.0000000  0.6024960  3
    772    766    752    774     1  0.0000000  4.9162000  2
    772    766    752    774     1  0.0000000  0.6024960  3
    775    776    779    780     1  180.0000771  0.8368000  1
    775    776    779    780     1  180.0000771  1.0460000  2
    775    776    779    780     1  0.0000000  0.7531200  3
    775    776    779    787     1  0.0000000  0.6508444  3
    775    797    781    785     1  180.0000771  5.6484000  1
    775    797    781    785     1  180.0000771  3.5564000  2
    775    797    781    785     1  0.0000000  0.4184000  3
    775    797    781    780     1  180.0000771  0.4184000  2
    775    797    781    780     1  0.0000000  1.6024720  3
    776    779    780    781     1  180.0000771  0.8368000  1
    776    779    780    781     1  180.0000771  1.0460000  2
    776    779    780    781     1  0.0000000  0.7531200  3
    776    779    780    786     1  0.0000000  0.6508444  3
    776    775    789    795     1  0.0000000  0.6508444  3
    776    775    797    781     1  180.0000771  0.4184000  2
    776    775    797    781     1  0.0000000  1.6024720  3
    779    780    781    785     1  0.0000000  0.6508444  3
    779    780    781    797     1  0.0000000  0.6508444  3
    779    776    775    789     1  180.0000771  0.8368000  1
    779    776    775    789     1  180.0000771  1.0460000  2
    779    776    775    789     1  0.0000000  0.7531200  3
    779    776    775    797     1  0.0000000  0.6508444  3
    780    779    776    788     1  0.0000000  0.6508444  3
    781    797    775    789     1  180.0000771  0.4184000  2
    781    797    775    789     1  0.0000000  1.6024720  3
    781    780    779    787     1  0.0000000  0.6508444  3
    785    781    780    786     1  0.0000000  4.9162000  2
    785    781    780    786     1  0.0000000  0.6024960  3
    786    780    781    797     1  0.0000000  4.9162000  2
    786    780    781    797     1  0.0000000  0.6024960  3
    786    780    779    787     1  0.0000000  4.9162000  2
    786    780    779    787     1  0.0000000  0.6024960  3
    787    779    776    788     1  0.0000000  4.9162000  2
    787    779    776    788     1  0.0000000  0.6024960  3
    788    776    775    789     1  0.0000000  0.6508444  3
    788    776    775    797     1  0.0000000  4.9162000  2
    788    776    775    797     1  0.0000000  0.6024960  3
    795    789    775    797     1  0.0000000  4.9162000  2
    795    789    775    797     1  0.0000000  0.6024960  3
    798    799    802    803     1  180.0000771  0.8368000  1
    798    799    802    803     1  180.0000771  1.0460000  2
    798    799    802    803     1  0.0000000  0.7531200  3
    798    799    802    810     1  0.0000000  0.6508444  3
    798    820    804    803     1  180.0000771  0.4184000  2
    798    820    804    803     1  0.0000000  1.6024720  3
    798    820    804    808     1  180.0000771  5.6484000  1
    798    820    804    808     1  180.0000771  3.5564000  2
    798    820    804    808     1  0.0000000  0.4184000  3
    799    798    812    818     1  0.0000000  0.6508444  3
    799    798    820    804     1  180.0000771  0.4184000  2
    799    798    820    804     1  0.0000000  1.6024720  3
    799    802    803    804     1  180.0000771  0.8368000  1
    799    802    803    804     1  180.0000771  1.0460000  2
    799    802    803    804     1  0.0000000  0.7531200  3
    799    802    803    809     1  0.0000000  0.6508444  3
    802    799    798    812     1  180.0000771  0.8368000  1
    802    799    798    812     1  180.0000771  1.0460000  2
    802    799    798    812     1  0.0000000  0.7531200  3
    802    799    798    820     1  0.0000000  0.6508444  3
    802    803    804    808     1  0.0000000  0.6508444  3
    802    803    804    820     1  0.0000000  0.6508444  3
    803    802    799    811     1  0.0000000  0.6508444  3
    804    803    802    810     1  0.0000000  0.6508444  3
    804    820    798    812     1  180.0000771  0.4184000  2
    804    820    798    812     1  0.0000000  1.6024720  3
    808    804    803    809     1  0.0000000  4.9162000  2
    808    804    803    809     1  0.0000000  0.6024960  3
    809    803    802    810     1  0.0000000  4.9162000  2
    809    803    802    810     1  0.0000000  0.6024960  3
    809    803    804    820     1  0.0000000  4.9162000  2
    809    803    804    820     1  0.0000000  0.6024960  3
    810    802    799    811     1  0.0000000  4.9162000  2
    810    802    799    811     1  0.0000000  0.6024960  3
    811    799    798    812     1  0.0000000  0.6508444  3
    811    799    798    820     1  0.0000000  4.9162000  2
    811    799    798    820     1  0.0000000  0.6024960  3
    818    812    798    820     1  0.0000000  4.9162000  2
    818    812    798    820     1  0.0000000  0.6024960  3
    821    822    825    826     1  180.0000771  0.8368000  1
    821    822    825    826     1  180.0000771  1.0460000  2
    821    822    825    826     1  0.0000000  0.7531200  3
    821    822    825    833     1  0.0000000  0.6508444  3
    821    843    827    831     1  180.0000771  5.6484000  1
    821    843    827    831     1  180.0000771  3.5564000  2
    821    843    827    831     1  0.0000000  0.4184000  3
    821    843    827    826     1  180.0000771  0.4184000  2
    821    843    827    826     1  0.0000000  1.6024720  3
    822    825    826    827     1  180.0000771  0.8368000  1
    822    825    826    827     1  180.0000771  1.0460000  2
    822    825    826    827     1  0.0000000  0.7531200  3
    822    825    826    832     1  0.0000000  0.6508444  3
    822    821    835    841     1  0.0000000  0.6508444  3
    822    821    843    827     1  180.0000771  0.4184000  2
    822    821    843    827     1  0.0000000  1.6024720  3
    825    826    827    831     1  0.0000000  0.6508444  3
    825    826    827    843     1  0.0000000  0.6508444  3
    825    822    821    835     1  180.0000771  0.8368000  1
    825    822    821    835     1  180.0000771  1.0460000  2
    825    822    821    835     1  0.0000000  0.7531200  3
    825    822    821    843     1  0.0000000  0.6508444  3
    826    825    822    834     1  0.0000000  0.6508444  3
    827    843    821    835     1  180.0000771  0.4184000  2
    827    843    821    835     1  0.0000000  1.6024720  3
    827    826    825    833     1  0.0000000  0.6508444  3
    831    827    826    832     1  0.0000000  4.9162000  2
    831    827    826    832     1  0.0000000  0.6024960  3
    832    826    827    843     1  0.0000000  4.9162000  2
    832    826    827    843     1  0.0000000  0.6024960  3
    832    826    825    833     1  0.0000000  4.9162000  2
    832    826    825    833     1  0.0000000  0.6024960  3
    833    825    822    834     1  0.0000000  4.9162000  2
    833    825    822    834     1  0.0000000  0.6024960  3
    834    822    821    835     1  0.0000000  0.6508444  3
    834    822    821    843     1  0.0000000  4.9162000  2
    834    822    821    843     1  0.0000000  0.6024960  3
    841    835    821    843     1  0.0000000  4.9162000  2
    841    835    821    843     1  0.0000000  0.6024960  3
    844    845    848    849     1  180.0000771  0.8368000  1
    844    845    848    849     1  180.0000771  1.0460000  2
    844    845    848    849     1  0.0000000  0.7531200  3
    844    845    848    856     1  0.0000000  0.6508444  3
    844    866    850    849     1  180.0000771  0.4184000  2
    844    866    850    849     1  0.0000000  1.6024720  3
    844    866    850    854     1  180.0000771  5.6484000  1
    844    866    850    854     1  180.0000771  3.5564000  2
    844    866    850    854     1  0.0000000  0.4184000  3
    845    844    858    864     1  0.0000000  0.6508444  3
    845    844    866    850     1  180.0000771  0.4184000  2
    845    844    866    850     1  0.0000000  1.6024720  3
    845    848    849    850     1  180.0000771  0.8368000  1
    845    848    849    850     1  180.0000771  1.0460000  2
    845    848    849    850     1  0.0000000  0.7531200  3
    845    848    849    855     1  0.0000000  0.6508444  3
    848    845    844    858     1  180.0000771  0.8368000  1
    848    845    844    858     1  180.0000771  1.0460000  2
    848    845    844    858     1  0.0000000  0.7531200  3
    848    845    844    866     1  0.0000000  0.6508444  3
    848    849    850    854     1  0.0000000  0.6508444  3
    848    849    850    866     1  0.0000000  0.6508444  3
    849    848    845    857     1  0.0000000  0.6508444  3
    850    849    848    856     1  0.0000000  0.6508444  3
    850    866    844    858     1  180.0000771  0.4184000  2
    850    866    844    858     1  0.0000000  1.6024720  3
    854    850    849    855     1  0.0000000  4.9162000  2
    854    850    849    855     1  0.0000000  0.6024960  3
    855    849    848    856     1  0.0000000  4.9162000  2
    855    849    848    856     1  0.0000000  0.6024960  3
    855    849    850    866     1  0.0000000  4.9162000  2
    855    849    850    866     1  0.0000000  0.6024960  3
    856    848    845    857     1  0.0000000  4.9162000  2
    856    848    845    857     1  0.0000000  0.6024960  3
    857    845    844    858     1  0.0000000  0.6508444  3
    857    845    844    866     1  0.0000000  4.9162000  2
    857    845    844    866     1  0.0000000  0.6024960  3
    864    858    844    866     1  0.0000000  4.9162000  2
    864    858    844    866     1  0.0000000  0.6024960  3
    867    868    871    872     1  180.0000771  0.8368000  1
    867    868    871    872     1  180.0000771  1.0460000  2
    867    868    871    872     1  0.0000000  0.7531200  3
    867    868    871    879     1  0.0000000  0.6508444  3
    867    889    873    877     1  180.0000771  5.6484000  1
    867    889    873    877     1  180.0000771  3.5564000  2
    867    889    873    877     1  0.0000000  0.4184000  3
    867    889    873    872     1  180.0000771  0.4184000  2
    867    889    873    872     1  0.0000000  1.6024720  3
    868    871    872    873     1  180.0000771  0.8368000  1
    868    871    872    873     1  180.0000771  1.0460000  2
    868    871    872    873     1  0.0000000  0.7531200  3
    868    871    872    878     1  0.0000000  0.6508444  3
    868    867    881    887     1  0.0000000  0.6508444  3
    868    867    889    873     1  180.0000771  0.4184000  2
    868    867    889    873     1  0.0000000  1.6024720  3
    871    872    873    877     1  0.0000000  0.6508444  3
    871    872    873    889     1  0.0000000  0.6508444  3
    871    868    867    881     1  180.0000771  0.8368000  1
    871    868    867    881     1  180.0000771  1.0460000  2
    871    868    867    881     1  0.0000000  0.7531200  3
    871    868    867    889     1  0.0000000  0.6508444  3
    872    871    868    880     1  0.0000000  0.6508444  3
    873    889    867    881     1  180.0000771  0.4184000  2
    873    889    867    881     1  0.0000000  1.6024720  3
    873    872    871    879     1  0.0000000  0.6508444  3
    877    873    872    878     1  0.0000000  4.9162000  2
    877    873    872    878     1  0.0000000  0.6024960  3
    878    872    873    889     1  0.0000000  4.9162000  2
    878    872    873    889     1  0.0000000  0.6024960  3
    878    872    871    879     1  0.0000000  4.9162000  2
    878    872    871    879     1  0.0000000  0.6024960  3
    879    871    868    880     1  0.0000000  4.9162000  2
    879    871    868    880     1  0.0000000  0.6024960  3
    880    868    867    881     1  0.0000000  0.6508444  3
    880    868    867    889     1  0.0000000  4.9162000  2
    880    868    867    889     1  0.0000000  0.6024960  3
    887    881    867    889     1  0.0000000  4.9162000  2
    887    881    867    889     1  0.0000000  0.6024960  3
    890    891    894    895     1  180.0000771  0.8368000  1
    890    891    894    895     1  180.0000771  1.0460000  2
    890    891    894    895     1  0.0000000  0.7531200  3
    890    891    894    902     1  0.0000000  0.6508444  3
    890    912    896    895     1  180.0000771  0.4184000  2
    890    912    896    895     1  0.0000000  1.6024720  3
    890    912    896    900     1  180.0000771  5.6484000  1
    890    912    896    900     1  180.0000771  3.5564000  2
    890    912    896    900     1  0.0000000  0.4184000  3
    891    890    904    910     1  0.0000000  0.6508444  3
    891    890    912    896     1  180.0000771  0.4184000  2
    891    890    912    896     1  0.0000000  1.6024720  3
    891    894    895    896     1  180.0000771  0.8368000  1
    891    894    895    896     1  180.0000771  1.0460000  2
    891    894    895    896     1  0.0000000  0.7531200  3
    891    894    895    901     1  0.0000000  0.6508444  3
    894    891    890    904     1  180.0000771  0.8368000  1
    894    891    890    904     1  180.0000771  1.0460000  2
    894    891    890    904     1  0.0000000  0.7531200  3
    894    891    890    912     1  0.0000000  0.6508444  3
    894    895    896    900     1  0.0000000  0.6508444  3
    894    895    896    912     1  0.0000000  0.6508444  3
    895    894    891    903     1  0.0000000  0.6508444  3
    896    895    894    902     1  0.0000000  0.6508444  3
    896    912    890    904     1  180.0000771  0.4184000  2
    896    912    890    904     1  0.0000000  1.6024720  3
    900    896    895    901     1  0.0000000  4.9162000  2
    900    896    895    901     1  0.0000000  0.6024960  3
    901    895    894    902     1  0.0000000  4.9162000  2
    901    895    894    902     1  0.0000000  0.6024960  3
    901    895    896    912     1  0.0000000  4.9162000  2
    901    895    896    912     1  0.0000000  0.6024960  3
    902    894    891    903     1  0.0000000  4.9162000  2
    902    894    891    903     1  0.0000000  0.6024960  3
    903    891    890    904     1  0.0000000  0.6508444  3
    903    891    890    912     1  0.0000000  4.9162000  2
    903    891    890    912     1  0.0000000  0.6024960  3
    910    904    890    912     1  0.0000000  4.9162000  2
    910    904    890    912     1  0.0000000  0.6024960  3
    913    914    917    918     1  180.0000771  0.8368000  1
    913    914    917    918     1  180.0000771  1.0460000  2
    913    914    917    918     1  0.0000000  0.7531200  3
    913    914    917    925     1  0.0000000  0.6508444  3
    913    935    919    923     1  180.0000771  5.6484000  1
    913    935    919    923     1  180.0000771  3.5564000  2
    913    935    919    923     1  0.0000000  0.4184000  3
    913    935    919    918     1  180.0000771  0.4184000  2
    913    935    919    918     1  0.0000000  1.6024720  3
    914    917    918    919     1  180.0000771  0.8368000  1
    914    917    918    919     1  180.0000771  1.0460000  2
    914    917    918    919     1  0.0000000  0.7531200  3
    914    917    918    924     1  0.0000000  0.6508444  3
    914    913    927    933     1  0.0000000  0.6508444  3
    914    913    935    919     1  180.0000771  0.4184000  2
    914    913    935    919     1  0.0000000  1.6024720  3
    917    918    919    923     1  0.0000000  0.6508444  3
    917    918    919    935     1  0.0000000  0.6508444  3
    917    914    913    927     1  180.0000771  0.8368000  1
    917    914    913    927     1  180.0000771  1.0460000  2
    917    914    913    927     1  0.0000000  0.7531200  3
    917    914    913    935     1  0.0000000  0.6508444  3
    918    917    914    926     1  0.0000000  0.6508444  3
    919    935    913    927     1  180.0000771  0.4184000  2
    919    935    913    927     1  0.0000000  1.6024720  3
    919    918    917    925     1  0.0000000  0.6508444  3
    923    919    918    924     1  0.0000000  4.9162000  2
    923    919    918    924     1  0.0000000  0.6024960  3
    924    918    919    935     1  0.0000000  4.9162000  2
    924    918    919    935     1  0.0000000  0.6024960  3
    924    918    917    925     1  0.0000000  4.9162000  2
    924    918    917    925     1  0.0000000  0.6024960  3
    925    917    914    926     1  0.0000000  4.9162000  2
    925    917    914    926     1  0.0000000  0.6024960  3
    926    914    913    927     1  0.0000000  0.6508444  3
    926    914    913    935     1  0.0000000  4.9162000  2
    926    914    913    935     1  0.0000000  0.6024960  3
    933    927    913    935     1  0.0000000  4.9162000  2
    933    927    913    935     1  0.0000000  0.6024960  3
    936    937    940    941     1  180.0000771  0.8368000  1
    936    937    940    941     1  180.0000771  1.0460000  2
    936    937    940    941     1  0.0000000  0.7531200  3
    936    937    940    948     1  0.0000000  0.6508444  3
    936    958    942    941     1  180.0000771  0.4184000  2
    936    958    942    941     1  0.0000000  1.6024720  3
    936    958    942    946     1  180.0000771  5.6484000  1
    936    958    942    946     1  180.0000771  3.5564000  2
    936    958    942    946     1  0.0000000  0.4184000  3
    937    936    950    956     1  0.0000000  0.6508444  3
    937    936    958    942     1  180.0000771  0.4184000  2
    937    936    958    942     1  0.0000000  1.6024720  3
    937    940    941    942     1  180.0000771  0.8368000  1
    937    940    941    942     1  180.0000771  1.0460000  2
    937    940    941    942     1  0.0000000  0.7531200  3
    937    940    941    947     1  0.0000000  0.6508444  3
    940    937    936    950     1  180.0000771  0.8368000  1
    940    937    936    950     1  180.0000771  1.0460000  2
    940    937    936    950     1  0.0000000  0.7531200  3
    940    937    936    958     1  0.0000000  0.6508444  3
    940    941    942    946     1  0.0000000  0.6508444  3
    940    941    942    958     1  0.0000000  0.6508444  3
    941    940    937    949     1  0.0000000  0.6508444  3
    942    941    940    948     1  0.0000000  0.6508444  3
    942    958    936    950     1  180.0000771  0.4184000  2
    942    958    936    950     1  0.0000000  1.6024720  3
    946    942    941    947     1  0.0000000  4.9162000  2
    946    942    941    947     1  0.0000000  0.6024960  3
    947    941    940    948     1  0.0000000  4.9162000  2
    947    941    940    948     1  0.0000000  0.6024960  3
    947    941    942    958     1  0.0000000  4.9162000  2
    947    941    942    958     1  0.0000000  0.6024960  3
    948    940    937    949     1  0.0000000  4.9162000  2
    948    940    937    949     1  0.0000000  0.6024960  3
    949    937    936    950     1  0.0000000  0.6508444  3
    949    937    936    958     1  0.0000000  4.9162000  2
    949    937    936    958     1  0.0000000  0.6024960  3
    956    950    936    958     1  0.0000000  4.9162000  2
    956    950    936    958     1  0.0000000  0.6024960  3
    959    960    963    964     1  180.0000771  0.8368000  1
    959    960    963    964     1  180.0000771  1.0460000  2
    959    960    963    964     1  0.0000000  0.7531200  3
    959    960    963    971     1  0.0000000  0.6508444  3
    959    981    965    969     1  180.0000771  5.6484000  1
    959    981    965    969     1  180.0000771  3.5564000  2
    959    981    965    969     1  0.0000000  0.4184000  3
    959    981    965    964     1  180.0000771  0.4184000  2
    959    981    965    964     1  0.0000000  1.6024720  3
    960    963    964    965     1  180.0000771  0.8368000  1
    960    963    964    965     1  180.0000771  1.0460000  2
    960    963    964    965     1  0.0000000  0.7531200  3
    960    963    964    970     1  0.0000000  0.6508444  3
    960    959    973    979     1  0.0000000  0.6508444  3
    960    959    981    965     1  180.0000771  0.4184000  2
    960    959    981    965     1  0.0000000  1.6024720  3
    963    964    965    969     1  0.0000000  0.6508444  3
    963    964    965    981     1  0.0000000  0.6508444  3
    963    960    959    973     1  180.0000771  0.8368000  1
    963    960    959    973     1  180.0000771  1.0460000  2
    963    960    959    973     1  0.0000000  0.7531200  3
    963    960    959    981     1  0.0000000  0.6508444  3
    964    963    960    972     1  0.0000000  0.6508444  3
    965    981    959    973     1  180.0000771  0.4184000  2
    965    981    959    973     1  0.0000000  1.6024720  3
    965    964    963    971     1  0.0000000  0.6508444  3
    969    965    964    970     1  0.0000000  4.9162000  2
    969    965    964    970     1  0.0000000  0.6024960  3
    970    964    965    981     1  0.0000000  4.9162000  2
    970    964    965    981     1  0.0000000  0.6024960  3
    970    964    963    971     1  0.0000000  4.9162000  2
    970    964    963    971     1  0.0000000  0.6024960  3
    971    963    960    972     1  0.0000000  4.9162000  2
    971    963    960    972     1  0.0000000  0.6024960  3
    972    960    959    973     1  0.0000000  0.6508444  3
    972    960    959    981     1  0.0000000  4.9162000  2
    972    960    959    981     1  0.0000000  0.6024960  3
    979    973    959    981     1  0.0000000  4.9162000  2
    979    973    959    981     1  0.0000000  0.6024960  3
    982    983    986    987     1  180.0000771  0.8368000  1
    982    983    986    987     1  180.0000771  1.0460000  2
    982    983    986    987     1  0.0000000  0.7531200  3
    982    983    986    994     1  0.0000000  0.6508444  3
    982   1004    988    987     1  180.0000771  0.4184000  2
    982   1004    988    987     1  0.0000000  1.6024720  3
    982   1004    988    992     1  180.0000771  5.6484000  1
    982   1004    988    992     1  180.0000771  3.5564000  2
    982   1004    988    992     1  0.0000000  0.4184000  3
    983    982    996   1002     1  0.0000000  0.6508444  3
    983    982   1004    988     1  180.0000771  0.4184000  2
    983    982   1004    988     1  0.0000000  1.6024720  3
    983    986    987    988     1  180.0000771  0.8368000  1
    983    986    987    988     1  180.0000771  1.0460000  2
    983    986    987    988     1  0.0000000  0.7531200  3
    983    986    987    993     1  0.0000000  0.6508444  3
    986    983    982    996     1  180.0000771  0.8368000  1
    986    983    982    996     1  180.0000771  1.0460000  2
    986    983    982    996     1  0.0000000  0.7531200  3
    986    983    982   1004     1  0.0000000  0.6508444  3
    986    987    988    992     1  0.0000000  0.6508444  3
    986    987    988   1004     1  0.0000000  0.6508444  3
    987    986    983    995     1  0.0000000  0.6508444  3
    988    987    986    994     1  0.0000000  0.6508444  3
    988   1004    982    996     1  180.0000771  0.4184000  2
    988   1004    982    996     1  0.0000000  1.6024720  3
    992    988    987    993     1  0.0000000  4.9162000  2
    992    988    987    993     1  0.0000000  0.6024960  3
    993    987    986    994     1  0.0000000  4.9162000  2
    993    987    986    994     1  0.0000000  0.6024960  3
    993    987    988   1004     1  0.0000000  4.9162000  2
    993    987    988   1004     1  0.0000000  0.6024960  3
    994    986    983    995     1  0.0000000  4.9162000  2
    994    986    983    995     1  0.0000000  0.6024960  3
    995    983    982    996     1  0.0000000  0.6508444  3
    995    983    982   1004     1  0.0000000  4.9162000  2
    995    983    982   1004     1  0.0000000  0.6024960  3
   1002    996    982   1004     1  0.0000000  4.9162000  2
   1002    996    982   1004     1  0.0000000  0.6024960  3
   1005   1006   1009   1010     1  180.0000771  0.8368000  1
   1005   1006   1009   1010     1  180.0000771  1.0460000  2
   1005   1006   1009   1010     1  0.0000000  0.7531200  3
   1005   1006   1009   1017     1  0.0000000  0.6508444  3
   1005   1027   1011   1015     1  180.0000771  5.6484000  1
   1005   1027   1011   1015     1  180.0000771  3.5564000  2
   1005   1027   1011   1015     1  0.0000000  0.4184000  3
   1005   1027   1011   1010     1  180.0000771  0.4184000  2
   1005   1027   1011   1010     1  0.0000000  1.6024720  3
   1006   1009   1010   1011     1  180.0000771  0.8368000  1
   1006   1009   1010   1011     1  180.0000771  1.0460000  2
   1006   1009   1010   1011     1  0.0000000  0.7531200  3
   1006   1009   1010   1016     1  0.0000000  0.6508444  3
   1006   1005   1019   1025     1  0.0000000  0.6508444  3
   1006   1005   1027   1011     1  180.0000771  0.4184000  2
   1006   1005   1027   1011     1  0.0000000  1.6024720  3
   1009   1010   1011   1015     1  0.0000000  0.6508444  3
   1009   1010   1011   1027     1  0.0000000  0.6508444  3
   1009   1006   1005   1019     1  180.0000771  0.8368000  1
   1009   1006   1005   1019     1  180.0000771  1.0460000  2
   1009   1006   1005   1019     1  0.0000000  0.7531200  3
   1009   1006   1005   1027     1  0.0000000  0.6508444  3
   1010   1009   1006   1018     1  0.0000000  0.6508444  3
   1011   1027   1005   1019     1  180.0000771  0.4184000  2
   1011   1027   1005   1019     1  0.0000000  1.6024720  3
   1011   1010   1009   1017     1  0.0000000  0.6508444  3
   1015   1011   1010   1016     1  0.0000000  4.9162000  2
   1015   1011   1010   1016     1  0.0000000  0.6024960  3
   1016   1010   1011   1027     1  0.0000000  4.9162000  2
   1016   1010   1011   1027     1  0.0000000  0.6024960  3
   1016   1010   1009   1017     1  0.0000000  4.9162000  2
   1016   1010   1009   1017     1  0.0000000  0.6024960  3
   1017   1009   1006   1018     1  0.0000000  4.9162000  2
   1017   1009   1006   1018     1  0.0000000  0.6024960  3
   1018   1006   1005   1019     1  0.0000000  0.6508444  3
   1018   1006   1005   1027     1  0.0000000  4.9162000  2
   1018   1006   1005   1027     1  0.0000000  0.6024960  3
   1025   1019   1005   1027     1  0.0000000  4.9162000  2
   1025   1019   1005   1027     1  0.0000000  0.6024960  3
   1028   1029   1032   1033     1  180.0000771  0.8368000  1
   1028   1029   1032   1033     1  180.0000771  1.0460000  2
   1028   1029   1032   1033     1  0.0000000  0.7531200  3
   1028   1029   1032   1040     1  0.0000000  0.6508444  3
   1028   1050   1034   1033     1  180.0000771  0.4184000  2
   1028   1050   1034   1033     1  0.0000000  1.6024720  3
   1028   1050   1034   1038     1  180.0000771  5.6484000  1
   1028   1050   1034   1038     1  180.0000771  3.5564000  2
   1028   1050   1034   1038     1  0.0000000  0.4184000  3
   1029   1028   1042   1048     1  0.0000000  0.6508444  3
   1029   1028   1050   1034     1  180.0000771  0.4184000  2
   1029   1028   1050   1034     1  0.0000000  1.6024720  3
   1029   1032   1033   1034     1  180.0000771  0.8368000  1
   1029   1032   1033   1034     1  180.0000771  1.0460000  2
   1029   1032   1033   1034     1  0.0000000  0.7531200  3
   1029   1032   1033   1039     1  0.0000000  0.6508444  3
   1032   1029   1028   1042     1  180.0000771  0.8368000  1
   1032   1029   1028   1042     1  180.0000771  1.0460000  2
   1032   1029   1028   1042     1  0.0000000  0.7531200  3
   1032   1029   1028   1050     1  0.0000000  0.6508444  3
   1032   1033   1034   1038     1  0.0000000  0.6508444  3
   1032   1033   1034   1050     1  0.0000000  0.6508444  3
   1033   1032   1029   1041     1  0.0000000  0.6508444  3
   1034   1033   1032   1040     1  0.0000000  0.6508444  3
   1034   1050   1028   1042     1  180.0000771  0.4184000  2
   1034   1050   1028   1042     1  0.0000000  1.6024720  3
   1038   1034   1033   1039     1  0.0000000  4.9162000  2
   1038   1034   1033   1039     1  0.0000000  0.6024960  3
   1039   1033   1032   1040     1  0.0000000  4.9162000  2
   1039   1033   1032   1040     1  0.0000000  0.6024960  3
   1039   1033   1034   1050     1  0.0000000  4.9162000  2
   1039   1033   1034   1050     1  0.0000000  0.6024960  3
   1040   1032   1029   1041     1  0.0000000  4.9162000  2
   1040   1032   1029   1041     1  0.0000000  0.6024960  3
   1041   1029   1028   1042     1  0.0000000  0.6508444  3
   1041   1029   1028   1050     1  0.0000000  4.9162000  2
   1041   1029   1028   1050     1  0.0000000  0.6024960  3
   1048   1042   1028   1050     1  0.0000000  4.9162000  2
   1048   1042   1028   1050     1  0.0000000  0.6024960  3
   1051   1052   1055   1056     1  180.0000771  0.8368000  1
   1051   1052   1055   1056     1  180.0000771  1.0460000  2
   1051   1052   1055   1056     1  0.0000000  0.7531200  3
   1051   1052   1055   1063     1  0.0000000  0.6508444  3
   1051   1073   1057   1061     1  180.0000771  5.6484000  1
   1051   1073   1057   1061     1  180.0000771  3.5564000  2
   1051   1073   1057   1061     1  0.0000000  0.4184000  3
   1051   1073   1057   1056     1  180.0000771  0.4184000  2
   1051   1073   1057   1056     1  0.0000000  1.6024720  3
   1052   1055   1056   1057     1  180.0000771  0.8368000  1
   1052   1055   1056   1057     1  180.0000771  1.0460000  2
   1052   1055   1056   1057     1  0.0000000  0.7531200  3
   1052   1055   1056   1062     1  0.0000000  0.6508444  3
   1052   1051   1065   1071     1  0.0000000  0.6508444  3
   1052   1051   1073   1057     1  180.0000771  0.4184000  2
   1052   1051   1073   1057     1  0.0000000  1.6024720  3
   1055   1056   1057   1061     1  0.0000000  0.6508444  3
   1055   1056   1057   1073     1  0.0000000  0.6508444  3
   1055   1052   1051   1065     1  180.0000771  0.8368000  1
   1055   1052   1051   1065     1  180.0000771  1.0460000  2
   1055   1052   1051   1065     1  0.0000000  0.7531200  3
   1055   1052   1051   1073     1  0.0000000  0.6508444  3
   1056   1055   1052   1064     1  0.0000000  0.6508444  3
   1057   1073   1051   1065     1  180.0000771  0.4184000  2
   1057   1073   1051   1065     1  0.0000000  1.6024720  3
   1057   1056   1055   1063     1  0.0000000  0.6508444  3
   1061   1057   1056   1062     1  0.0000000  4.9162000  2
   1061   1057   1056   1062     1  0.0000000  0.6024960  3
   1062   1056   1057   1073     1  0.0000000  4.9162000  2
   1062   1056   1057   1073     1  0.0000000  0.6024960  3
   1062   1056   1055   1063     1  0.0000000  4.9162000  2
   1062   1056   1055   1063     1  0.0000000  0.6024960  3
   1063   1055   1052   1064     1  0.0000000  4.9162000  2
   1063   1055   1052   1064     1  0.0000000  0.6024960  3
   1064   1052   1051   1065     1  0.0000000  0.6508444  3
   1064   1052   1051   1073     1  0.0000000  4.9162000  2
   1064   1052   1051   1073     1  0.0000000  0.6024960  3
   1071   1065   1051   1073     1  0.0000000  4.9162000  2
   1071   1065   1051   1073     1  0.0000000  0.6024960  3
   1074   1075   1078   1079     1  180.0000771  0.8368000  1
   1074   1075   1078   1079     1  180.0000771  1.0460000  2
   1074   1075   1078   1079     1  0.0000000  0.7531200  3
   1074   1075   1078   1086     1  0.0000000  0.6508444  3
   1074   1096   1080   1079     1  180.0000771  0.4184000  2
   1074   1096   1080   1079     1  0.0000000  1.6024720  3
   1074   1096   1080   1084     1  180.0000771  5.6484000  1
   1074   1096   1080   1084     1  180.0000771  3.5564000  2
   1074   1096   1080   1084     1  0.0000000  0.4184000  3
   1075   1074   1088   1094     1  0.0000000  0.6508444  3
   1075   1074   1096   1080     1  180.0000771  0.4184000  2
   1075   1074   1096   1080     1  0.0000000  1.6024720  3
   1075   1078   1079   1080     1  180.0000771  0.8368000  1
   1075   1078   1079   1080     1  180.0000771  1.0460000  2
   1075   1078   1079   1080     1  0.0000000  0.7531200  3
   1075   1078   1079   1085     1  0.0000000  0.6508444  3
   1078   1075   1074   1088     1  180.0000771  0.8368000  1
   1078   1075   1074   1088     1  180.0000771  1.0460000  2
   1078   1075   1074   1088     1  0.0000000  0.7531200  3
   1078   1075   1074   1096     1  0.0000000  0.6508444  3
   1078   1079   1080   1084     1  0.0000000  0.6508444  3
   1078   1079   1080   1096     1  0.0000000  0.6508444  3
   1079   1078   1075   1087     1  0.0000000  0.6508444  3
   1080   1079   1078   1086     1  0.0000000  0.6508444  3
   1080   1096   1074   1088     1  180.0000771  0.4184000  2
   1080   1096   1074   1088     1  0.0000000  1.6024720  3
   1084   1080   1079   1085     1  0.0000000  4.9162000  2
   1084   1080   1079   1085     1  0.0000000  0.6024960  3
   1085   1079   1078   1086     1  0.0000000  4.9162000  2
   1085   1079   1078   1086     1  0.0000000  0.6024960  3
   1085   1079   1080   1096     1  0.0000000  4.9162000  2
   1085   1079   1080   1096     1  0.0000000  0.6024960  3
   1086   1078   1075   1087     1  0.0000000  4.9162000  2
   1086   1078   1075   1087     1  0.0000000  0.6024960  3
   1087   1075   1074   1088     1  0.0000000  0.6508444  3
   1087   1075   1074   1096     1  0.0000000  4.9162000  2
   1087   1075   1074   1096     1  0.0000000  0.6024960  3
   1094   1088   1074   1096     1  0.0000000  4.9162000  2
   1094   1088   1074   1096     1  0.0000000  0.6024960  3
   1097   1098   1101   1102     1  180.0000771  0.8368000  1
   1097   1098   1101   1102     1  180.0000771  1.0460000  2
   1097   1098   1101   1102     1  0.0000000  0.7531200  3
   1097   1098   1101   1109     1  0.0000000  0.6508444  3
   1097   1119   1103   1107     1  180.0000771  5.6484000  1
   1097   1119   1103   1107     1  180.0000771  3.5564000  2
   1097   1119   1103   1107     1  0.0000000  0.4184000  3
   1097   1119   1103   1102     1  180.0000771  0.4184000  2
   1097   1119   1103   1102     1  0.0000000  1.6024720  3
   1098   1101   1102   1103     1  180.0000771  0.8368000  1
   1098   1101   1102   1103     1  180.0000771  1.0460000  2
   1098   1101   1102   1103     1  0.0000000  0.7531200  3
   1098   1101   1102   1108     1  0.0000000  0.6508444  3
   1098   1097   1111   1117     1  0.0000000  0.6508444  3
   1098   1097   1119   1103     1  180.0000771  0.4184000  2
   1098   1097   1119   1103     1  0.0000000  1.6024720  3
   1101   1102   1103   1107     1  0.0000000  0.6508444  3
   1101   1102   1103   1119     1  0.0000000  0.6508444  3
   1101   1098   1097   1111     1  180.0000771  0.8368000  1
   1101   1098   1097   1111     1  180.0000771  1.0460000  2
   1101   1098   1097   1111     1  0.0000000  0.7531200  3
   1101   1098   1097   1119     1  0.0000000  0.6508444  3
   1102   1101   1098   1110     1  0.0000000  0.6508444  3
   1103   1119   1097   1111     1  180.0000771  0.4184000  2
   1103   1119   1097   1111     1  0.0000000  1.6024720  3
   1103   1102   1101   1109     1  0.0000000  0.6508444  3
   1107   1103   1102   1108     1  0.0000000  4.9162000  2
   1107   1103   1102   1108     1  0.0000000  0.6024960  3
   1108   1102   1103   1119     1  0.0000000  4.9162000  2
   1108   1102   1103   1119     1  0.0000000  0.6024960  3
   1108   1102   1101   1109     1  0.0000000  4.9162000  2
   1108   1102   1101   1109     1  0.0000000  0.6024960  3
   1109   1101   1098   1110     1  0.0000000  4.9162000  2
   1109   1101   1098   1110     1  0.0000000  0.6024960  3
   1110   1098   1097   1111     1  0.0000000  0.6508444  3
   1110   1098   1097   1119     1  0.0000000  4.9162000  2
   1110   1098   1097   1119     1  0.0000000  0.6024960  3
   1117   1111   1097   1119     1  0.0000000  4.9162000  2
   1117   1111   1097   1119     1  0.0000000  0.6024960  3
   1120   1121   1124   1125     1  180.0000771  0.8368000  1
   1120   1121   1124   1125     1  180.0000771  1.0460000  2
   1120   1121   1124   1125     1  0.0000000  0.7531200  3
   1120   1121   1124   1132     1  0.0000000  0.6508444  3
   1120   1142   1126   1125     1  180.0000771  0.4184000  2
   1120   1142   1126   1125     1  0.0000000  1.6024720  3
   1120   1142   1126   1130     1  180.0000771  5.6484000  1
   1120   1142   1126   1130     1  180.0000771  3.5564000  2
   1120   1142   1126   1130     1  0.0000000  0.4184000  3
   1121   1120   1134   1140     1  0.0000000  0.6508444  3
   1121   1120   1142   1126     1  180.0000771  0.4184000  2
   1121   1120   1142   1126     1  0.0000000  1.6024720  3
   1121   1124   1125   1126     1  180.0000771  0.8368000  1
   1121   1124   1125   1126     1  180.0000771  1.0460000  2
   1121   1124   1125   1126     1  0.0000000  0.7531200  3
   1121   1124   1125   1131     1  0.0000000  0.6508444  3
   1124   1121   1120   1134     1  180.0000771  0.8368000  1
   1124   1121   1120   1134     1  180.0000771  1.0460000  2
   1124   1121   1120   1134     1  0.0000000  0.7531200  3
   1124   1121   1120   1142     1  0.0000000  0.6508444  3
   1124   1125   1126   1130     1  0.0000000  0.6508444  3
   1124   1125   1126   1142     1  0.0000000  0.6508444  3
   1125   1124   1121   1133     1  0.0000000  0.6508444  3
   1126   1125   1124   1132     1  0.0000000  0.6508444  3
   1126   1142   1120   1134     1  180.0000771  0.4184000  2
   1126   1142   1120   1134     1  0.0000000  1.6024720  3
   1130   1126   1125   1131     1  0.0000000  4.9162000  2
   1130   1126   1125   1131     1  0.0000000  0.6024960  3
   1131   1125   1124   1132     1  0.0000000  4.9162000  2
   1131   1125   1124   1132     1  0.0000000  0.6024960  3
   1131   1125   1126   1142     1  0.0000000  4.9162000  2
   1131   1125   1126   1142     1  0.0000000  0.6024960  3
   1132   1124   1121   1133     1  0.0000000  4.9162000  2
   1132   1124   1121   1133     1  0.0000000  0.6024960  3
   1133   1121   1120   1134     1  0.0000000  0.6508444  3
   1133   1121   1120   1142     1  0.0000000  4.9162000  2
   1133   1121   1120   1142     1  0.0000000  0.6024960  3
   1140   1134   1120   1142     1  0.0000000  4.9162000  2
   1140   1134   1120   1142     1  0.0000000  0.6024960  3
   1143   1144   1147   1148     1  180.0000771  0.8368000  1
   1143   1144   1147   1148     1  180.0000771  1.0460000  2
   1143   1144   1147   1148     1  0.0000000  0.7531200  3
   1143   1144   1147   1155     1  0.0000000  0.6508444  3
   1143   1165   1149   1153     1  180.0000771  5.6484000  1
   1143   1165   1149   1153     1  180.0000771  3.5564000  2
   1143   1165   1149   1153     1  0.0000000  0.4184000  3
   1143   1165   1149   1148     1  180.0000771  0.4184000  2
   1143   1165   1149   1148     1  0.0000000  1.6024720  3
   1144   1147   1148   1149     1  180.0000771  0.8368000  1
   1144   1147   1148   1149     1  180.0000771  1.0460000  2
   1144   1147   1148   1149     1  0.0000000  0.7531200  3
   1144   1147   1148   1154     1  0.0000000  0.6508444  3
   1144   1143   1157   1163     1  0.0000000  0.6508444  3
   1144   1143   1165   1149     1  180.0000771  0.4184000  2
   1144   1143   1165   1149     1  0.0000000  1.6024720  3
   1147   1148   1149   1153     1  0.0000000  0.6508444  3
   1147   1148   1149   1165     1  0.0000000  0.6508444  3
   1147   1144   1143   1157     1  180.0000771  0.8368000  1
   1147   1144   1143   1157     1  180.0000771  1.0460000  2
   1147   1144   1143   1157     1  0.0000000  0.7531200  3
   1147   1144   1143   1165     1  0.0000000  0.6508444  3
   1148   1147   1144   1156     1  0.0000000  0.6508444  3
   1149   1165   1143   1157     1  180.0000771  0.4184000  2
   1149   1165   1143   1157     1  0.0000000  1.6024720  3
   1149   1148   1147   1155     1  0.0000000  0.6508444  3
   1153   1149   1148   1154     1  0.0000000  4.9162000  2
   1153   1149   1148   1154     1  0.0000000  0.6024960  3
   1154   1148   1149   1165     1  0.0000000  4.9162000  2
   1154   1148   1149   1165     1  0.0000000  0.6024960  3
   1154   1148   1147   1155     1  0.0000000  4.9162000  2
   1154   1148   1147   1155     1  0.0000000  0.6024960  3
   1155   1147   1144   1156     1  0.0000000  4.9162000  2
   1155   1147   1144   1156     1  0.0000000  0.6024960  3
   1156   1144   1143   1157     1  0.0000000  0.6508444  3
   1156   1144   1143   1165     1  0.0000000  4.9162000  2
   1156   1144   1143   1165     1  0.0000000  0.6024960  3
   1163   1157   1143   1165     1  0.0000000  4.9162000  2
   1163   1157   1143   1165     1  0.0000000  0.6024960  3
   1166   1167   1170   1171     1  180.0000771  0.8368000  1
   1166   1167   1170   1171     1  180.0000771  1.0460000  2
   1166   1167   1170   1171     1  0.0000000  0.7531200  3
   1166   1167   1170   1178     1  0.0000000  0.6508444  3
   1166   1188   1172   1171     1  180.0000771  0.4184000  2
   1166   1188   1172   1171     1  0.0000000  1.6024720  3
   1166   1188   1172   1176     1  180.0000771  5.6484000  1
   1166   1188   1172   1176     1  180.0000771  3.5564000  2
   1166   1188   1172   1176     1  0.0000000  0.4184000  3
   1167   1166   1180   1186     1  0.0000000  0.6508444  3
   1167   1166   1188   1172     1  180.0000771  0.4184000  2
   1167   1166   1188   1172     1  0.0000000  1.6024720  3
   1167   1170   1171   1172     1  180.0000771  0.8368000  1
   1167   1170   1171   1172     1  180.0000771  1.0460000  2
   1167   1170   1171   1172     1  0.0000000  0.7531200  3
   1167   1170   1171   1177     1  0.0000000  0.6508444  3
   1170   1167   1166   1180     1  180.0000771  0.8368000  1
   1170   1167   1166   1180     1  180.0000771  1.0460000  2
   1170   1167   1166   1180     1  0.0000000  0.7531200  3
   1170   1167   1166   1188     1  0.0000000  0.6508444  3
   1170   1171   1172   1176     1  0.0000000  0.6508444  3
   1170   1171   1172   1188     1  0.0000000  0.6508444  3
   1171   1170   1167   1179     1  0.0000000  0.6508444  3
   1172   1171   1170   1178     1  0.0000000  0.6508444  3
   1172   1188   1166   1180     1  180.0000771  0.4184000  2
   1172   1188   1166   1180     1  0.0000000  1.6024720  3
   1176   1172   1171   1177     1  0.0000000  4.9162000  2
   1176   1172   1171   1177     1  0.0000000  0.6024960  3
   1177   1171   1170   1178     1  0.0000000  4.9162000  2
   1177   1171   1170   1178     1  0.0000000  0.6024960  3
   1177   1171   1172   1188     1  0.0000000  4.9162000  2
   1177   1171   1172   1188     1  0.0000000  0.6024960  3
   1178   1170   1167   1179     1  0.0000000  4.9162000  2
   1178   1170   1167   1179     1  0.0000000  0.6024960  3
   1179   1167   1166   1180     1  0.0000000  0.6508444  3
   1179   1167   1166   1188     1  0.0000000  4.9162000  2
   1179   1167   1166   1188     1  0.0000000  0.6024960  3
   1186   1180   1166   1188     1  0.0000000  4.9162000  2
   1186   1180   1166   1188     1  0.0000000  0.6024960  3
   1189   1190   1193   1194     1  180.0000771  0.8368000  1
   1189   1190   1193   1194     1  180.0000771  1.0460000  2
   1189   1190   1193   1194     1  0.0000000  0.7531200  3
   1189   1190   1193   1201     1  0.0000000  0.6508444  3
   1189   1211   1195   1199     1  180.0000771  5.6484000  1
   1189   1211   1195   1199     1  180.0000771  3.5564000  2
   1189   1211   1195   1199     1  0.0000000  0.4184000  3
   1189   1211   1195   1194     1  180.0000771  0.4184000  2
   1189   1211   1195   1194     1  0.0000000  1.6024720  3
   1190   1193   1194   1195     1  180.0000771  0.8368000  1
   1190   1193   1194   1195     1  180.0000771  1.0460000  2
   1190   1193   1194   1195     1  0.0000000  0.7531200  3
   1190   1193   1194   1200     1  0.0000000  0.6508444  3
   1190   1189   1203   1209     1  0.0000000  0.6508444  3
   1190   1189   1211   1195     1  180.0000771  0.4184000  2
   1190   1189   1211   1195     1  0.0000000  1.6024720  3
   1193   1194   1195   1199     1  0.0000000  0.6508444  3
   1193   1194   1195   1211     1  0.0000000  0.6508444  3
   1193   1190   1189   1203     1  180.0000771  0.8368000  1
   1193   1190   1189   1203     1  180.0000771  1.0460000  2
   1193   1190   1189   1203     1  0.0000000  0.7531200  3
   1193   1190   1189   1211     1  0.0000000  0.6508444  3
   1194   1193   1190   1202     1  0.0000000  0.6508444  3
   1195   1211   1189   1203     1  180.0000771  0.4184000  2
   1195   1211   1189   1203     1  0.0000000  1.6024720  3
   1195   1194   1193   1201     1  0.0000000  0.6508444  3
   1199   1195   1194   1200     1  0.0000000  4.9162000  2
   1199   1195   1194   1200     1  0.0000000  0.6024960  3
   1200   1194   1195   1211     1  0.0000000  4.9162000  2
   1200   1194   1195   1211     1  0.0000000  0.6024960  3
   1200   1194   1193   1201     1  0.0000000  4.9162000  2
   1200   1194   1193   1201     1  0.0000000  0.6024960  3
   1201   1193   1190   1202     1  0.0000000  4.9162000  2
   1201   1193   1190   1202     1  0.0000000  0.6024960  3
   1202   1190   1189   1203     1  0.0000000  0.6508444  3
   1202   1190   1189   1211     1  0.0000000  4.9162000  2
   1202   1190   1189   1211     1  0.0000000  0.6024960  3
   1209   1203   1189   1211     1  0.0000000  4.9162000  2
   1209   1203   1189   1211     1  0.0000000  0.6024960  3
      1      2     14     15     1  0.0000000  0.6508444  3
      1      2     14     16     1  0.0000000  0.6508444  3
      1      5     17     18     1  0.0000000  0.6508444  3
      1      5     17     19     1  0.0000000  0.6508444  3
      1      8     11     12     1  0.0000000  0.6508444  3
      1      8     11     13     1  0.0000000  0.6508444  3
      2      1      5      6     1  0.0000000  0.6508444  3
      2      1      5      7     1  0.0000000  0.6508444  3
      2      1      8      9     1  0.0000000  0.6508444  3
      2      1      8     10     1  0.0000000  0.6508444  3
      2     14     26     27     1  0.0000000  0.6508444  3
      2     14     26     28     1  0.0000000  0.6508444  3
      5      1      2      3     1  0.0000000  0.6508444  3
      8      1      2      3     1  0.0000000  0.6508444  3
     29      1      2      3     1  0.0000000  0.6508444  3
      3      2     14     26     1  0.0000000  0.6508444  3
      3      2     14     15     1  0.0000000  0.6508444  3
      3      2     14     16     1  0.0000000  0.6508444  3
      5      1      2      4     1  0.0000000  0.6508444  3
      8      1      2      4     1  0.0000000  0.6508444  3
     29      1      2      4     1  0.0000000  0.6508444  3
      4      2     14     26     1  0.0000000  0.6508444  3
      4      2     14     15     1  0.0000000  0.6508444  3
      4      2     14     16     1  0.0000000  0.6508444  3
      5      1      8      9     1  0.0000000  0.6508444  3
      5      1      8     10     1  0.0000000  0.6508444  3
      5     17     20     21     1  0.0000000  0.6508444  3
      5     17     20     22     1  0.0000000  0.6508444  3
      8      1      5      6     1  0.0000000  0.6508444  3
     29      1      5      6     1  0.0000000  0.6508444  3
      6      5     17     20     1  0.0000000  0.6508444  3
      6      5     17     18     1  0.0000000  0.6508444  3
      6      5     17     19     1  0.0000000  0.6508444  3
      8      1      5      7     1  0.0000000  0.6508444  3
     29      1      5      7     1  0.0000000  0.6508444  3
      7      5     17     20     1  0.0000000  0.6508444  3
      7      5     17     18     1  0.0000000  0.6508444  3
      7      5     17     19     1  0.0000000  0.6508444  3
      8     11     23     24     1  0.0000000  0.6508444  3
      8     11     23     25     1  0.0000000  0.6508444  3
     29      1      8      9     1  0.0000000  0.6508444  3
      9      8     11     23     1  0.0000000  0.6508444  3
      9      8     11     12     1  0.0000000  0.6508444  3
      9      8     11     13     1  0.0000000  0.6508444  3
     29      1      8     10     1  0.0000000  0.6508444  3
     10      8     11     23     1  0.0000000  0.6508444  3
     10      8     11     12     1  0.0000000  0.6508444  3
     10      8     11     13     1  0.0000000  0.6508444  3
     29      1      8     11     1  0.0000000  0.6508444  3
     12     11     23     88     1  0.0000000  1.0460000  1
     12     11     23     88     1  0.0000000  0.0000000  3
     12     11     23     24     1  0.0000000  0.6508444  3
     12     11     23     25     1  0.0000000  0.6508444  3
     13     11     23     88     1  0.0000000  1.0460000  1
     13     11     23     88     1  0.0000000  0.0000000  3
     13     11     23     24     1  0.0000000  0.6508444  3
     13     11     23     25     1  0.0000000  0.6508444  3
     29      1      2     14     1  0.0000000  0.6508444  3
     15     14     26    118     1  0.0000000  1.0460000  1
     15     14     26    118     1  0.0000000  0.0000000  3
     15     14     26     27     1  0.0000000  0.6508444  3
     15     14     26     28     1  0.0000000  0.6508444  3
     16     14     26    118     1  0.0000000  1.0460000  1
     16     14     26    118     1  0.0000000  0.0000000  3
     16     14     26     27     1  0.0000000  0.6508444  3
     16     14     26     28     1  0.0000000  0.6508444  3
     29      1      5     17     1  0.0000000  0.6508444  3
     18     17     20     58     1  0.0000000  1.0460000  1
     18     17     20     58     1  0.0000000  0.0000000  3
     18     17     20     21     1  0.0000000  0.6508444  3
     18     17     20     22     1  0.0000000  0.6508444  3
     19     17     20     58     1  0.0000000  1.0460000  1
     19     17     20     58     1  0.0000000  0.0000000  3
     19     17     20     21     1  0.0000000  0.6508444  3
     19     17     20     22     1  0.0000000  0.6508444  3
     20     58     49     50     1  0.0000000  1.6038667  3
     20     58     49     51     1  0.0000000  1.6038667  3
     21     20     58     49     1  0.0000000  1.6038667  3
     22     20     58     49     1  0.0000000  1.6038667  3
     23     88     79     80     1  0.0000000  1.6038667  3
     23     88     79     81     1  0.0000000  1.6038667  3
     24     23     88     79     1  0.0000000  1.6038667  3
     25     23     88     79     1  0.0000000  1.6038667  3
     26    118    109    110     1  0.0000000  1.6038667  3
     26    118    109    111     1  0.0000000  1.6038667  3
     27     26    118    109     1  0.0000000  1.6038667  3
     28     26    118    109     1  0.0000000  1.6038667  3
     30     31     43     44     1  0.0000000  0.6508444  3
     30     31     43     45     1  0.0000000  0.6508444  3
     30     34     46     47     1  0.0000000  0.6508444  3
     30     34     46     48     1  0.0000000  0.6508444  3
     30     37     40     41     1  0.0000000  0.6508444  3
     30     37     40     42     1  0.0000000  0.6508444  3
     31     30     34     35     1  0.0000000  0.6508444  3
     31     30     34     36     1  0.0000000  0.6508444  3
     31     30     37     38     1  0.0000000  0.6508444  3
     31     30     37     39     1  0.0000000  0.6508444  3
     31     43     55     56     1  0.0000000  0.6508444  3
     31     43     55     57     1  0.0000000  0.6508444  3
     32     31     30     34     1  0.0000000  0.6508444  3
     32     31     30     37     1  0.0000000  0.6508444  3
     32     31     30     59     1  0.0000000  0.6508444  3
     32     31     43     55     1  0.0000000  0.6508444  3
     32     31     43     44     1  0.0000000  0.6508444  3
     32     31     43     45     1  0.0000000  0.6508444  3
     33     31     30     34     1  0.0000000  0.6508444  3
     33     31     30     37     1  0.0000000  0.6508444  3
     33     31     30     59     1  0.0000000  0.6508444  3
     33     31     43     55     1  0.0000000  0.6508444  3
     33     31     43     44     1  0.0000000  0.6508444  3
     33     31     43     45     1  0.0000000  0.6508444  3
     34     30     37     38     1  0.0000000  0.6508444  3
     34     30     37     39     1  0.0000000  0.6508444  3
     34     46     52     53     1  0.0000000  0.6508444  3
     34     46     52     54     1  0.0000000  0.6508444  3
     35     34     30     37     1  0.0000000  0.6508444  3
     35     34     30     59     1  0.0000000  0.6508444  3
     35     34     46     52     1  0.0000000  0.6508444  3
     35     34     46     47     1  0.0000000  0.6508444  3
     35     34     46     48     1  0.0000000  0.6508444  3
     36     34     30     37     1  0.0000000  0.6508444  3
     36     34     30     59     1  0.0000000  0.6508444  3
     36     34     46     52     1  0.0000000  0.6508444  3
     36     34     46     47     1  0.0000000  0.6508444  3
     36     34     46     48     1  0.0000000  0.6508444  3
     37     40     49     50     1  0.0000000  0.6508444  3
     37     40     49     51     1  0.0000000  0.6508444  3
     38     37     30     59     1  0.0000000  0.6508444  3
     38     37     40     49     1  0.0000000  0.6508444  3
     38     37     40     41     1  0.0000000  0.6508444  3
     38     37     40     42     1  0.0000000  0.6508444  3
     39     37     30     59     1  0.0000000  0.6508444  3
     39     37     40     49     1  0.0000000  0.6508444  3
     39     37     40     41     1  0.0000000  0.6508444  3
     39     37     40     42     1  0.0000000  0.6508444  3
     40     37     30     59     1  0.0000000  0.6508444  3
     41     40     49     58     1  0.0000000  1.0460000  1
     41     40     49     58     1  0.0000000  0.0000000  3
     41     40     49     50     1  0.0000000  0.6508444  3
     41     40     49     51     1  0.0000000  0.6508444  3
     42     40     49     58     1  0.0000000  1.0460000  1
     42     40     49     58     1  0.0000000  0.0000000  3
     42     40     49     50     1  0.0000000  0.6508444  3
     42     40     49     51     1  0.0000000  0.6508444  3
     43     31     30     59     1  0.0000000  0.6508444  3
     44     43     55    178     1  0.0000000  1.0460000  1
     44     43     55    178     1  0.0000000  0.0000000  3
     44     43     55     56     1  0.0000000  0.6508444  3
     44     43     55     57     1  0.0000000  0.6508444  3
     45     43     55    178     1  0.0000000  1.0460000  1
     45     43     55    178     1  0.0000000  0.0000000  3
     45     43     55     56     1  0.0000000  0.6508444  3
     45     43     55     57     1  0.0000000  0.6508444  3
     46     34     30     59     1  0.0000000  0.6508444  3
     47     46     52    148     1  0.0000000  1.0460000  1
     47     46     52    148     1  0.0000000  0.0000000  3
     47     46     52     53     1  0.0000000  0.6508444  3
     47     46     52     54     1  0.0000000  0.6508444  3
     48     46     52    148     1  0.0000000  1.0460000  1
     48     46     52    148     1  0.0000000  0.0000000  3
     48     46     52     53     1  0.0000000  0.6508444  3
     48     46     52     54     1  0.0000000  0.6508444  3
     52    148    139    140     1  0.0000000  1.6038667  3
     52    148    139    141     1  0.0000000  1.6038667  3
     53     52    148    139     1  0.0000000  1.6038667  3
     54     52    148    139     1  0.0000000  1.6038667  3
     55    178    169    170     1  0.0000000  1.6038667  3
     55    178    169    171     1  0.0000000  1.6038667  3
     56     55    178    169     1  0.0000000  1.6038667  3
     57     55    178    169     1  0.0000000  1.6038667  3
     60     61     73     74     1  0.0000000  0.6508444  3
     60     61     73     75     1  0.0000000  0.6508444  3
     60     64     76     77     1  0.0000000  0.6508444  3
     60     64     76     78     1  0.0000000  0.6508444  3
     60     67     70     71     1  0.0000000  0.6508444  3
     60     67     70     72     1  0.0000000  0.6508444  3
     61     60     64     65     1  0.0000000  0.6508444  3
     61     60     64     66     1  0.0000000  0.6508444  3
     61     60     67     68     1  0.0000000  0.6508444  3
     61     60     67     69     1  0.0000000  0.6508444  3
     61     73     85     86     1  0.0000000  0.6508444  3
     61     73     85     87     1  0.0000000  0.6508444  3
     62     61     60     64     1  0.0000000  0.6508444  3
     62     61     60     67     1  0.0000000  0.6508444  3
     62     61     60     89     1  0.0000000  0.6508444  3
     62     61     73     85     1  0.0000000  0.6508444  3
     62     61     73     74     1  0.0000000  0.6508444  3
     62     61     73     75     1  0.0000000  0.6508444  3
     63     61     60     64     1  0.0000000  0.6508444  3
     63     61     60     67     1  0.0000000  0.6508444  3
     63     61     60     89     1  0.0000000  0.6508444  3
     63     61     73     85     1  0.0000000  0.6508444  3
     63     61     73     74     1  0.0000000  0.6508444  3
     63     61     73     75     1  0.0000000  0.6508444  3
     64     60     67     68     1  0.0000000  0.6508444  3
     64     60     67     69     1  0.0000000  0.6508444  3
     64     76     82     83     1  0.0000000  0.6508444  3
     64     76     82     84     1  0.0000000  0.6508444  3
     65     64     60     67     1  0.0000000  0.6508444  3
     65     64     60     89     1  0.0000000  0.6508444  3
     65     64     76     82     1  0.0000000  0.6508444  3
     65     64     76     77     1  0.0000000  0.6508444  3
     65     64     76     78     1  0.0000000  0.6508444  3
     66     64     60     67     1  0.0000000  0.6508444  3
     66     64     60     89     1  0.0000000  0.6508444  3
     66     64     76     82     1  0.0000000  0.6508444  3
     66     64     76     77     1  0.0000000  0.6508444  3
     66     64     76     78     1  0.0000000  0.6508444  3
     67     70     79     80     1  0.0000000  0.6508444  3
     67     70     79     81     1  0.0000000  0.6508444  3
     68     67     60     89     1  0.0000000  0.6508444  3
     68     67     70     79     1  0.0000000  0.6508444  3
     68     67     70     71     1  0.0000000  0.6508444  3
     68     67     70     72     1  0.0000000  0.6508444  3
     69     67     60     89     1  0.0000000  0.6508444  3
     69     67     70     79     1  0.0000000  0.6508444  3
     69     67     70     71     1  0.0000000  0.6508444  3
     69     67     70     72     1  0.0000000  0.6508444  3
     70     67     60     89     1  0.0000000  0.6508444  3
     71     70     79     88     1  0.0000000  1.0460000  1
     71     70     79     88     1  0.0000000  0.0000000  3
     71     70     79     80     1  0.0000000  0.6508444  3
     71     70     79     81     1  0.0000000  0.6508444  3
     72     70     79     88     1  0.0000000  1.0460000  1
     72     70     79     88     1  0.0000000  0.0000000  3
     72     70     79     80     1  0.0000000  0.6508444  3
     72     70     79     81     1  0.0000000  0.6508444  3
     73     61     60     89     1  0.0000000  0.6508444  3
     74     73     85    238     1  0.0000000  1.0460000  1
     74     73     85    238     1  0.0000000  0.0000000  3
     74     73     85     86     1  0.0000000  0.6508444  3
     74     73     85     87     1  0.0000000  0.6508444  3
     75     73     85    238     1  0.0000000  1.0460000  1
     75     73     85    238     1  0.0000000  0.0000000  3
     75     73     85     86     1  0.0000000  0.6508444  3
     75     73     85     87     1  0.0000000  0.6508444  3
     76     64     60     89     1  0.0000000  0.6508444  3
     77     76     82    208     1  0.0000000  1.0460000  1
     77     76     82    208     1  0.0000000  0.0000000  3
     77     76     82     83     1  0.0000000  0.6508444  3
     77     76     82     84     1  0.0000000  0.6508444  3
     78     76     82    208     1  0.0000000  1.0460000  1
     78     76     82    208     1  0.0000000  0.0000000  3
     78     76     82     83     1  0.0000000  0.6508444  3
     78     76     82     84     1  0.0000000  0.6508444  3
     82    208    199    200     1  0.0000000  1.6038667  3
     82    208    199    201     1  0.0000000  1.6038667  3
     83     82    208    199     1  0.0000000  1.6038667  3
     84     82    208    199     1  0.0000000  1.6038667  3
     85    238    229    230     1  0.0000000  1.6038667  3
     85    238    229    231     1  0.0000000  1.6038667  3
     86     85    238    229     1  0.0000000  1.6038667  3
     87     85    238    229     1  0.0000000  1.6038667  3
     90     91    103    104     1  0.0000000  0.6508444  3
     90     91    103    105     1  0.0000000  0.6508444  3
     90     94    106    107     1  0.0000000  0.6508444  3
     90     94    106    108     1  0.0000000  0.6508444  3
     90     97    100    101     1  0.0000000  0.6508444  3
     90     97    100    102     1  0.0000000  0.6508444  3
     91     90     94     95     1  0.0000000  0.6508444  3
     91     90     94     96     1  0.0000000  0.6508444  3
     91     90     97     98     1  0.0000000  0.6508444  3
     91     90     97     99     1  0.0000000  0.6508444  3
     91    103    115    116     1  0.0000000  0.6508444  3
     91    103    115    117     1  0.0000000  0.6508444  3
     92     91     90     94     1  0.0000000  0.6508444  3
     92     91     90     97     1  0.0000000  0.6508444  3
     92     91     90    119     1  0.0000000  0.6508444  3
     92     91    103    115     1  0.0000000  0.6508444  3
     92     91    103    104     1  0.0000000  0.6508444  3
     92     91    103    105     1  0.0000000  0.6508444  3
     93     91     90     94     1  0.0000000  0.6508444  3
     93     91     90     97     1  0.0000000  0.6508444  3
     93     91     90    119     1  0.0000000  0.6508444  3
     93     91    103    115     1  0.0000000  0.6508444  3
     93     91    103    104     1  0.0000000  0.6508444  3
     93     91    103    105     1  0.0000000  0.6508444  3
     94     90     97     98     1  0.0000000  0.6508444  3
     94     90     97     99     1  0.0000000  0.6508444  3
     94    106    112    113     1  0.0000000  0.6508444  3
     94    106    112    114     1  0.0000000  0.6508444  3
     95     94     90     97     1  0.0000000  0.6508444  3
     95     94     90    119     1  0.0000000  0.6508444  3
     95     94    106    112     1  0.0000000  0.6508444  3
     95     94    106    107     1  0.0000000  0.6508444  3
     95     94    106    108     1  0.0000000  0.6508444  3
     96     94     90     97     1  0.0000000  0.6508444  3
     96     94     90    119     1  0.0000000  0.6508444  3
     96     94    106    112     1  0.0000000  0.6508444  3
     96     94    106    107     1  0.0000000  0.6508444  3
     96     94    106    108     1  0.0000000  0.6508444  3
     97    100    109    110     1  0.0000000  0.6508444  3
     97    100    109    111     1  0.0000000  0.6508444  3
     98     97     90    119     1  0.0000000  0.6508444  3
     98     97    100    109     1  0.0000000  0.6508444  3
     98     97    100    101     1  0.0000000  0.6508444  3
     98     97    100    102     1  0.0000000  0.6508444  3
     99     97     90    119     1  0.0000000  0.6508444  3
     99     97    100    109     1  0.0000000  0.6508444  3
     99     97    100    101     1  0.0000000  0.6508444  3
     99     97    100    102     1  0.0000000  0.6508444  3
    100     97     90    119     1  0.0000000  0.6508444  3
    101    100    109    118     1  0.0000000  1.0460000  1
    101    100    109    118     1  0.0000000  0.0000000  3
    101    100    109    110     1  0.0000000  0.6508444  3
    101    100    109    111     1  0.0000000  0.6508444  3
    102    100    109    118     1  0.0000000  1.0460000  1
    102    100    109    118     1  0.0000000  0.0000000  3
    102    100    109    110     1  0.0000000  0.6508444  3
    102    100    109    111     1  0.0000000  0.6508444  3
    103     91     90    119     1  0.0000000  0.6508444  3
    104    103    115    298     1  0.0000000  1.0460000  1
    104    103    115    298     1  0.0000000  0.0000000  3
    104    103    115    116     1  0.0000000  0.6508444  3
    104    103    115    117     1  0.0000000  0.6508444  3
    105    103    115    298     1  0.0000000  1.0460000  1
    105    103    115    298     1  0.0000000  0.0000000  3
    105    103    115    116     1  0.0000000  0.6508444  3
    105    103    115    117     1  0.0000000  0.6508444  3
    106     94     90    119     1  0.0000000  0.6508444  3
    107    106    112    268     1  0.0000000  1.0460000  1
    107    106    112    268     1  0.0000000  0.0000000  3
    107    106    112    113     1  0.0000000  0.6508444  3
    107    106    112    114     1  0.0000000  0.6508444  3
    108    106    112    268     1  0.0000000  1.0460000  1
    108    106    112    268     1  0.0000000  0.0000000  3
    108    106    112    113     1  0.0000000  0.6508444  3
    108    106    112    114     1  0.0000000  0.6508444  3
    112    268    259    260     1  0.0000000  1.6038667  3
    112    268    259    261     1  0.0000000  1.6038667  3
    113    112    268    259     1  0.0000000  1.6038667  3
    114    112    268    259     1  0.0000000  1.6038667  3
    115    298    289    290     1  0.0000000  1.6038667  3
    115    298    289    291     1  0.0000000  1.6038667  3
    116    115    298    289     1  0.0000000  1.6038667  3
    117    115    298    289     1  0.0000000  1.6038667  3
    120    121    133    134     1  0.0000000  0.6508444  3
    120    121    133    135     1  0.0000000  0.6508444  3
    120    124    136    137     1  0.0000000  0.6508444  3
    120    124    136    138     1  0.0000000  0.6508444  3
    120    127    130    131     1  0.0000000  0.6508444  3
    120    127    130    132     1  0.0000000  0.6508444  3
    121    120    124    125     1  0.0000000  0.6508444  3
    121    120    124    126     1  0.0000000  0.6508444  3
    121    120    127    128     1  0.0000000  0.6508444  3
    121    120    127    129     1  0.0000000  0.6508444  3
    121    133    145    146     1  0.0000000  0.6508444  3
    121    133    145    147     1  0.0000000  0.6508444  3
    122    121    120    124     1  0.0000000  0.6508444  3
    122    121    120    127     1  0.0000000  0.6508444  3
    122    121    120    149     1  0.0000000  0.6508444  3
    122    121    133    145     1  0.0000000  0.6508444  3
    122    121    133    134     1  0.0000000  0.6508444  3
    122    121    133    135     1  0.0000000  0.6508444  3
    123    121    120    124     1  0.0000000  0.6508444  3
    123    121    120    127     1  0.0000000  0.6508444  3
    123    121    120    149     1  0.0000000  0.6508444  3
    123    121    133    145     1  0.0000000  0.6508444  3
    123    121    133    134     1  0.0000000  0.6508444  3
    123    121    133    135     1  0.0000000  0.6508444  3
    124    120    127    128     1  0.0000000  0.6508444  3
    124    120    127    129     1  0.0000000  0.6508444  3
    124    136    142    143     1  0.0000000  0.6508444  3
    124    136    142    144     1  0.0000000  0.6508444  3
    125    124    120    127     1  0.0000000  0.6508444  3
    125    124    120    149     1  0.0000000  0.6508444  3
    125    124    136    142     1  0.0000000  0.6508444  3
    125    124    136    137     1  0.0000000  0.6508444  3
    125    124    136    138     1  0.0000000  0.6508444  3
    126    124    120    127     1  0.0000000  0.6508444  3
    126    124    120    149     1  0.0000000  0.6508444  3
    126    124    136    142     1  0.0000000  0.6508444  3
    126    124    136    137     1  0.0000000  0.6508444  3
    126    124    136    138     1  0.0000000  0.6508444  3
    127    130    139    140     1  0.0000000  0.6508444  3
    127    130    139    141     1  0.0000000  0.6508444  3
    128    127    120    149     1  0.0000000  0.6508444  3
    128    127    130    139     1  0.0000000  0.6508444  3
    128    127    130    131     1  0.0000000  0.6508444  3
    128    127    130    132     1  0.0000000  0.6508444  3
    129    127    120    149     1  0.0000000  0.6508444  3
    129    127    130    139     1  0.0000000  0.6508444  3
    129    127    130    131     1  0.0000000  0.6508444  3
    129    127    130    132     1  0.0000000  0.6508444  3
    130    127    120    149     1  0.0000000  0.6508444  3
    131    130    139    148     1  0.0000000  1.0460000  1
    131    130    139    148     1  0.0000000  0.0000000  3
    131    130    139    140     1  0.0000000  0.6508444  3
    131    130    139    141     1  0.0000000  0.6508444  3
    132    130    139    148     1  0.0000000  1.0460000  1
    132    130    139    148     1  0.0000000  0.0000000  3
    132    130    139    140     1  0.0000000  0.6508444  3
    132    130    139    141     1  0.0000000  0.6508444  3
    133    121    120    149     1  0.0000000  0.6508444  3
    134    133    145    358     1  0.0000000  1.0460000  1
    134    133    145    358     1  0.0000000  0.0000000  3
    134    133    145    146     1  0.0000000  0.6508444  3
    134    133    145    147     1  0.0000000  0.6508444  3
    135    133    145    358     1  0.0000000  1.0460000  1
    135    133    145    358     1  0.0000000  0.0000000  3
    135    133    145    146     1  0.0000000  0.6508444  3
    135    133    145    147     1  0.0000000  0.6508444  3
    136    124    120    149     1  0.0000000  0.6508444  3
    137    136    142    328     1  0.0000000  1.0460000  1
    137    136    142    328     1  0.0000000  0.0000000  3
    137    136    142    143     1  0.0000000  0.6508444  3
    137    136    142    144     1  0.0000000  0.6508444  3
    138    136    142    328     1  0.0000000  1.0460000  1
    138    136    142    328     1  0.0000000  0.0000000  3
    138    136    142    143     1  0.0000000  0.6508444  3
    138    136    142    144     1  0.0000000  0.6508444  3
    142    328    319    320     1  0.0000000  1.6038667  3
    142    328    319    321     1  0.0000000  1.6038667  3
    143    142    328    319     1  0.0000000  1.6038667  3
    144    142    328    319     1  0.0000000  1.6038667  3
    145    358    349    350     1  0.0000000  1.6038667  3
    145    358    349    351     1  0.0000000  1.6038667  3
    146    145    358    349     1  0.0000000  1.6038667  3
    147    145    358    349     1  0.0000000  1.6038667  3
    150    151    163    164     1  0.0000000  0.6508444  3
    150    151    163    165     1  0.0000000  0.6508444  3
    150    154    166    167     1  0.0000000  0.6508444  3
    150    154    166    168     1  0.0000000  0.6508444  3
    150    157    160    161     1  0.0000000  0.6508444  3
    150    157    160    162     1  0.0000000  0.6508444  3
    151    150    154    155     1  0.0000000  0.6508444  3
    151    150    154    156     1  0.0000000  0.6508444  3
    151    150    157    158     1  0.0000000  0.6508444  3
    151    150    157    159     1  0.0000000  0.6508444  3
    151    163    175    176     1  0.0000000  0.6508444  3
    151    163    175    177     1  0.0000000  0.6508444  3
    152    151    150    154     1  0.0000000  0.6508444  3
    152    151    150    157     1  0.0000000  0.6508444  3
    152    151    150    179     1  0.0000000  0.6508444  3
    152    151    163    175     1  0.0000000  0.6508444  3
    152    151    163    164     1  0.0000000  0.6508444  3
    152    151    163    165     1  0.0000000  0.6508444  3
    153    151    150    154     1  0.0000000  0.6508444  3
    153    151    150    157     1  0.0000000  0.6508444  3
    153    151    150    179     1  0.0000000  0.6508444  3
    153    151    163    175     1  0.0000000  0.6508444  3
    153    151    163    164     1  0.0000000  0.6508444  3
    153    151    163    165     1  0.0000000  0.6508444  3
    154    150    157    158     1  0.0000000  0.6508444  3
    154    150    157    159     1  0.0000000  0.6508444  3
    154    166    172    173     1  0.0000000  0.6508444  3
    154    166    172    174     1  0.0000000  0.6508444  3
    155    154    150    157     1  0.0000000  0.6508444  3
    155    154    150    179     1  0.0000000  0.6508444  3
    155    154    166    172     1  0.0000000  0.6508444  3
    155    154    166    167     1  0.0000000  0.6508444  3
    155    154    166    168     1  0.0000000  0.6508444  3
    156    154    150    157     1  0.0000000  0.6508444  3
    156    154    150    179     1  0.0000000  0.6508444  3
    156    154    166    172     1  0.0000000  0.6508444  3
    156    154    166    167     1  0.0000000  0.6508444  3
    156    154    166    168     1  0.0000000  0.6508444  3
    157    160    169    170     1  0.0000000  0.6508444  3
    157    160    169    171     1  0.0000000  0.6508444  3
    158    157    150    179     1  0.0000000  0.6508444  3
    158    157    160    169     1  0.0000000  0.6508444  3
    158    157    160    161     1  0.0000000  0.6508444  3
    158    157    160    162     1  0.0000000  0.6508444  3
    159    157    150    179     1  0.0000000  0.6508444  3
    159    157    160    169     1  0.0000000  0.6508444  3
    159    157    160    161     1  0.0000000  0.6508444  3
    159    157    160    162     1  0.0000000  0.6508444  3
    160    157    150    179     1  0.0000000  0.6508444  3
    161    160    169    178     1  0.0000000  1.0460000  1
    161    160    169    178     1  0.0000000  0.0000000  3
    161    160    169    170     1  0.0000000  0.6508444  3
    161    160    169    171     1  0.0000000  0.6508444  3
    162    160    169    178     1  0.0000000  1.0460000  1
    162    160    169    178     1  0.0000000  0.0000000  3
    162    160    169    170     1  0.0000000  0.6508444  3
    162    160    169    171     1  0.0000000  0.6508444  3
    163    151    150    179     1  0.0000000  0.6508444  3
    164    163    175    418     1  0.0000000  1.0460000  1
    164    163    175    418     1  0.0000000  0.0000000  3
    164    163    175    176     1  0.0000000  0.6508444  3
    164    163    175    177     1  0.0000000  0.6508444  3
    165    163    175    418     1  0.0000000  1.0460000  1
    165    163    175    418     1  0.0000000  0.0000000  3
    165    163    175    176     1  0.0000000  0.6508444  3
    165    163    175    177     1  0.0000000  0.6508444  3
    166    154    150    179     1  0.0000000  0.6508444  3
    167    166    172    388     1  0.0000000  1.0460000  1
    167    166    172    388     1  0.0000000  0.0000000  3
    167    166    172    173     1  0.0000000  0.6508444  3
    167    166    172    174     1  0.0000000  0.6508444  3
    168    166    172    388     1  0.0000000  1.0460000  1
    168    166    172    388     1  0.0000000  0.0000000  3
    168    166    172    173     1  0.0000000  0.6508444  3
    168    166    172    174     1  0.0000000  0.6508444  3
    172    388    379    380     1  0.0000000  1.6038667  3
    172    388    379    381     1  0.0000000  1.6038667  3
    173    172    388    379     1  0.0000000  1.6038667  3
    174    172    388    379     1  0.0000000  1.6038667  3
    175    418    409    410     1  0.0000000  1.6038667  3
    175    418    409    411     1  0.0000000  1.6038667  3
    176    175    418    409     1  0.0000000  1.6038667  3
    177    175    418    409     1  0.0000000  1.6038667  3
    180    181    193    194     1  0.0000000  0.6508444  3
    180    181    193    195     1  0.0000000  0.6508444  3
    180    184    196    197     1  0.0000000  0.6508444  3
    180    184    196    198     1  0.0000000  0.6508444  3
    180    187    190    191     1  0.0000000  0.6508444  3
    180    187    190    192     1  0.0000000  0.6508444  3
    181    180    184    185     1  0.0000000  0.6508444  3
    181    180    184    186     1  0.0000000  0.6508444  3
    181    180    187    188     1  0.0000000  0.6508444  3
    181    180    187    189     1  0.0000000  0.6508444  3
    181    193    205    206     1  0.0000000  0.6508444  3
    181    193    205    207     1  0.0000000  0.6508444  3
    182    181    180    184     1  0.0000000  0.6508444  3
    182    181    180    187     1  0.0000000  0.6508444  3
    182    181    180    209     1  0.0000000  0.6508444  3
    182    181    193    205     1  0.0000000  0.6508444  3
    182    181    193    194     1  0.0000000  0.6508444  3
    182    181    193    195     1  0.0000000  0.6508444  3
    183    181    180    184     1  0.0000000  0.6508444  3
    183    181    180    187     1  0.0000000  0.6508444  3
    183    181    180    209     1  0.0000000  0.6508444  3
    183    181    193    205     1  0.0000000  0.6508444  3
    183    181    193    194     1  0.0000000  0.6508444  3
    183    181    193    195     1  0.0000000  0.6508444  3
    184    180    187    188     1  0.0000000  0.6508444  3
    184    180    187    189     1  0.0000000  0.6508444  3
    184    196    202    203     1  0.0000000  0.6508444  3
    184    196    202    204     1  0.0000000  0.6508444  3
    185    184    180    187     1  0.0000000  0.6508444  3
    185    184    180    209     1  0.0000000  0.6508444  3
    185    184    196    202     1  0.0000000  0.6508444  3
    185    184    196    197     1  0.0000000  0.6508444  3
    185    184    196    198     1  0.0000000  0.6508444  3
    186    184    180    187     1  0.0000000  0.6508444  3
    186    184    180    209     1  0.0000000  0.6508444  3
    186    184    196    202     1  0.0000000  0.6508444  3
    186    184    196    197     1  0.0000000  0.6508444  3
    186    184    196    198     1  0.0000000  0.6508444  3
    187    190    199    200     1  0.0000000  0.6508444  3
    187    190    199    201     1  0.0000000  0.6508444  3
    188    187    180    209     1  0.0000000  0.6508444  3
    188    187    190    199     1  0.0000000  0.6508444  3
    188    187    190    191     1  0.0000000  0.6508444  3
    188    187    190    192     1  0.0000000  0.6508444  3
    189    187    180    209     1  0.0000000  0.6508444  3
    189    187    190    199     1  0.0000000  0.6508444  3
    189    187    190    191     1  0.0000000  0.6508444  3
    189    187    190    192     1  0.0000000  0.6508444  3
    190    187    180    209     1  0.0000000  0.6508444  3
    191    190    199    208     1  0.0000000  1.0460000  1
    191    190    199    208     1  0.0000000  0.0000000  3
    191    190    199    200     1  0.0000000  0.6508444  3
    191    190    199    201     1  0.0000000  0.6508444  3
    192    190    199    208     1  0.0000000  1.0460000  1
    192    190    199    208     1  0.0000000  0.0000000  3
    192    190    199    200     1  0.0000000  0.6508444  3
    192    190    199    201     1  0.0000000  0.6508444  3
    193    181    180    209     1  0.0000000  0.6508444  3
    194    193    205    478     1  0.0000000  1.0460000  1
    194    193    205    478     1  0.0000000  0.0000000  3
    194    193    205    206     1  0.0000000  0.6508444  3
    194    193    205    207     1  0.0000000  0.6508444  3
    195    193    205    478     1  0.0000000  1.0460000  1
    195    193    205    478     1  0.0000000  0.0000000  3
    195    193    205    206     1  0.0000000  0.6508444  3
    195    193    205    207     1  0.0000000  0.6508444  3
    196    184    180    209     1  0.0000000  0.6508444  3
    197    196    202    448     1  0.0000000  1.0460000  1
    197    196    202    448     1  0.0000000  0.0000000  3
    197    196    202    203     1  0.0000000  0.6508444  3
    197    196    202    204     1  0.0000000  0.6508444  3
    198    196    202    448     1  0.0000000  1.0460000  1
    198    196    202    448     1  0.0000000  0.0000000  3
    198    196    202    203     1  0.0000000  0.6508444  3
    198    196    202    204     1  0.0000000  0.6508444  3
    202    448    439    440     1  0.0000000  1.6038667  3
    202    448    439    441     1  0.0000000  1.6038667  3
    203    202    448    439     1  0.0000000  1.6038667  3
    204    202    448    439     1  0.0000000  1.6038667  3
    205    478    469    470     1  0.0000000  1.6038667  3
    205    478    469    471     1  0.0000000  1.6038667  3
    206    205    478    469     1  0.0000000  1.6038667  3
    207    205    478    469     1  0.0000000  1.6038667  3
    210    211    223    224     1  0.0000000  0.6508444  3
    210    211    223    225     1  0.0000000  0.6508444  3
    210    214    226    227     1  0.0000000  0.6508444  3
    210    214    226    228     1  0.0000000  0.6508444  3
    210    217    220    221     1  0.0000000  0.6508444  3
    210    217    220    222     1  0.0000000  0.6508444  3
    211    210    214    215     1  0.0000000  0.6508444  3
    211    210    214    216     1  0.0000000  0.6508444  3
    211    210    217    218     1  0.0000000  0.6508444  3
    211    210    217    219     1  0.0000000  0.6508444  3
    211    223    235    236     1  0.0000000  0.6508444  3
    211    223    235    237     1  0.0000000  0.6508444  3
    212    211    210    214     1  0.0000000  0.6508444  3
    212    211    210    217     1  0.0000000  0.6508444  3
    212    211    210    239     1  0.0000000  0.6508444  3
    212    211    223    235     1  0.0000000  0.6508444  3
    212    211    223    224     1  0.0000000  0.6508444  3
    212    211    223    225     1  0.0000000  0.6508444  3
    213    211    210    214     1  0.0000000  0.6508444  3
    213    211    210    217     1  0.0000000  0.6508444  3
    213    211    210    239     1  0.0000000  0.6508444  3
    213    211    223    235     1  0.0000000  0.6508444  3
    213    211    223    224     1  0.0000000  0.6508444  3
    213    211    223    225     1  0.0000000  0.6508444  3
    214    210    217    218     1  0.0000000  0.6508444  3
    214    210    217    219     1  0.0000000  0.6508444  3
    214    226    232    233     1  0.0000000  0.6508444  3
    214    226    232    234     1  0.0000000  0.6508444  3
    215    214    210    217     1  0.0000000  0.6508444  3
    215    214    210    239     1  0.0000000  0.6508444  3
    215    214    226    232     1  0.0000000  0.6508444  3
    215    214    226    227     1  0.0000000  0.6508444  3
    215    214    226    228     1  0.0000000  0.6508444  3
    216    214    210    217     1  0.0000000  0.6508444  3
    216    214    210    239     1  0.0000000  0.6508444  3
    216    214    226    232     1  0.0000000  0.6508444  3
    216    214    226    227     1  0.0000000  0.6508444  3
    216    214    226    228     1  0.0000000  0.6508444  3
    217    220    229    230     1  0.0000000  0.6508444  3
    217    220    229    231     1  0.0000000  0.6508444  3
    218    217    210    239     1  0.0000000  0.6508444  3
    218    217    220    229     1  0.0000000  0.6508444  3
    218    217    220    221     1  0.0000000  0.6508444  3
    218    217    220    222     1  0.0000000  0.6508444  3
    219    217    210    239     1  0.0000000  0.6508444  3
    219    217    220    229     1  0.0000000  0.6508444  3
    219    217    220    221     1  0.0000000  0.6508444  3
    219    217    220    222     1  0.0000000  0.6508444  3
    220    217    210    239     1  0.0000000  0.6508444  3
    221    220    229    238     1  0.0000000  1.0460000  1
    221    220    229    238     1  0.0000000  0.0000000  3
    221    220    229    230     1  0.0000000  0.6508444  3
    221    220    229    231     1  0.0000000  0.6508444  3
    222    220    229    238     1  0.0000000  1.0460000  1
    222    220    229    238     1  0.0000000  0.0000000  3
    222    220    229    230     1  0.0000000  0.6508444  3
    222    220    229    231     1  0.0000000  0.6508444  3
    223    211    210    239     1  0.0000000  0.6508444  3
    224    223    235    538     1  0.0000000  1.0460000  1
    224    223    235    538     1  0.0000000  0.0000000  3
    224    223    235    236     1  0.0000000  0.6508444  3
    224    223    235    237     1  0.0000000  0.6508444  3
    225    223    235    538     1  0.0000000  1.0460000  1
    225    223    235    538     1  0.0000000  0.0000000  3
    225    223    235    236     1  0.0000000  0.6508444  3
    225    223    235    237     1  0.0000000  0.6508444  3
    226    214    210    239     1  0.0000000  0.6508444  3
    227    226    232    508     1  0.0000000  1.0460000  1
    227    226    232    508     1  0.0000000  0.0000000  3
    227    226    232    233     1  0.0000000  0.6508444  3
    227    226    232    234     1  0.0000000  0.6508444  3
    228    226    232    508     1  0.0000000  1.0460000  1
    228    226    232    508     1  0.0000000  0.0000000  3
    228    226    232    233     1  0.0000000  0.6508444  3
    228    226    232    234     1  0.0000000  0.6508444  3
    232    508    499    500     1  0.0000000  1.6038667  3
    232    508    499    501     1  0.0000000  1.6038667  3
    233    232    508    499     1  0.0000000  1.6038667  3
    234    232    508    499     1  0.0000000  1.6038667  3
    235    538    529    530     1  0.0000000  1.6038667  3
    235    538    529    531     1  0.0000000  1.6038667  3
    236    235    538    529     1  0.0000000  1.6038667  3
    237    235    538    529     1  0.0000000  1.6038667  3
    240    241    253    254     1  0.0000000  0.6508444  3
    240    241    253    255     1  0.0000000  0.6508444  3
    240    244    256    257     1  0.0000000  0.6508444  3
    240    244    256    258     1  0.0000000  0.6508444  3
    240    247    250    251     1  0.0000000  0.6508444  3
    240    247    250    252     1  0.0000000  0.6508444  3
    241    240    244    245     1  0.0000000  0.6508444  3
    241    240    244    246     1  0.0000000  0.6508444  3
    241    240    247    248     1  0.0000000  0.6508444  3
    241    240    247    249     1  0.0000000  0.6508444  3
    241    253    265    266     1  0.0000000  0.6508444  3
    241    253    265    267     1  0.0000000  0.6508444  3
    242    241    240    244     1  0.0000000  0.6508444  3
    242    241    240    247     1  0.0000000  0.6508444  3
    242    241    240    269     1  0.0000000  0.6508444  3
    242    241    253    265     1  0.0000000  0.6508444  3
    242    241    253    254     1  0.0000000  0.6508444  3
    242    241    253    255     1  0.0000000  0.6508444  3
    243    241    240    244     1  0.0000000  0.6508444  3
    243    241    240    247     1  0.0000000  0.6508444  3
    243    241    240    269     1  0.0000000  0.6508444  3
    243    241    253    265     1  0.0000000  0.6508444  3
    243    241    253    254     1  0.0000000  0.6508444  3
    243    241    253    255     1  0.0000000  0.6508444  3
    244    240    247    248     1  0.0000000  0.6508444  3
    244    240    247    249     1  0.0000000  0.6508444  3
    244    256    262    263     1  0.0000000  0.6508444  3
    244    256    262    264     1  0.0000000  0.6508444  3
    245    244    240    247     1  0.0000000  0.6508444  3
    245    244    240    269     1  0.0000000  0.6508444  3
    245    244    256    262     1  0.0000000  0.6508444  3
    245    244    256    257     1  0.0000000  0.6508444  3
    245    244    256    258     1  0.0000000  0.6508444  3
    246    244    240    247     1  0.0000000  0.6508444  3
    246    244    240    269     1  0.0000000  0.6508444  3
    246    244    256    262     1  0.0000000  0.6508444  3
    246    244    256    257     1  0.0000000  0.6508444  3
    246    244    256    258     1  0.0000000  0.6508444  3
    247    250    259    260     1  0.0000000  0.6508444  3
    247    250    259    261     1  0.0000000  0.6508444  3
    248    247    240    269     1  0.0000000  0.6508444  3
    248    247    250    259     1  0.0000000  0.6508444  3
    248    247    250    251     1  0.0000000  0.6508444  3
    248    247    250    252     1  0.0000000  0.6508444  3
    249    247    240    269     1  0.0000000  0.6508444  3
    249    247    250    259     1  0.0000000  0.6508444  3
    249    247    250    251     1  0.0000000  0.6508444  3
    249    247    250    252     1  0.0000000  0.6508444  3
    250    247    240    269     1  0.0000000  0.6508444  3
    251    250    259    268     1  0.0000000  1.0460000  1
    251    250    259    268     1  0.0000000  0.0000000  3
    251    250    259    260     1  0.0000000  0.6508444  3
    251    250    259    261     1  0.0000000  0.6508444  3
    252    250    259    268     1  0.0000000  1.0460000  1
    252    250    259    268     1  0.0000000  0.0000000  3
    252    250    259    260     1  0.0000000  0.6508444  3
    252    250    259    261     1  0.0000000  0.6508444  3
    253    241    240    269     1  0.0000000  0.6508444  3
    254    253    265    598     1  0.0000000  1.0460000  1
    254    253    265    598     1  0.0000000  0.0000000  3
    254    253    265    266     1  0.0000000  0.6508444  3
    254    253    265    267     1  0.0000000  0.6508444  3
    255    253    265    598     1  0.0000000  1.0460000  1
    255    253    265    598     1  0.0000000  0.0000000  3
    255    253    265    266     1  0.0000000  0.6508444  3
    255    253    265    267     1  0.0000000  0.6508444  3
    256    244    240    269     1  0.0000000  0.6508444  3
    257    256    262    568     1  0.0000000  1.0460000  1
    257    256    262    568     1  0.0000000  0.0000000  3
    257    256    262    263     1  0.0000000  0.6508444  3
    257    256    262    264     1  0.0000000  0.6508444  3
    258    256    262    568     1  0.0000000  1.0460000  1
    258    256    262    568     1  0.0000000  0.0000000  3
    258    256    262    263     1  0.0000000  0.6508444  3
    258    256    262    264     1  0.0000000  0.6508444  3
    262    568    559    560     1  0.0000000  1.6038667  3
    262    568    559    561     1  0.0000000  1.6038667  3
    263    262    568    559     1  0.0000000  1.6038667  3
    264    262    568    559     1  0.0000000  1.6038667  3
    265    598    589    590     1  0.0000000  1.6038667  3
    265    598    589    591     1  0.0000000  1.6038667  3
    266    265    598    589     1  0.0000000  1.6038667  3
    267    265    598    589     1  0.0000000  1.6038667  3
    270    271    283    284     1  0.0000000  0.6508444  3
    270    271    283    285     1  0.0000000  0.6508444  3
    270    274    286    287     1  0.0000000  0.6508444  3
    270    274    286    288     1  0.0000000  0.6508444  3
    270    277    280    281     1  0.0000000  0.6508444  3
    270    277    280    282     1  0.0000000  0.6508444  3
    271    270    274    275     1  0.0000000  0.6508444  3
    271    270    274    276     1  0.0000000  0.6508444  3
    271    270    277    278     1  0.0000000  0.6508444  3
    271    270    277    279     1  0.0000000  0.6508444  3
    271    283    295    296     1  0.0000000  0.6508444  3
    271    283    295    297     1  0.0000000  0.6508444  3
    272    271    270    274     1  0.0000000  0.6508444  3
    272    271    270    277     1  0.0000000  0.6508444  3
    272    271    270    299     1  0.0000000  0.6508444  3
    272    271    283    295     1  0.0000000  0.6508444  3
    272    271    283    284     1  0.0000000  0.6508444  3
    272    271    283    285     1  0.0000000  0.6508444  3
    273    271    270    274     1  0.0000000  0.6508444  3
    273    271    270    277     1  0.0000000  0.6508444  3
    273    271    270    299     1  0.0000000  0.6508444  3
    273    271    283    295     1  0.0000000  0.6508444  3
    273    271    283    284     1  0.0000000  0.6508444  3
    273    271    283    285     1  0.0000000  0.6508444  3
    274    270    277    278     1  0.0000000  0.6508444  3
    274    270    277    279     1  0.0000000  0.6508444  3
    274    286    292    293     1  0.0000000  0.6508444  3
    274    286    292    294     1  0.0000000  0.6508444  3
    275    274    270    277     1  0.0000000  0.6508444  3
    275    274    270    299     1  0.0000000  0.6508444  3
    275    274    286    292     1  0.0000000  0.6508444  3
    275    274    286    287     1  0.0000000  0.6508444  3
    275    274    286    288     1  0.0000000  0.6508444  3
    276    274    270    277     1  0.0000000  0.6508444  3
    276    274    270    299     1  0.0000000  0.6508444  3
    276    274    286    292     1  0.0000000  0.6508444  3
    276    274    286    287     1  0.0000000  0.6508444  3
    276    274    286    288     1  0.0000000  0.6508444  3
    277    280    289    290     1  0.0000000  0.6508444  3
    277    280    289    291     1  0.0000000  0.6508444  3
    278    277    270    299     1  0.0000000  0.6508444  3
    278    277    280    289     1  0.0000000  0.6508444  3
    278    277    280    281     1  0.0000000  0.6508444  3
    278    277    280    282     1  0.0000000  0.6508444  3
    279    277    270    299     1  0.0000000  0.6508444  3
    279    277    280    289     1  0.0000000  0.6508444  3
    279    277    280    281     1  0.0000000  0.6508444  3
    279    277    280    282     1  0.0000000  0.6508444  3
    280    277    270    299     1  0.0000000  0.6508444  3
    281    280    289    298     1  0.0000000  1.0460000  1
    281    280    289    298     1  0.0000000  0.0000000  3
    281    280    289    290     1  0.0000000  0.6508444  3
    281    280    289    291     1  0.0000000  0.6508444  3
    282    280    289    298     1  0.0000000  1.0460000  1
    282    280    289    298     1  0.0000000  0.0000000  3
    282    280    289    290     1  0.0000000  0.6508444  3
    282    280    289    291     1  0.0000000  0.6508444  3
    283    271    270    299     1  0.0000000  0.6508444  3
    284    283    295    658     1  0.0000000  1.0460000  1
    284    283    295    658     1  0.0000000  0.0000000  3
    284    283    295    296     1  0.0000000  0.6508444  3
    284    283    295    297     1  0.0000000  0.6508444  3
    285    283    295    658     1  0.0000000  1.0460000  1
    285    283    295    658     1  0.0000000  0.0000000  3
    285    283    295    296     1  0.0000000  0.6508444  3
    285    283    295    297     1  0.0000000  0.6508444  3
    286    274    270    299     1  0.0000000  0.6508444  3
    287    286    292    628     1  0.0000000  1.0460000  1
    287    286    292    628     1  0.0000000  0.0000000  3
    287    286    292    293     1  0.0000000  0.6508444  3
    287    286    292    294     1  0.0000000  0.6508444  3
    288    286    292    628     1  0.0000000  1.0460000  1
    288    286    292    628     1  0.0000000  0.0000000  3
    288    286    292    293     1  0.0000000  0.6508444  3
    288    286    292    294     1  0.0000000  0.6508444  3
    292    628    619    620     1  0.0000000  1.6038667  3
    292    628    619    621     1  0.0000000  1.6038667  3
    293    292    628    619     1  0.0000000  1.6038667  3
    294    292    628    619     1  0.0000000  1.6038667  3
    295    658    649    650     1  0.0000000  1.6038667  3
    295    658    649    651     1  0.0000000  1.6038667  3
    296    295    658    649     1  0.0000000  1.6038667  3
    297    295    658    649     1  0.0000000  1.6038667  3
    300    301    313    314     1  0.0000000  0.6508444  3
    300    301    313    315     1  0.0000000  0.6508444  3
    300    304    316    317     1  0.0000000  0.6508444  3
    300    304    316    318     1  0.0000000  0.6508444  3
    300    307    310    311     1  0.0000000  0.6508444  3
    300    307    310    312     1  0.0000000  0.6508444  3
    301    300    304    305     1  0.0000000  0.6508444  3
    301    300    304    306     1  0.0000000  0.6508444  3
    301    300    307    308     1  0.0000000  0.6508444  3
    301    300    307    309     1  0.0000000  0.6508444  3
    301    313    325    326     1  0.0000000  0.6508444  3
    301    313    325    327     1  0.0000000  0.6508444  3
    302    301    300    304     1  0.0000000  0.6508444  3
    302    301    300    307     1  0.0000000  0.6508444  3
    302    301    300    329     1  0.0000000  0.6508444  3
    302    301    313    325     1  0.0000000  0.6508444  3
    302    301    313    314     1  0.0000000  0.6508444  3
    302    301    313    315     1  0.0000000  0.6508444  3
    303    301    300    304     1  0.0000000  0.6508444  3
    303    301    300    307     1  0.0000000  0.6508444  3
    303    301    300    329     1  0.0000000  0.6508444  3
    303    301    313    325     1  0.0000000  0.6508444  3
    303    301    313    314     1  0.0000000  0.6508444  3
    303    301    313    315     1  0.0000000  0.6508444  3
    304    300    307    308     1  0.0000000  0.6508444  3
    304    300    307    309     1  0.0000000  0.6508444  3
    304    316    322    323     1  0.0000000  0.6508444  3
    304    316    322    324     1  0.0000000  0.6508444  3
    305    304    300    307     1  0.0000000  0.6508444  3
    305    304    300    329     1  0.0000000  0.6508444  3
    305    304    316    322     1  0.0000000  0.6508444  3
    305    304    316    317     1  0.0000000  0.6508444  3
    305    304    316    318     1  0.0000000  0.6508444  3
    306    304    300    307     1  0.0000000  0.6508444  3
    306    304    300    329     1  0.0000000  0.6508444  3
    306    304    316    322     1  0.0000000  0.6508444  3
    306    304    316    317     1  0.0000000  0.6508444  3
    306    304    316    318     1  0.0000000  0.6508444  3
    307    310    319    320     1  0.0000000  0.6508444  3
    307    310    319    321     1  0.0000000  0.6508444  3
    308    307    300    329     1  0.0000000  0.6508444  3
    308    307    310    319     1  0.0000000  0.6508444  3
    308    307    310    311     1  0.0000000  0.6508444  3
    308    307    310    312     1  0.0000000  0.6508444  3
    309    307    300    329     1  0.0000000  0.6508444  3
    309    307    310    319     1  0.0000000  0.6508444  3
    309    307    310    311     1  0.0000000  0.6508444  3
    309    307    310    312     1  0.0000000  0.6508444  3
    310    307    300    329     1  0.0000000  0.6508444  3
    311    310    319    328     1  0.0000000  1.0460000  1
    311    310    319    328     1  0.0000000  0.0000000  3
    311    310    319    320     1  0.0000000  0.6508444  3
    311    310    319    321     1  0.0000000  0.6508444  3
    312    310    319    328     1  0.0000000  1.0460000  1
    312    310    319    328     1  0.0000000  0.0000000  3
    312    310    319    320     1  0.0000000  0.6508444  3
    312    310    319    321     1  0.0000000  0.6508444  3
    313    301    300    329     1  0.0000000  0.6508444  3
    314    313    325    693     1  0.0000000  1.0460000  1
    314    313    325    693     1  0.0000000  0.0000000  3
    314    313    325    326     1  0.0000000  0.6508444  3
    314    313    325    327     1  0.0000000  0.6508444  3
    315    313    325    693     1  0.0000000  1.0460000  1
    315    313    325    693     1  0.0000000  0.0000000  3
    315    313    325    326     1  0.0000000  0.6508444  3
    315    313    325    327     1  0.0000000  0.6508444  3
    316    304    300    329     1  0.0000000  0.6508444  3
    317    316    322    670     1  0.0000000  1.0460000  1
    317    316    322    670     1  0.0000000  0.0000000  3
    317    316    322    323     1  0.0000000  0.6508444  3
    317    316    322    324     1  0.0000000  0.6508444  3
    318    316    322    670     1  0.0000000  1.0460000  1
    318    316    322    670     1  0.0000000  0.0000000  3
    318    316    322    323     1  0.0000000  0.6508444  3
    318    316    322    324     1  0.0000000  0.6508444  3
    322    670    666    669     1  0.0000000  1.6038667  3
    323    322    670    666     1  0.0000000  1.6038667  3
    324    322    670    666     1  0.0000000  1.6038667  3
    325    693    689    692     1  0.0000000  1.6038667  3
    326    325    693    689     1  0.0000000  1.6038667  3
    327    325    693    689     1  0.0000000  1.6038667  3
    330    331    343    344     1  0.0000000  0.6508444  3
    330    331    343    345     1  0.0000000  0.6508444  3
    330    334    346    347     1  0.0000000  0.6508444  3
    330    334    346    348     1  0.0000000  0.6508444  3
    330    337    340    341     1  0.0000000  0.6508444  3
    330    337    340    342     1  0.0000000  0.6508444  3
    331    330    334    335     1  0.0000000  0.6508444  3
    331    330    334    336     1  0.0000000  0.6508444  3
    331    330    337    338     1  0.0000000  0.6508444  3
    331    330    337    339     1  0.0000000  0.6508444  3
    331    343    355    356     1  0.0000000  0.6508444  3
    331    343    355    357     1  0.0000000  0.6508444  3
    332    331    330    334     1  0.0000000  0.6508444  3
    332    331    330    337     1  0.0000000  0.6508444  3
    332    331    330    359     1  0.0000000  0.6508444  3
    332    331    343    355     1  0.0000000  0.6508444  3
    332    331    343    344     1  0.0000000  0.6508444  3
    332    331    343    345     1  0.0000000  0.6508444  3
    333    331    330    334     1  0.0000000  0.6508444  3
    333    331    330    337     1  0.0000000  0.6508444  3
    333    331    330    359     1  0.0000000  0.6508444  3
    333    331    343    355     1  0.0000000  0.6508444  3
    333    331    343    344     1  0.0000000  0.6508444  3
    333    331    343    345     1  0.0000000  0.6508444  3
    334    330    337    338     1  0.0000000  0.6508444  3
    334    330    337    339     1  0.0000000  0.6508444  3
    334    346    352    353     1  0.0000000  0.6508444  3
    334    346    352    354     1  0.0000000  0.6508444  3
    335    334    330    337     1  0.0000000  0.6508444  3
    335    334    330    359     1  0.0000000  0.6508444  3
    335    334    346    352     1  0.0000000  0.6508444  3
    335    334    346    347     1  0.0000000  0.6508444  3
    335    334    346    348     1  0.0000000  0.6508444  3
    336    334    330    337     1  0.0000000  0.6508444  3
    336    334    330    359     1  0.0000000  0.6508444  3
    336    334    346    352     1  0.0000000  0.6508444  3
    336    334    346    347     1  0.0000000  0.6508444  3
    336    334    346    348     1  0.0000000  0.6508444  3
    337    340    349    350     1  0.0000000  0.6508444  3
    337    340    349    351     1  0.0000000  0.6508444  3
    338    337    330    359     1  0.0000000  0.6508444  3
    338    337    340    349     1  0.0000000  0.6508444  3
    338    337    340    341     1  0.0000000  0.6508444  3
    338    337    340    342     1  0.0000000  0.6508444  3
    339    337    330    359     1  0.0000000  0.6508444  3
    339    337    340    349     1  0.0000000  0.6508444  3
    339    337    340    341     1  0.0000000  0.6508444  3
    339    337    340    342     1  0.0000000  0.6508444  3
    340    337    330    359     1  0.0000000  0.6508444  3
    341    340    349    358     1  0.0000000  1.0460000  1
    341    340    349    358     1  0.0000000  0.0000000  3
    341    340    349    350     1  0.0000000  0.6508444  3
    341    340    349    351     1  0.0000000  0.6508444  3
    342    340    349    358     1  0.0000000  1.0460000  1
    342    340    349    358     1  0.0000000  0.0000000  3
    342    340    349    350     1  0.0000000  0.6508444  3
    342    340    349    351     1  0.0000000  0.6508444  3
    343    331    330    359     1  0.0000000  0.6508444  3
    344    343    355    739     1  0.0000000  1.0460000  1
    344    343    355    739     1  0.0000000  0.0000000  3
    344    343    355    356     1  0.0000000  0.6508444  3
    344    343    355    357     1  0.0000000  0.6508444  3
    345    343    355    739     1  0.0000000  1.0460000  1
    345    343    355    739     1  0.0000000  0.0000000  3
    345    343    355    356     1  0.0000000  0.6508444  3
    345    343    355    357     1  0.0000000  0.6508444  3
    346    334    330    359     1  0.0000000  0.6508444  3
    347    346    352    716     1  0.0000000  1.0460000  1
    347    346    352    716     1  0.0000000  0.0000000  3
    347    346    352    353     1  0.0000000  0.6508444  3
    347    346    352    354     1  0.0000000  0.6508444  3
    348    346    352    716     1  0.0000000  1.0460000  1
    348    346    352    716     1  0.0000000  0.0000000  3
    348    346    352    353     1  0.0000000  0.6508444  3
    348    346    352    354     1  0.0000000  0.6508444  3
    352    716    712    715     1  0.0000000  1.6038667  3
    353    352    716    712     1  0.0000000  1.6038667  3
    354    352    716    712     1  0.0000000  1.6038667  3
    355    739    735    738     1  0.0000000  1.6038667  3
    356    355    739    735     1  0.0000000  1.6038667  3
    357    355    739    735     1  0.0000000  1.6038667  3
    360    361    373    374     1  0.0000000  0.6508444  3
    360    361    373    375     1  0.0000000  0.6508444  3
    360    364    376    377     1  0.0000000  0.6508444  3
    360    364    376    378     1  0.0000000  0.6508444  3
    360    367    370    371     1  0.0000000  0.6508444  3
    360    367    370    372     1  0.0000000  0.6508444  3
    361    360    364    365     1  0.0000000  0.6508444  3
    361    360    364    366     1  0.0000000  0.6508444  3
    361    360    367    368     1  0.0000000  0.6508444  3
    361    360    367    369     1  0.0000000  0.6508444  3
    361    373    385    386     1  0.0000000  0.6508444  3
    361    373    385    387     1  0.0000000  0.6508444  3
    362    361    360    364     1  0.0000000  0.6508444  3
    362    361    360    367     1  0.0000000  0.6508444  3
    362    361    360    389     1  0.0000000  0.6508444  3
    362    361    373    385     1  0.0000000  0.6508444  3
    362    361    373    374     1  0.0000000  0.6508444  3
    362    361    373    375     1  0.0000000  0.6508444  3
    363    361    360    364     1  0.0000000  0.6508444  3
    363    361    360    367     1  0.0000000  0.6508444  3
    363    361    360    389     1  0.0000000  0.6508444  3
    363    361    373    385     1  0.0000000  0.6508444  3
    363    361    373    374     1  0.0000000  0.6508444  3
    363    361    373    375     1  0.0000000  0.6508444  3
    364    360    367    368     1  0.0000000  0.6508444  3
    364    360    367    369     1  0.0000000  0.6508444  3
    364    376    382    383     1  0.0000000  0.6508444  3
    364    376    382    384     1  0.0000000  0.6508444  3
    365    364    360    367     1  0.0000000  0.6508444  3
    365    364    360    389     1  0.0000000  0.6508444  3
    365    364    376    382     1  0.0000000  0.6508444  3
    365    364    376    377     1  0.0000000  0.6508444  3
    365    364    376    378     1  0.0000000  0.6508444  3
    366    364    360    367     1  0.0000000  0.6508444  3
    366    364    360    389     1  0.0000000  0.6508444  3
    366    364    376    382     1  0.0000000  0.6508444  3
    366    364    376    377     1  0.0000000  0.6508444  3
    366    364    376    378     1  0.0000000  0.6508444  3
    367    370    379    380     1  0.0000000  0.6508444  3
    367    370    379    381     1  0.0000000  0.6508444  3
    368    367    360    389     1  0.0000000  0.6508444  3
    368    367    370    379     1  0.0000000  0.6508444  3
    368    367    370    371     1  0.0000000  0.6508444  3
    368    367    370    372     1  0.0000000  0.6508444  3
    369    367    360    389     1  0.0000000  0.6508444  3
    369    367    370    379     1  0.0000000  0.6508444  3
    369    367    370    371     1  0.0000000  0.6508444  3
    369    367    370    372     1  0.0000000  0.6508444  3
    370    367    360    389     1  0.0000000  0.6508444  3
    371    370    379    388     1  0.0000000  1.0460000  1
    371    370    379    388     1  0.0000000  0.0000000  3
    371    370    379    380     1  0.0000000  0.6508444  3
    371    370    379    381     1  0.0000000  0.6508444  3
    372    370    379    388     1  0.0000000  1.0460000  1
    372    370    379    388     1  0.0000000  0.0000000  3
    372    370    379    380     1  0.0000000  0.6508444  3
    372    370    379    381     1  0.0000000  0.6508444  3
    373    361    360    389     1  0.0000000  0.6508444  3
    374    373    385    785     1  0.0000000  1.0460000  1
    374    373    385    785     1  0.0000000  0.0000000  3
    374    373    385    386     1  0.0000000  0.6508444  3
    374    373    385    387     1  0.0000000  0.6508444  3
    375    373    385    785     1  0.0000000  1.0460000  1
    375    373    385    785     1  0.0000000  0.0000000  3
    375    373    385    386     1  0.0000000  0.6508444  3
    375    373    385    387     1  0.0000000  0.6508444  3
    376    364    360    389     1  0.0000000  0.6508444  3
    377    376    382    762     1  0.0000000  1.0460000  1
    377    376    382    762     1  0.0000000  0.0000000  3
    377    376    382    383     1  0.0000000  0.6508444  3
    377    376    382    384     1  0.0000000  0.6508444  3
    378    376    382    762     1  0.0000000  1.0460000  1
    378    376    382    762     1  0.0000000  0.0000000  3
    378    376    382    383     1  0.0000000  0.6508444  3
    378    376    382    384     1  0.0000000  0.6508444  3
    382    762    758    761     1  0.0000000  1.6038667  3
    383    382    762    758     1  0.0000000  1.6038667  3
    384    382    762    758     1  0.0000000  1.6038667  3
    385    785    781    784     1  0.0000000  1.6038667  3
    386    385    785    781     1  0.0000000  1.6038667  3
    387    385    785    781     1  0.0000000  1.6038667  3
    390    391    403    404     1  0.0000000  0.6508444  3
    390    391    403    405     1  0.0000000  0.6508444  3
    390    394    406    407     1  0.0000000  0.6508444  3
    390    394    406    408     1  0.0000000  0.6508444  3
    390    397    400    401     1  0.0000000  0.6508444  3
    390    397    400    402     1  0.0000000  0.6508444  3
    391    390    394    395     1  0.0000000  0.6508444  3
    391    390    394    396     1  0.0000000  0.6508444  3
    391    390    397    398     1  0.0000000  0.6508444  3
    391    390    397    399     1  0.0000000  0.6508444  3
    391    403    415    416     1  0.0000000  0.6508444  3
    391    403    415    417     1  0.0000000  0.6508444  3
    392    391    390    394     1  0.0000000  0.6508444  3
    392    391    390    397     1  0.0000000  0.6508444  3
    392    391    390    419     1  0.0000000  0.6508444  3
    392    391    403    415     1  0.0000000  0.6508444  3
    392    391    403    404     1  0.0000000  0.6508444  3
    392    391    403    405     1  0.0000000  0.6508444  3
    393    391    390    394     1  0.0000000  0.6508444  3
    393    391    390    397     1  0.0000000  0.6508444  3
    393    391    390    419     1  0.0000000  0.6508444  3
    393    391    403    415     1  0.0000000  0.6508444  3
    393    391    403    404     1  0.0000000  0.6508444  3
    393    391    403    405     1  0.0000000  0.6508444  3
    394    390    397    398     1  0.0000000  0.6508444  3
    394    390    397    399     1  0.0000000  0.6508444  3
    394    406    412    413     1  0.0000000  0.6508444  3
    394    406    412    414     1  0.0000000  0.6508444  3
    395    394    390    397     1  0.0000000  0.6508444  3
    395    394    390    419     1  0.0000000  0.6508444  3
    395    394    406    412     1  0.0000000  0.6508444  3
    395    394    406    407     1  0.0000000  0.6508444  3
    395    394    406    408     1  0.0000000  0.6508444  3
    396    394    390    397     1  0.0000000  0.6508444  3
    396    394    390    419     1  0.0000000  0.6508444  3
    396    394    406    412     1  0.0000000  0.6508444  3
    396    394    406    407     1  0.0000000  0.6508444  3
    396    394    406    408     1  0.0000000  0.6508444  3
    397    400    409    410     1  0.0000000  0.6508444  3
    397    400    409    411     1  0.0000000  0.6508444  3
    398    397    390    419     1  0.0000000  0.6508444  3
    398    397    400    409     1  0.0000000  0.6508444  3
    398    397    400    401     1  0.0000000  0.6508444  3
    398    397    400    402     1  0.0000000  0.6508444  3
    399    397    390    419     1  0.0000000  0.6508444  3
    399    397    400    409     1  0.0000000  0.6508444  3
    399    397    400    401     1  0.0000000  0.6508444  3
    399    397    400    402     1  0.0000000  0.6508444  3
    400    397    390    419     1  0.0000000  0.6508444  3
    401    400    409    418     1  0.0000000  1.0460000  1
    401    400    409    418     1  0.0000000  0.0000000  3
    401    400    409    410     1  0.0000000  0.6508444  3
    401    400    409    411     1  0.0000000  0.6508444  3
    402    400    409    418     1  0.0000000  1.0460000  1
    402    400    409    418     1  0.0000000  0.0000000  3
    402    400    409    410     1  0.0000000  0.6508444  3
    402    400    409    411     1  0.0000000  0.6508444  3
    403    391    390    419     1  0.0000000  0.6508444  3
    404    403    415    831     1  0.0000000  1.0460000  1
    404    403    415    831     1  0.0000000  0.0000000  3
    404    403    415    416     1  0.0000000  0.6508444  3
    404    403    415    417     1  0.0000000  0.6508444  3
    405    403    415    831     1  0.0000000  1.0460000  1
    405    403    415    831     1  0.0000000  0.0000000  3
    405    403    415    416     1  0.0000000  0.6508444  3
    405    403    415    417     1  0.0000000  0.6508444  3
    406    394    390    419     1  0.0000000  0.6508444  3
    407    406    412    808     1  0.0000000  1.0460000  1
    407    406    412    808     1  0.0000000  0.0000000  3
    407    406    412    413     1  0.0000000  0.6508444  3
    407    406    412    414     1  0.0000000  0.6508444  3
    408    406    412    808     1  0.0000000  1.0460000  1
    408    406    412    808     1  0.0000000  0.0000000  3
    408    406    412    413     1  0.0000000  0.6508444  3
    408    406    412    414     1  0.0000000  0.6508444  3
    412    808    804    807     1  0.0000000  1.6038667  3
    413    412    808    804     1  0.0000000  1.6038667  3
    414    412    808    804     1  0.0000000  1.6038667  3
    415    831    827    830     1  0.0000000  1.6038667  3
    416    415    831    827     1  0.0000000  1.6038667  3
    417    415    831    827     1  0.0000000  1.6038667  3
    420    421    433    434     1  0.0000000  0.6508444  3
    420    421    433    435     1  0.0000000  0.6508444  3
    420    424    436    437     1  0.0000000  0.6508444  3
    420    424    436    438     1  0.0000000  0.6508444  3
    420    427    430    431     1  0.0000000  0.6508444  3
    420    427    430    432     1  0.0000000  0.6508444  3
    421    420    424    425     1  0.0000000  0.6508444  3
    421    420    424    426     1  0.0000000  0.6508444  3
    421    420    427    428     1  0.0000000  0.6508444  3
    421    420    427    429     1  0.0000000  0.6508444  3
    421    433    445    446     1  0.0000000  0.6508444  3
    421    433    445    447     1  0.0000000  0.6508444  3
    422    421    420    424     1  0.0000000  0.6508444  3
    422    421    420    427     1  0.0000000  0.6508444  3
    422    421    420    449     1  0.0000000  0.6508444  3
    422    421    433    445     1  0.0000000  0.6508444  3
    422    421    433    434     1  0.0000000  0.6508444  3
    422    421    433    435     1  0.0000000  0.6508444  3
    423    421    420    424     1  0.0000000  0.6508444  3
    423    421    420    427     1  0.0000000  0.6508444  3
    423    421    420    449     1  0.0000000  0.6508444  3
    423    421    433    445     1  0.0000000  0.6508444  3
    423    421    433    434     1  0.0000000  0.6508444  3
    423    421    433    435     1  0.0000000  0.6508444  3
    424    420    427    428     1  0.0000000  0.6508444  3
    424    420    427    429     1  0.0000000  0.6508444  3
    424    436    442    443     1  0.0000000  0.6508444  3
    424    436    442    444     1  0.0000000  0.6508444  3
    425    424    420    427     1  0.0000000  0.6508444  3
    425    424    420    449     1  0.0000000  0.6508444  3
    425    424    436    442     1  0.0000000  0.6508444  3
    425    424    436    437     1  0.0000000  0.6508444  3
    425    424    436    438     1  0.0000000  0.6508444  3
    426    424    420    427     1  0.0000000  0.6508444  3
    426    424    420    449     1  0.0000000  0.6508444  3
    426    424    436    442     1  0.0000000  0.6508444  3
    426    424    436    437     1  0.0000000  0.6508444  3
    426    424    436    438     1  0.0000000  0.6508444  3
    427    430    439    440     1  0.0000000  0.6508444  3
    427    430    439    441     1  0.0000000  0.6508444  3
    428    427    420    449     1  0.0000000  0.6508444  3
    428    427    430    439     1  0.0000000  0.6508444  3
    428    427    430    431     1  0.0000000  0.6508444  3
    428    427    430    432     1  0.0000000  0.6508444  3
    429    427    420    449     1  0.0000000  0.6508444  3
    429    427    430    439     1  0.0000000  0.6508444  3
    429    427    430    431     1  0.0000000  0.6508444  3
    429    427    430    432     1  0.0000000  0.6508444  3
    430    427    420    449     1  0.0000000  0.6508444  3
    431    430    439    448     1  0.0000000  1.0460000  1
    431    430    439    448     1  0.0000000  0.0000000  3
    431    430    439    440     1  0.0000000  0.6508444  3
    431    430    439    441     1  0.0000000  0.6508444  3
    432    430    439    448     1  0.0000000  1.0460000  1
    432    430    439    448     1  0.0000000  0.0000000  3
    432    430    439    440     1  0.0000000  0.6508444  3
    432    430    439    441     1  0.0000000  0.6508444  3
    433    421    420    449     1  0.0000000  0.6508444  3
    434    433    445    877     1  0.0000000  1.0460000  1
    434    433    445    877     1  0.0000000  0.0000000  3
    434    433    445    446     1  0.0000000  0.6508444  3
    434    433    445    447     1  0.0000000  0.6508444  3
    435    433    445    877     1  0.0000000  1.0460000  1
    435    433    445    877     1  0.0000000  0.0000000  3
    435    433    445    446     1  0.0000000  0.6508444  3
    435    433    445    447     1  0.0000000  0.6508444  3
    436    424    420    449     1  0.0000000  0.6508444  3
    437    436    442    854     1  0.0000000  1.0460000  1
    437    436    442    854     1  0.0000000  0.0000000  3
    437    436    442    443     1  0.0000000  0.6508444  3
    437    436    442    444     1  0.0000000  0.6508444  3
    438    436    442    854     1  0.0000000  1.0460000  1
    438    436    442    854     1  0.0000000  0.0000000  3
    438    436    442    443     1  0.0000000  0.6508444  3
    438    436    442    444     1  0.0000000  0.6508444  3
    442    854    850    853     1  0.0000000  1.6038667  3
    443    442    854    850     1  0.0000000  1.6038667  3
    444    442    854    850     1  0.0000000  1.6038667  3
    445    877    873    876     1  0.0000000  1.6038667  3
    446    445    877    873     1  0.0000000  1.6038667  3
    447    445    877    873     1  0.0000000  1.6038667  3
    450    451    463    464     1  0.0000000  0.6508444  3
    450    451    463    465     1  0.0000000  0.6508444  3
    450    454    466    467     1  0.0000000  0.6508444  3
    450    454    466    468     1  0.0000000  0.6508444  3
    450    457    460    461     1  0.0000000  0.6508444  3
    450    457    460    462     1  0.0000000  0.6508444  3
    451    450    454    455     1  0.0000000  0.6508444  3
    451    450    454    456     1  0.0000000  0.6508444  3
    451    450    457    458     1  0.0000000  0.6508444  3
    451    450    457    459     1  0.0000000  0.6508444  3
    451    463    475    476     1  0.0000000  0.6508444  3
    451    463    475    477     1  0.0000000  0.6508444  3
    452    451    450    454     1  0.0000000  0.6508444  3
    452    451    450    457     1  0.0000000  0.6508444  3
    452    451    450    479     1  0.0000000  0.6508444  3
    452    451    463    475     1  0.0000000  0.6508444  3
    452    451    463    464     1  0.0000000  0.6508444  3
    452    451    463    465     1  0.0000000  0.6508444  3
    453    451    450    454     1  0.0000000  0.6508444  3
    453    451    450    457     1  0.0000000  0.6508444  3
    453    451    450    479     1  0.0000000  0.6508444  3
    453    451    463    475     1  0.0000000  0.6508444  3
    453    451    463    464     1  0.0000000  0.6508444  3
    453    451    463    465     1  0.0000000  0.6508444  3
    454    450    457    458     1  0.0000000  0.6508444  3
    454    450    457    459     1  0.0000000  0.6508444  3
    454    466    472    473     1  0.0000000  0.6508444  3
    454    466    472    474     1  0.0000000  0.6508444  3
    455    454    450    457     1  0.0000000  0.6508444  3
    455    454    450    479     1  0.0000000  0.6508444  3
    455    454    466    472     1  0.0000000  0.6508444  3
    455    454    466    467     1  0.0000000  0.6508444  3
    455    454    466    468     1  0.0000000  0.6508444  3
    456    454    450    457     1  0.0000000  0.6508444  3
    456    454    450    479     1  0.0000000  0.6508444  3
    456    454    466    472     1  0.0000000  0.6508444  3
    456    454    466    467     1  0.0000000  0.6508444  3
    456    454    466    468     1  0.0000000  0.6508444  3
    457    460    469    470     1  0.0000000  0.6508444  3
    457    460    469    471     1  0.0000000  0.6508444  3
    458    457    450    479     1  0.0000000  0.6508444  3
    458    457    460    469     1  0.0000000  0.6508444  3
    458    457    460    461     1  0.0000000  0.6508444  3
    458    457    460    462     1  0.0000000  0.6508444  3
    459    457    450    479     1  0.0000000  0.6508444  3
    459    457    460    469     1  0.0000000  0.6508444  3
    459    457    460    461     1  0.0000000  0.6508444  3
    459    457    460    462     1  0.0000000  0.6508444  3
    460    457    450    479     1  0.0000000  0.6508444  3
    461    460    469    478     1  0.0000000  1.0460000  1
    461    460    469    478     1  0.0000000  0.0000000  3
    461    460    469    470     1  0.0000000  0.6508444  3
    461    460    469    471     1  0.0000000  0.6508444  3
    462    460    469    478     1  0.0000000  1.0460000  1
    462    460    469    478     1  0.0000000  0.0000000  3
    462    460    469    470     1  0.0000000  0.6508444  3
    462    460    469    471     1  0.0000000  0.6508444  3
    463    451    450    479     1  0.0000000  0.6508444  3
    464    463    475    923     1  0.0000000  1.0460000  1
    464    463    475    923     1  0.0000000  0.0000000  3
    464    463    475    476     1  0.0000000  0.6508444  3
    464    463    475    477     1  0.0000000  0.6508444  3
    465    463    475    923     1  0.0000000  1.0460000  1
    465    463    475    923     1  0.0000000  0.0000000  3
    465    463    475    476     1  0.0000000  0.6508444  3
    465    463    475    477     1  0.0000000  0.6508444  3
    466    454    450    479     1  0.0000000  0.6508444  3
    467    466    472    900     1  0.0000000  1.0460000  1
    467    466    472    900     1  0.0000000  0.0000000  3
    467    466    472    473     1  0.0000000  0.6508444  3
    467    466    472    474     1  0.0000000  0.6508444  3
    468    466    472    900     1  0.0000000  1.0460000  1
    468    466    472    900     1  0.0000000  0.0000000  3
    468    466    472    473     1  0.0000000  0.6508444  3
    468    466    472    474     1  0.0000000  0.6508444  3
    472    900    896    899     1  0.0000000  1.6038667  3
    473    472    900    896     1  0.0000000  1.6038667  3
    474    472    900    896     1  0.0000000  1.6038667  3
    475    923    919    922     1  0.0000000  1.6038667  3
    476    475    923    919     1  0.0000000  1.6038667  3
    477    475    923    919     1  0.0000000  1.6038667  3
    480    481    493    494     1  0.0000000  0.6508444  3
    480    481    493    495     1  0.0000000  0.6508444  3
    480    484    496    497     1  0.0000000  0.6508444  3
    480    484    496    498     1  0.0000000  0.6508444  3
    480    487    490    491     1  0.0000000  0.6508444  3
    480    487    490    492     1  0.0000000  0.6508444  3
    481    480    484    485     1  0.0000000  0.6508444  3
    481    480    484    486     1  0.0000000  0.6508444  3
    481    480    487    488     1  0.0000000  0.6508444  3
    481    480    487    489     1  0.0000000  0.6508444  3
    481    493    505    506     1  0.0000000  0.6508444  3
    481    493    505    507     1  0.0000000  0.6508444  3
    482    481    480    484     1  0.0000000  0.6508444  3
    482    481    480    487     1  0.0000000  0.6508444  3
    482    481    480    509     1  0.0000000  0.6508444  3
    482    481    493    505     1  0.0000000  0.6508444  3
    482    481    493    494     1  0.0000000  0.6508444  3
    482    481    493    495     1  0.0000000  0.6508444  3
    483    481    480    484     1  0.0000000  0.6508444  3
    483    481    480    487     1  0.0000000  0.6508444  3
    483    481    480    509     1  0.0000000  0.6508444  3
    483    481    493    505     1  0.0000000  0.6508444  3
    483    481    493    494     1  0.0000000  0.6508444  3
    483    481    493    495     1  0.0000000  0.6508444  3
    484    480    487    488     1  0.0000000  0.6508444  3
    484    480    487    489     1  0.0000000  0.6508444  3
    484    496    502    503     1  0.0000000  0.6508444  3
    484    496    502    504     1  0.0000000  0.6508444  3
    485    484    480    487     1  0.0000000  0.6508444  3
    485    484    480    509     1  0.0000000  0.6508444  3
    485    484    496    502     1  0.0000000  0.6508444  3
    485    484    496    497     1  0.0000000  0.6508444  3
    485    484    496    498     1  0.0000000  0.6508444  3
    486    484    480    487     1  0.0000000  0.6508444  3
    486    484    480    509     1  0.0000000  0.6508444  3
    486    484    496    502     1  0.0000000  0.6508444  3
    486    484    496    497     1  0.0000000  0.6508444  3
    486    484    496    498     1  0.0000000  0.6508444  3
    487    490    499    500     1  0.0000000  0.6508444  3
    487    490    499    501     1  0.0000000  0.6508444  3
    488    487    480    509     1  0.0000000  0.6508444  3
    488    487    490    499     1  0.0000000  0.6508444  3
    488    487    490    491     1  0.0000000  0.6508444  3
    488    487    490    492     1  0.0000000  0.6508444  3
    489    487    480    509     1  0.0000000  0.6508444  3
    489    487    490    499     1  0.0000000  0.6508444  3
    489    487    490    491     1  0.0000000  0.6508444  3
    489    487    490    492     1  0.0000000  0.6508444  3
    490    487    480    509     1  0.0000000  0.6508444  3
    491    490    499    508     1  0.0000000  1.0460000  1
    491    490    499    508     1  0.0000000  0.0000000  3
    491    490    499    500     1  0.0000000  0.6508444  3
    491    490    499    501     1  0.0000000  0.6508444  3
    492    490    499    508     1  0.0000000  1.0460000  1
    492    490    499    508     1  0.0000000  0.0000000  3
    492    490    499    500     1  0.0000000  0.6508444  3
    492    490    499    501     1  0.0000000  0.6508444  3
    493    481    480    509     1  0.0000000  0.6508444  3
    494    493    505    969     1  0.0000000  1.0460000  1
    494    493    505    969     1  0.0000000  0.0000000  3
    494    493    505    506     1  0.0000000  0.6508444  3
    494    493    505    507     1  0.0000000  0.6508444  3
    495    493    505    969     1  0.0000000  1.0460000  1
    495    493    505    969     1  0.0000000  0.0000000  3
    495    493    505    506     1  0.0000000  0.6508444  3
    495    493    505    507     1  0.0000000  0.6508444  3
    496    484    480    509     1  0.0000000  0.6508444  3
    497    496    502    946     1  0.0000000  1.0460000  1
    497    496    502    946     1  0.0000000  0.0000000  3
    497    496    502    503     1  0.0000000  0.6508444  3
    497    496    502    504     1  0.0000000  0.6508444  3
    498    496    502    946     1  0.0000000  1.0460000  1
    498    496    502    946     1  0.0000000  0.0000000  3
    498    496    502    503     1  0.0000000  0.6508444  3
    498    496    502    504     1  0.0000000  0.6508444  3
    502    946    942    945     1  0.0000000  1.6038667  3
    503    502    946    942     1  0.0000000  1.6038667  3
    504    502    946    942     1  0.0000000  1.6038667  3
    505    969    965    968     1  0.0000000  1.6038667  3
    506    505    969    965     1  0.0000000  1.6038667  3
    507    505    969    965     1  0.0000000  1.6038667  3
    510    511    523    524     1  0.0000000  0.6508444  3
    510    511    523    525     1  0.0000000  0.6508444  3
    510    514    526    527     1  0.0000000  0.6508444  3
    510    514    526    528     1  0.0000000  0.6508444  3
    510    517    520    521     1  0.0000000  0.6508444  3
    510    517    520    522     1  0.0000000  0.6508444  3
    511    510    514    515     1  0.0000000  0.6508444  3
    511    510    514    516     1  0.0000000  0.6508444  3
    511    510    517    518     1  0.0000000  0.6508444  3
    511    510    517    519     1  0.0000000  0.6508444  3
    511    523    535    536     1  0.0000000  0.6508444  3
    511    523    535    537     1  0.0000000  0.6508444  3
    512    511    510    514     1  0.0000000  0.6508444  3
    512    511    510    517     1  0.0000000  0.6508444  3
    512    511    510    539     1  0.0000000  0.6508444  3
    512    511    523    535     1  0.0000000  0.6508444  3
    512    511    523    524     1  0.0000000  0.6508444  3
    512    511    523    525     1  0.0000000  0.6508444  3
    513    511    510    514     1  0.0000000  0.6508444  3
    513    511    510    517     1  0.0000000  0.6508444  3
    513    511    510    539     1  0.0000000  0.6508444  3
    513    511    523    535     1  0.0000000  0.6508444  3
    513    511    523    524     1  0.0000000  0.6508444  3
    513    511    523    525     1  0.0000000  0.6508444  3
    514    510    517    518     1  0.0000000  0.6508444  3
    514    510    517    519     1  0.0000000  0.6508444  3
    514    526    532    533     1  0.0000000  0.6508444  3
    514    526    532    534     1  0.0000000  0.6508444  3
    515    514    510    517     1  0.0000000  0.6508444  3
    515    514    510    539     1  0.0000000  0.6508444  3
    515    514    526    532     1  0.0000000  0.6508444  3
    515    514    526    527     1  0.0000000  0.6508444  3
    515    514    526    528     1  0.0000000  0.6508444  3
    516    514    510    517     1  0.0000000  0.6508444  3
    516    514    510    539     1  0.0000000  0.6508444  3
    516    514    526    532     1  0.0000000  0.6508444  3
    516    514    526    527     1  0.0000000  0.6508444  3
    516    514    526    528     1  0.0000000  0.6508444  3
    517    520    529    530     1  0.0000000  0.6508444  3
    517    520    529    531     1  0.0000000  0.6508444  3
    518    517    510    539     1  0.0000000  0.6508444  3
    518    517    520    529     1  0.0000000  0.6508444  3
    518    517    520    521     1  0.0000000  0.6508444  3
    518    517    520    522     1  0.0000000  0.6508444  3
    519    517    510    539     1  0.0000000  0.6508444  3
    519    517    520    529     1  0.0000000  0.6508444  3
    519    517    520    521     1  0.0000000  0.6508444  3
    519    517    520    522     1  0.0000000  0.6508444  3
    520    517    510    539     1  0.0000000  0.6508444  3
    521    520    529    538     1  0.0000000  1.0460000  1
    521    520    529    538     1  0.0000000  0.0000000  3
    521    520    529    530     1  0.0000000  0.6508444  3
    521    520    529    531     1  0.0000000  0.6508444  3
    522    520    529    538     1  0.0000000  1.0460000  1
    522    520    529    538     1  0.0000000  0.0000000  3
    522    520    529    530     1  0.0000000  0.6508444  3
    522    520    529    531     1  0.0000000  0.6508444  3
    523    511    510    539     1  0.0000000  0.6508444  3
    524    523    535   1015     1  0.0000000  1.0460000  1
    524    523    535   1015     1  0.0000000  0.0000000  3
    524    523    535    536     1  0.0000000  0.6508444  3
    524    523    535    537     1  0.0000000  0.6508444  3
    525    523    535   1015     1  0.0000000  1.0460000  1
    525    523    535   1015     1  0.0000000  0.0000000  3
    525    523    535    536     1  0.0000000  0.6508444  3
    525    523    535    537     1  0.0000000  0.6508444  3
    526    514    510    539     1  0.0000000  0.6508444  3
    527    526    532    992     1  0.0000000  1.0460000  1
    527    526    532    992     1  0.0000000  0.0000000  3
    527    526    532    533     1  0.0000000  0.6508444  3
    527    526    532    534     1  0.0000000  0.6508444  3
    528    526    532    992     1  0.0000000  1.0460000  1
    528    526    532    992     1  0.0000000  0.0000000  3
    528    526    532    533     1  0.0000000  0.6508444  3
    528    526    532    534     1  0.0000000  0.6508444  3
    532    992    988    991     1  0.0000000  1.6038667  3
    533    532    992    988     1  0.0000000  1.6038667  3
    534    532    992    988     1  0.0000000  1.6038667  3
    535   1015   1011   1014     1  0.0000000  1.6038667  3
    536    535   1015   1011     1  0.0000000  1.6038667  3
    537    535   1015   1011     1  0.0000000  1.6038667  3
    540    541    553    554     1  0.0000000  0.6508444  3
    540    541    553    555     1  0.0000000  0.6508444  3
    540    544    556    557     1  0.0000000  0.6508444  3
    540    544    556    558     1  0.0000000  0.6508444  3
    540    547    550    551     1  0.0000000  0.6508444  3
    540    547    550    552     1  0.0000000  0.6508444  3
    541    540    544    545     1  0.0000000  0.6508444  3
    541    540    544    546     1  0.0000000  0.6508444  3
    541    540    547    548     1  0.0000000  0.6508444  3
    541    540    547    549     1  0.0000000  0.6508444  3
    541    553    565    566     1  0.0000000  0.6508444  3
    541    553    565    567     1  0.0000000  0.6508444  3
    542    541    540    544     1  0.0000000  0.6508444  3
    542    541    540    547     1  0.0000000  0.6508444  3
    542    541    540    569     1  0.0000000  0.6508444  3
    542    541    553    565     1  0.0000000  0.6508444  3
    542    541    553    554     1  0.0000000  0.6508444  3
    542    541    553    555     1  0.0000000  0.6508444  3
    543    541    540    544     1  0.0000000  0.6508444  3
    543    541    540    547     1  0.0000000  0.6508444  3
    543    541    540    569     1  0.0000000  0.6508444  3
    543    541    553    565     1  0.0000000  0.6508444  3
    543    541    553    554     1  0.0000000  0.6508444  3
    543    541    553    555     1  0.0000000  0.6508444  3
    544    540    547    548     1  0.0000000  0.6508444  3
    544    540    547    549     1  0.0000000  0.6508444  3
    544    556    562    563     1  0.0000000  0.6508444  3
    544    556    562    564     1  0.0000000  0.6508444  3
    545    544    540    547     1  0.0000000  0.6508444  3
    545    544    540    569     1  0.0000000  0.6508444  3
    545    544    556    562     1  0.0000000  0.6508444  3
    545    544    556    557     1  0.0000000  0.6508444  3
    545    544    556    558     1  0.0000000  0.6508444  3
    546    544    540    547     1  0.0000000  0.6508444  3
    546    544    540    569     1  0.0000000  0.6508444  3
    546    544    556    562     1  0.0000000  0.6508444  3
    546    544    556    557     1  0.0000000  0.6508444  3
    546    544    556    558     1  0.0000000  0.6508444  3
    547    550    559    560     1  0.0000000  0.6508444  3
    547    550    559    561     1  0.0000000  0.6508444  3
    548    547    540    569     1  0.0000000  0.6508444  3
    548    547    550    559     1  0.0000000  0.6508444  3
    548    547    550    551     1  0.0000000  0.6508444  3
    548    547    550    552     1  0.0000000  0.6508444  3
    549    547    540    569     1  0.0000000  0.6508444  3
    549    547    550    559     1  0.0000000  0.6508444  3
    549    547    550    551     1  0.0000000  0.6508444  3
    549    547    550    552     1  0.0000000  0.6508444  3
    550    547    540    569     1  0.0000000  0.6508444  3
    551    550    559    568     1  0.0000000  1.0460000  1
    551    550    559    568     1  0.0000000  0.0000000  3
    551    550    559    560     1  0.0000000  0.6508444  3
    551    550    559    561     1  0.0000000  0.6508444  3
    552    550    559    568     1  0.0000000  1.0460000  1
    552    550    559    568     1  0.0000000  0.0000000  3
    552    550    559    560     1  0.0000000  0.6508444  3
    552    550    559    561     1  0.0000000  0.6508444  3
    553    541    540    569     1  0.0000000  0.6508444  3
    554    553    565   1061     1  0.0000000  1.0460000  1
    554    553    565   1061     1  0.0000000  0.0000000  3
    554    553    565    566     1  0.0000000  0.6508444  3
    554    553    565    567     1  0.0000000  0.6508444  3
    555    553    565   1061     1  0.0000000  1.0460000  1
    555    553    565   1061     1  0.0000000  0.0000000  3
    555    553    565    566     1  0.0000000  0.6508444  3
    555    553    565    567     1  0.0000000  0.6508444  3
    556    544    540    569     1  0.0000000  0.6508444  3
    557    556    562   1038     1  0.0000000  1.0460000  1
    557    556    562   1038     1  0.0000000  0.0000000  3
    557    556    562    563     1  0.0000000  0.6508444  3
    557    556    562    564     1  0.0000000  0.6508444  3
    558    556    562   1038     1  0.0000000  1.0460000  1
    558    556    562   1038     1  0.0000000  0.0000000  3
    558    556    562    563     1  0.0000000  0.6508444  3
    558    556    562    564     1  0.0000000  0.6508444  3
    562   1038   1034   1037     1  0.0000000  1.6038667  3
    563    562   1038   1034     1  0.0000000  1.6038667  3
    564    562   1038   1034     1  0.0000000  1.6038667  3
    565   1061   1057   1060     1  0.0000000  1.6038667  3
    566    565   1061   1057     1  0.0000000  1.6038667  3
    567    565   1061   1057     1  0.0000000  1.6038667  3
    570    571    583    584     1  0.0000000  0.6508444  3
    570    571    583    585     1  0.0000000  0.6508444  3
    570    574    586    587     1  0.0000000  0.6508444  3
    570    574    586    588     1  0.0000000  0.6508444  3
    570    577    580    581     1  0.0000000  0.6508444  3
    570    577    580    582     1  0.0000000  0.6508444  3
    571    570    574    575     1  0.0000000  0.6508444  3
    571    570    574    576     1  0.0000000  0.6508444  3
    571    570    577    578     1  0.0000000  0.6508444  3
    571    570    577    579     1  0.0000000  0.6508444  3
    571    583    595    596     1  0.0000000  0.6508444  3
    571    583    595    597     1  0.0000000  0.6508444  3
    572    571    570    574     1  0.0000000  0.6508444  3
    572    571    570    577     1  0.0000000  0.6508444  3
    572    571    570    599     1  0.0000000  0.6508444  3
    572    571    583    595     1  0.0000000  0.6508444  3
    572    571    583    584     1  0.0000000  0.6508444  3
    572    571    583    585     1  0.0000000  0.6508444  3
    573    571    570    574     1  0.0000000  0.6508444  3
    573    571    570    577     1  0.0000000  0.6508444  3
    573    571    570    599     1  0.0000000  0.6508444  3
    573    571    583    595     1  0.0000000  0.6508444  3
    573    571    583    584     1  0.0000000  0.6508444  3
    573    571    583    585     1  0.0000000  0.6508444  3
    574    570    577    578     1  0.0000000  0.6508444  3
    574    570    577    579     1  0.0000000  0.6508444  3
    574    586    592    593     1  0.0000000  0.6508444  3
    574    586    592    594     1  0.0000000  0.6508444  3
    575    574    570    577     1  0.0000000  0.6508444  3
    575    574    570    599     1  0.0000000  0.6508444  3
    575    574    586    592     1  0.0000000  0.6508444  3
    575    574    586    587     1  0.0000000  0.6508444  3
    575    574    586    588     1  0.0000000  0.6508444  3
    576    574    570    577     1  0.0000000  0.6508444  3
    576    574    570    599     1  0.0000000  0.6508444  3
    576    574    586    592     1  0.0000000  0.6508444  3
    576    574    586    587     1  0.0000000  0.6508444  3
    576    574    586    588     1  0.0000000  0.6508444  3
    577    580    589    590     1  0.0000000  0.6508444  3
    577    580    589    591     1  0.0000000  0.6508444  3
    578    577    570    599     1  0.0000000  0.6508444  3
    578    577    580    589     1  0.0000000  0.6508444  3
    578    577    580    581     1  0.0000000  0.6508444  3
    578    577    580    582     1  0.0000000  0.6508444  3
    579    577    570    599     1  0.0000000  0.6508444  3
    579    577    580    589     1  0.0000000  0.6508444  3
    579    577    580    581     1  0.0000000  0.6508444  3
    579    577    580    582     1  0.0000000  0.6508444  3
    580    577    570    599     1  0.0000000  0.6508444  3
    581    580    589    598     1  0.0000000  1.0460000  1
    581    580    589    598     1  0.0000000  0.0000000  3
    581    580    589    590     1  0.0000000  0.6508444  3
    581    580    589    591     1  0.0000000  0.6508444  3
    582    580    589    598     1  0.0000000  1.0460000  1
    582    580    589    598     1  0.0000000  0.0000000  3
    582    580    589    590     1  0.0000000  0.6508444  3
    582    580    589    591     1  0.0000000  0.6508444  3
    583    571    570    599     1  0.0000000  0.6508444  3
    584    583    595   1107     1  0.0000000  1.0460000  1
    584    583    595   1107     1  0.0000000  0.0000000  3
    584    583    595    596     1  0.0000000  0.6508444  3
    584    583    595    597     1  0.0000000  0.6508444  3
    585    583    595   1107     1  0.0000000  1.0460000  1
    585    583    595   1107     1  0.0000000  0.0000000  3
    585    583    595    596     1  0.0000000  0.6508444  3
    585    583    595    597     1  0.0000000  0.6508444  3
    586    574    570    599     1  0.0000000  0.6508444  3
    587    586    592   1084     1  0.0000000  1.0460000  1
    587    586    592   1084     1  0.0000000  0.0000000  3
    587    586    592    593     1  0.0000000  0.6508444  3
    587    586    592    594     1  0.0000000  0.6508444  3
    588    586    592   1084     1  0.0000000  1.0460000  1
    588    586    592   1084     1  0.0000000  0.0000000  3
    588    586    592    593     1  0.0000000  0.6508444  3
    588    586    592    594     1  0.0000000  0.6508444  3
    592   1084   1080   1083     1  0.0000000  1.6038667  3
    593    592   1084   1080     1  0.0000000  1.6038667  3
    594    592   1084   1080     1  0.0000000  1.6038667  3
    595   1107   1103   1106     1  0.0000000  1.6038667  3
    596    595   1107   1103     1  0.0000000  1.6038667  3
    597    595   1107   1103     1  0.0000000  1.6038667  3
    600    601    613    614     1  0.0000000  0.6508444  3
    600    601    613    615     1  0.0000000  0.6508444  3
    600    604    616    617     1  0.0000000  0.6508444  3
    600    604    616    618     1  0.0000000  0.6508444  3
    600    607    610    611     1  0.0000000  0.6508444  3
    600    607    610    612     1  0.0000000  0.6508444  3
    601    600    604    605     1  0.0000000  0.6508444  3
    601    600    604    606     1  0.0000000  0.6508444  3
    601    600    607    608     1  0.0000000  0.6508444  3
    601    600    607    609     1  0.0000000  0.6508444  3
    601    613    625    626     1  0.0000000  0.6508444  3
    601    613    625    627     1  0.0000000  0.6508444  3
    602    601    600    604     1  0.0000000  0.6508444  3
    602    601    600    607     1  0.0000000  0.6508444  3
    602    601    600    629     1  0.0000000  0.6508444  3
    602    601    613    625     1  0.0000000  0.6508444  3
    602    601    613    614     1  0.0000000  0.6508444  3
    602    601    613    615     1  0.0000000  0.6508444  3
    603    601    600    604     1  0.0000000  0.6508444  3
    603    601    600    607     1  0.0000000  0.6508444  3
    603    601    600    629     1  0.0000000  0.6508444  3
    603    601    613    625     1  0.0000000  0.6508444  3
    603    601    613    614     1  0.0000000  0.6508444  3
    603    601    613    615     1  0.0000000  0.6508444  3
    604    600    607    608     1  0.0000000  0.6508444  3
    604    600    607    609     1  0.0000000  0.6508444  3
    604    616    622    623     1  0.0000000  0.6508444  3
    604    616    622    624     1  0.0000000  0.6508444  3
    605    604    600    607     1  0.0000000  0.6508444  3
    605    604    600    629     1  0.0000000  0.6508444  3
    605    604    616    622     1  0.0000000  0.6508444  3
    605    604    616    617     1  0.0000000  0.6508444  3
    605    604    616    618     1  0.0000000  0.6508444  3
    606    604    600    607     1  0.0000000  0.6508444  3
    606    604    600    629     1  0.0000000  0.6508444  3
    606    604    616    622     1  0.0000000  0.6508444  3
    606    604    616    617     1  0.0000000  0.6508444  3
    606    604    616    618     1  0.0000000  0.6508444  3
    607    610    619    620     1  0.0000000  0.6508444  3
    607    610    619    621     1  0.0000000  0.6508444  3
    608    607    600    629     1  0.0000000  0.6508444  3
    608    607    610    619     1  0.0000000  0.6508444  3
    608    607    610    611     1  0.0000000  0.6508444  3
    608    607    610    612     1  0.0000000  0.6508444  3
    609    607    600    629     1  0.0000000  0.6508444  3
    609    607    610    619     1  0.0000000  0.6508444  3
    609    607    610    611     1  0.0000000  0.6508444  3
    609    607    610    612     1  0.0000000  0.6508444  3
    610    607    600    629     1  0.0000000  0.6508444  3
    611    610    619    628     1  0.0000000  1.0460000  1
    611    610    619    628     1  0.0000000  0.0000000  3
    611    610    619    620     1  0.0000000  0.6508444  3
    611    610    619    621     1  0.0000000  0.6508444  3
    612    610    619    628     1  0.0000000  1.0460000  1
    612    610    619    628     1  0.0000000  0.0000000  3
    612    610    619    620     1  0.0000000  0.6508444  3
    612    610    619    621     1  0.0000000  0.6508444  3
    613    601    600    629     1  0.0000000  0.6508444  3
    614    613    625   1153     1  0.0000000  1.0460000  1
    614    613    625   1153     1  0.0000000  0.0000000  3
    614    613    625    626     1  0.0000000  0.6508444  3
    614    613    625    627     1  0.0000000  0.6508444  3
    615    613    625   1153     1  0.0000000  1.0460000  1
    615    613    625   1153     1  0.0000000  0.0000000  3
    615    613    625    626     1  0.0000000  0.6508444  3
    615    613    625    627     1  0.0000000  0.6508444  3
    616    604    600    629     1  0.0000000  0.6508444  3
    617    616    622   1130     1  0.0000000  1.0460000  1
    617    616    622   1130     1  0.0000000  0.0000000  3
    617    616    622    623     1  0.0000000  0.6508444  3
    617    616    622    624     1  0.0000000  0.6508444  3
    618    616    622   1130     1  0.0000000  1.0460000  1
    618    616    622   1130     1  0.0000000  0.0000000  3
    618    616    622    623     1  0.0000000  0.6508444  3
    618    616    622    624     1  0.0000000  0.6508444  3
    622   1130   1126   1129     1  0.0000000  1.6038667  3
    623    622   1130   1126     1  0.0000000  1.6038667  3
    624    622   1130   1126     1  0.0000000  1.6038667  3
    625   1153   1149   1152     1  0.0000000  1.6038667  3
    626    625   1153   1149     1  0.0000000  1.6038667  3
    627    625   1153   1149     1  0.0000000  1.6038667  3
    630    631    643    644     1  0.0000000  0.6508444  3
    630    631    643    645     1  0.0000000  0.6508444  3
    630    634    646    647     1  0.0000000  0.6508444  3
    630    634    646    648     1  0.0000000  0.6508444  3
    630    637    640    641     1  0.0000000  0.6508444  3
    630    637    640    642     1  0.0000000  0.6508444  3
    631    630    634    635     1  0.0000000  0.6508444  3
    631    630    634    636     1  0.0000000  0.6508444  3
    631    630    637    638     1  0.0000000  0.6508444  3
    631    630    637    639     1  0.0000000  0.6508444  3
    631    643    655    656     1  0.0000000  0.6508444  3
    631    643    655    657     1  0.0000000  0.6508444  3
    632    631    630    634     1  0.0000000  0.6508444  3
    632    631    630    637     1  0.0000000  0.6508444  3
    632    631    630    659     1  0.0000000  0.6508444  3
    632    631    643    655     1  0.0000000  0.6508444  3
    632    631    643    644     1  0.0000000  0.6508444  3
    632    631    643    645     1  0.0000000  0.6508444  3
    633    631    630    634     1  0.0000000  0.6508444  3
    633    631    630    637     1  0.0000000  0.6508444  3
    633    631    630    659     1  0.0000000  0.6508444  3
    633    631    643    655     1  0.0000000  0.6508444  3
    633    631    643    644     1  0.0000000  0.6508444  3
    633    631    643    645     1  0.0000000  0.6508444  3
    634    630    637    638     1  0.0000000  0.6508444  3
    634    630    637    639     1  0.0000000  0.6508444  3
    634    646    652    653     1  0.0000000  0.6508444  3
    634    646    652    654     1  0.0000000  0.6508444  3
    635    634    630    637     1  0.0000000  0.6508444  3
    635    634    630    659     1  0.0000000  0.6508444  3
    635    634    646    652     1  0.0000000  0.6508444  3
    635    634    646    647     1  0.0000000  0.6508444  3
    635    634    646    648     1  0.0000000  0.6508444  3
    636    634    630    637     1  0.0000000  0.6508444  3
    636    634    630    659     1  0.0000000  0.6508444  3
    636    634    646    652     1  0.0000000  0.6508444  3
    636    634    646    647     1  0.0000000  0.6508444  3
    636    634    646    648     1  0.0000000  0.6508444  3
    637    640    649    650     1  0.0000000  0.6508444  3
    637    640    649    651     1  0.0000000  0.6508444  3
    638    637    630    659     1  0.0000000  0.6508444  3
    638    637    640    649     1  0.0000000  0.6508444  3
    638    637    640    641     1  0.0000000  0.6508444  3
    638    637    640    642     1  0.0000000  0.6508444  3
    639    637    630    659     1  0.0000000  0.6508444  3
    639    637    640    649     1  0.0000000  0.6508444  3
    639    637    640    641     1  0.0000000  0.6508444  3
    639    637    640    642     1  0.0000000  0.6508444  3
    640    637    630    659     1  0.0000000  0.6508444  3
    641    640    649    658     1  0.0000000  1.0460000  1
    641    640    649    658     1  0.0000000  0.0000000  3
    641    640    649    650     1  0.0000000  0.6508444  3
    641    640    649    651     1  0.0000000  0.6508444  3
    642    640    649    658     1  0.0000000  1.0460000  1
    642    640    649    658     1  0.0000000  0.0000000  3
    642    640    649    650     1  0.0000000  0.6508444  3
    642    640    649    651     1  0.0000000  0.6508444  3
    643    631    630    659     1  0.0000000  0.6508444  3
    644    643    655   1199     1  0.0000000  1.0460000  1
    644    643    655   1199     1  0.0000000  0.0000000  3
    644    643    655    656     1  0.0000000  0.6508444  3
    644    643    655    657     1  0.0000000  0.6508444  3
    645    643    655   1199     1  0.0000000  1.0460000  1
    645    643    655   1199     1  0.0000000  0.0000000  3
    645    643    655    656     1  0.0000000  0.6508444  3
    645    643    655    657     1  0.0000000  0.6508444  3
    646    634    630    659     1  0.0000000  0.6508444  3
    647    646    652   1176     1  0.0000000  1.0460000  1
    647    646    652   1176     1  0.0000000  0.0000000  3
    647    646    652    653     1  0.0000000  0.6508444  3
    647    646    652    654     1  0.0000000  0.6508444  3
    648    646    652   1176     1  0.0000000  1.0460000  1
    648    646    652   1176     1  0.0000000  0.0000000  3
    648    646    652    653     1  0.0000000  0.6508444  3
    648    646    652    654     1  0.0000000  0.6508444  3
    652   1176   1172   1175     1  0.0000000  1.6038667  3
    653    652   1176   1172     1  0.0000000  1.6038667  3
    654    652   1176   1172     1  0.0000000  1.6038667  3
    655   1199   1195   1198     1  0.0000000  1.6038667  3
    656    655   1199   1195     1  0.0000000  1.6038667  3
    657    655   1199   1195     1  0.0000000  1.6038667  3
    660    661    664    668     1  0.0000000  0.6508444  3
    660    661    673    676     1  0.0000000  1.0460000  1
    660    661    673    676     1  0.0000000  0.6694400  3
    660    674    680    681     1  0.0000000  1.0460000  1
    660    674    680    681     1  0.0000000  0.6694400  3
    660    682    666    669     1  0.0000000  1.6038667  3
    661    660    674    678     1  0.0000000  0.6508444  3
    661    660    674    679     1  0.0000000  0.6508444  3
    661    664    665    667     1  0.0000000  0.6508444  3
    661    664    672    675     1  0.0000000  1.0460000  1
    661    664    672    675     1  0.0000000  0.6694400  3
    662    660    661    664     1  0.0000000  0.6508444  3
    662    660    661    673     1  0.0000000  1.0460000  1
    662    660    661    673     1  0.0000000  0.0000000  3
    662    660    661    663     1  0.0000000  0.6508444  3
    662    660    674    680     1  0.0000000  1.0460000  1
    662    660    674    680     1  0.0000000  0.0000000  3
    662    660    674    678     1  0.0000000  0.6508444  3
    662    660    674    679     1  0.0000000  0.6508444  3
    662    660    682    666     1  0.0000000  1.6038667  3
    663    661    660    674     1  0.0000000  0.6508444  3
    663    661    660    682     1  0.0000000  1.0460000  1
    663    661    660    682     1  0.0000000  0.0000000  3
    663    661    664    665     1  0.0000000  0.6508444  3
    663    661    664    672     1  0.0000000  1.0460000  1
    663    661    664    672     1  0.0000000  0.0000000  3
    663    661    664    668     1  0.0000000  0.6508444  3
    663    661    673    676     1  0.0000000  0.6973333  3
    664    661    673    676     1  0.0000000  1.0460000  1
    664    661    673    676     1  0.0000000  0.6694400  3
    664    665    666    669     1  0.0000000  0.6508444  3
    664    665    671    677     1  0.0000000  1.0460000  1
    664    665    671    677     1  0.0000000  0.6694400  3
    665    664    672    675     1  0.0000000  1.0460000  1
    665    664    672    675     1  0.0000000  0.6694400  3
    666    665    664    668     1  0.0000000  0.6508444  3
    666    665    671    677     1  0.0000000  1.0460000  1
    666    665    671    677     1  0.0000000  0.6694400  3
    667    665    664    672     1  0.0000000  1.0460000  1
    667    665    664    672     1  0.0000000  0.0000000  3
    667    665    664    668     1  0.0000000  0.6508444  3
    667    665    666    670     1  0.0000000  1.0460000  1
    667    665    666    670     1  0.0000000  0.0000000  3
    667    665    666    682     1  0.0000000  1.0460000  1
    667    665    666    682     1  0.0000000  0.0000000  3
    667    665    666    669     1  0.0000000  0.6508444  3
    667    665    671    677     1  0.0000000  0.6973333  3
    668    664    661    673     1  0.0000000  1.0460000  1
    668    664    661    673     1  0.0000000  0.0000000  3
    668    664    665    671     1  0.0000000  1.0460000  1
    668    664    665    671     1  0.0000000  0.0000000  3
    668    664    672    675     1  0.0000000  0.6973333  3
    669    666    665    671     1  0.0000000  0.6508444  3
    678    674    660    682     1  0.0000000  1.0460000  1
    678    674    660    682     1  0.0000000  0.0000000  3
    678    674    680    681     1  0.0000000  0.6973333  3
    679    674    660    682     1  0.0000000  1.0460000  1
    679    674    660    682     1  0.0000000  0.0000000  3
    679    674    680    681     1  0.0000000  0.6973333  3
    683    684    687    691     1  0.0000000  0.6508444  3
    683    684    696    699     1  0.0000000  1.0460000  1
    683    684    696    699     1  0.0000000  0.6694400  3
    683    697    703    704     1  0.0000000  1.0460000  1
    683    697    703    704     1  0.0000000  0.6694400  3
    683    705    689    692     1  0.0000000  1.6038667  3
    684    687    688    690     1  0.0000000  0.6508444  3
    684    687    695    698     1  0.0000000  1.0460000  1
    684    687    695    698     1  0.0000000  0.6694400  3
    684    683    697    701     1  0.0000000  0.6508444  3
    684    683    697    702     1  0.0000000  0.6508444  3
    685    683    684    687     1  0.0000000  0.6508444  3
    685    683    684    696     1  0.0000000  1.0460000  1
    685    683    684    696     1  0.0000000  0.0000000  3
    685    683    684    686     1  0.0000000  0.6508444  3
    685    683    697    703     1  0.0000000  1.0460000  1
    685    683    697    703     1  0.0000000  0.0000000  3
    685    683    697    701     1  0.0000000  0.6508444  3
    685    683    697    702     1  0.0000000  0.6508444  3
    685    683    705    689     1  0.0000000  1.6038667  3
    686    684    687    688     1  0.0000000  0.6508444  3
    686    684    687    695     1  0.0000000  1.0460000  1
    686    684    687    695     1  0.0000000  0.0000000  3
    686    684    687    691     1  0.0000000  0.6508444  3
    686    684    696    699     1  0.0000000  0.6973333  3
    686    684    683    697     1  0.0000000  0.6508444  3
    686    684    683    705     1  0.0000000  1.0460000  1
    686    684    683    705     1  0.0000000  0.0000000  3
    687    688    689    692     1  0.0000000  0.6508444  3
    687    688    694    700     1  0.0000000  1.0460000  1
    687    688    694    700     1  0.0000000  0.6694400  3
    687    684    696    699     1  0.0000000  1.0460000  1
    687    684    696    699     1  0.0000000  0.6694400  3
    688    687    695    698     1  0.0000000  1.0460000  1
    688    687    695    698     1  0.0000000  0.6694400  3
    689    688    694    700     1  0.0000000  1.0460000  1
    689    688    694    700     1  0.0000000  0.6694400  3
    689    688    687    691     1  0.0000000  0.6508444  3
    690    688    689    693     1  0.0000000  1.0460000  1
    690    688    689    693     1  0.0000000  0.0000000  3
    690    688    689    705     1  0.0000000  1.0460000  1
    690    688    689    705     1  0.0000000  0.0000000  3
    690    688    689    692     1  0.0000000  0.6508444  3
    690    688    694    700     1  0.0000000  0.6973333  3
    690    688    687    695     1  0.0000000  1.0460000  1
    690    688    687    695     1  0.0000000  0.0000000  3
    690    688    687    691     1  0.0000000  0.6508444  3
    691    687    688    694     1  0.0000000  1.0460000  1
    691    687    688    694     1  0.0000000  0.0000000  3
    691    687    695    698     1  0.0000000  0.6973333  3
    691    687    684    696     1  0.0000000  1.0460000  1
    691    687    684    696     1  0.0000000  0.0000000  3
    692    689    688    694     1  0.0000000  0.6508444  3
    701    697    703    704     1  0.0000000  0.6973333  3
    701    697    683    705     1  0.0000000  1.0460000  1
    701    697    683    705     1  0.0000000  0.0000000  3
    702    697    703    704     1  0.0000000  0.6973333  3
    702    697    683    705     1  0.0000000  1.0460000  1
    702    697    683    705     1  0.0000000  0.0000000  3
    706    707    710    714     1  0.0000000  0.6508444  3
    706    707    719    722     1  0.0000000  1.0460000  1
    706    707    719    722     1  0.0000000  0.6694400  3
    706    720    726    727     1  0.0000000  1.0460000  1
    706    720    726    727     1  0.0000000  0.6694400  3
    706    728    712    715     1  0.0000000  1.6038667  3
    707    706    720    724     1  0.0000000  0.6508444  3
    707    706    720    725     1  0.0000000  0.6508444  3
    707    710    711    713     1  0.0000000  0.6508444  3
    707    710    718    721     1  0.0000000  1.0460000  1
    707    710    718    721     1  0.0000000  0.6694400  3
    708    706    707    710     1  0.0000000  0.6508444  3
    708    706    707    719     1  0.0000000  1.0460000  1
    708    706    707    719     1  0.0000000  0.0000000  3
    708    706    707    709     1  0.0000000  0.6508444  3
    708    706    720    726     1  0.0000000  1.0460000  1
    708    706    720    726     1  0.0000000  0.0000000  3
    708    706    720    724     1  0.0000000  0.6508444  3
    708    706    720    725     1  0.0000000  0.6508444  3
    708    706    728    712     1  0.0000000  1.6038667  3
    709    707    706    720     1  0.0000000  0.6508444  3
    709    707    706    728     1  0.0000000  1.0460000  1
    709    707    706    728     1  0.0000000  0.0000000  3
    709    707    710    711     1  0.0000000  0.6508444  3
    709    707    710    718     1  0.0000000  1.0460000  1
    709    707    710    718     1  0.0000000  0.0000000  3
    709    707    710    714     1  0.0000000  0.6508444  3
    709    707    719    722     1  0.0000000  0.6973333  3
    710    707    719    722     1  0.0000000  1.0460000  1
    710    707    719    722     1  0.0000000  0.6694400  3
    710    711    712    715     1  0.0000000  0.6508444  3
    710    711    717    723     1  0.0000000  1.0460000  1
    710    711    717    723     1  0.0000000  0.6694400  3
    711    710    718    721     1  0.0000000  1.0460000  1
    711    710    718    721     1  0.0000000  0.6694400  3
    712    711    710    714     1  0.0000000  0.6508444  3
    712    711    717    723     1  0.0000000  1.0460000  1
    712    711    717    723     1  0.0000000  0.6694400  3
    713    711    710    718     1  0.0000000  1.0460000  1
    713    711    710    718     1  0.0000000  0.0000000  3
    713    711    710    714     1  0.0000000  0.6508444  3
    713    711    712    716     1  0.0000000  1.0460000  1
    713    711    712    716     1  0.0000000  0.0000000  3
    713    711    712    728     1  0.0000000  1.0460000  1
    713    711    712    728     1  0.0000000  0.0000000  3
    713    711    712    715     1  0.0000000  0.6508444  3
    713    711    717    723     1  0.0000000  0.6973333  3
    714    710    707    719     1  0.0000000  1.0460000  1
    714    710    707    719     1  0.0000000  0.0000000  3
    714    710    711    717     1  0.0000000  1.0460000  1
    714    710    711    717     1  0.0000000  0.0000000  3
    714    710    718    721     1  0.0000000  0.6973333  3
    715    712    711    717     1  0.0000000  0.6508444  3
    724    720    706    728     1  0.0000000  1.0460000  1
    724    720    706    728     1  0.0000000  0.0000000  3
    724    720    726    727     1  0.0000000  0.6973333  3
    725    720    706    728     1  0.0000000  1.0460000  1
    725    720    706    728     1  0.0000000  0.0000000  3
    725    720    726    727     1  0.0000000  0.6973333  3
    729    730    733    737     1  0.0000000  0.6508444  3
    729    730    742    745     1  0.0000000  1.0460000  1
    729    730    742    745     1  0.0000000  0.6694400  3
    729    743    749    750     1  0.0000000  1.0460000  1
    729    743    749    750     1  0.0000000  0.6694400  3
    729    751    735    738     1  0.0000000  1.6038667  3
    730    733    734    736     1  0.0000000  0.6508444  3
    730    733    741    744     1  0.0000000  1.0460000  1
    730    733    741    744     1  0.0000000  0.6694400  3
    730    729    743    747     1  0.0000000  0.6508444  3
    730    729    743    748     1  0.0000000  0.6508444  3
    731    729    730    733     1  0.0000000  0.6508444  3
    731    729    730    742     1  0.0000000  1.0460000  1
    731    729    730    742     1  0.0000000  0.0000000  3
    731    729    730    732     1  0.0000000  0.6508444  3
    731    729    743    749     1  0.0000000  1.0460000  1
    731    729    743    749     1  0.0000000  0.0000000  3
    731    729    743    747     1  0.0000000  0.6508444  3
    731    729    743    748     1  0.0000000  0.6508444  3
    731    729    751    735     1  0.0000000  1.6038667  3
    732    730    733    734     1  0.0000000  0.6508444  3
    732    730    733    741     1  0.0000000  1.0460000  1
    732    730    733    741     1  0.0000000  0.0000000  3
    732    730    733    737     1  0.0000000  0.6508444  3
    732    730    742    745     1  0.0000000  0.6973333  3
    732    730    729    743     1  0.0000000  0.6508444  3
    732    730    729    751     1  0.0000000  1.0460000  1
    732    730    729    751     1  0.0000000  0.0000000  3
    733    734    735    738     1  0.0000000  0.6508444  3
    733    734    740    746     1  0.0000000  1.0460000  1
    733    734    740    746     1  0.0000000  0.6694400  3
    733    730    742    745     1  0.0000000  1.0460000  1
    733    730    742    745     1  0.0000000  0.6694400  3
    734    733    741    744     1  0.0000000  1.0460000  1
    734    733    741    744     1  0.0000000  0.6694400  3
    735    734    740    746     1  0.0000000  1.0460000  1
    735    734    740    746     1  0.0000000  0.6694400  3
    735    734    733    737     1  0.0000000  0.6508444  3
    736    734    735    739     1  0.0000000  1.0460000  1
    736    734    735    739     1  0.0000000  0.0000000  3
    736    734    735    751     1  0.0000000  1.0460000  1
    736    734    735    751     1  0.0000000  0.0000000  3
    736    734    735    738     1  0.0000000  0.6508444  3
    736    734    740    746     1  0.0000000  0.6973333  3
    736    734    733    741     1  0.0000000  1.0460000  1
    736    734    733    741     1  0.0000000  0.0000000  3
    736    734    733    737     1  0.0000000  0.6508444  3
    737    733    734    740     1  0.0000000  1.0460000  1
    737    733    734    740     1  0.0000000  0.0000000  3
    737    733    741    744     1  0.0000000  0.6973333  3
    737    733    730    742     1  0.0000000  1.0460000  1
    737    733    730    742     1  0.0000000  0.0000000  3
    738    735    734    740     1  0.0000000  0.6508444  3
    747    743    749    750     1  0.0000000  0.6973333  3
    747    743    729    751     1  0.0000000  1.0460000  1
    747    743    729    751     1  0.0000000  0.0000000  3
    748    743    749    750     1  0.0000000  0.6973333  3
    748    743    729    751     1  0.0000000  1.0460000  1
    748    743    729    751     1  0.0000000  0.0000000  3
    752    753    756    760     1  0.0000000  0.6508444  3
    752    753    765    768     1  0.0000000  1.0460000  1
    752    753    765    768     1  0.0000000  0.6694400  3
    752    766    772    773     1  0.0000000  1.0460000  1
    752    766    772    773     1  0.0000000  0.6694400  3
    752    774    758    761     1  0.0000000  1.6038667  3
    753    752    766    770     1  0.0000000  0.6508444  3
    753    752    766    771     1  0.0000000  0.6508444  3
    753    756    757    759     1  0.0000000  0.6508444  3
    753    756    764    767     1  0.0000000  1.0460000  1
    753    756    764    767     1  0.0000000  0.6694400  3
    754    752    753    756     1  0.0000000  0.6508444  3
    754    752    753    765     1  0.0000000  1.0460000  1
    754    752    753    765     1  0.0000000  0.0000000  3
    754    752    753    755     1  0.0000000  0.6508444  3
    754    752    766    772     1  0.0000000  1.0460000  1
    754    752    766    772     1  0.0000000  0.0000000  3
    754    752    766    770     1  0.0000000  0.6508444  3
    754    752    766    771     1  0.0000000  0.6508444  3
    754    752    774    758     1  0.0000000  1.6038667  3
    755    753    752    766     1  0.0000000  0.6508444  3
    755    753    752    774     1  0.0000000  1.0460000  1
    755    753    752    774     1  0.0000000  0.0000000  3
    755    753    756    757     1  0.0000000  0.6508444  3
    755    753    756    764     1  0.0000000  1.0460000  1
    755    753    756    764     1  0.0000000  0.0000000  3
    755    753    756    760     1  0.0000000  0.6508444  3
    755    753    765    768     1  0.0000000  0.6973333  3
    756    753    765    768     1  0.0000000  1.0460000  1
    756    753    765    768     1  0.0000000  0.6694400  3
    756    757    758    761     1  0.0000000  0.6508444  3
    756    757    763    769     1  0.0000000  1.0460000  1
    756    757    763    769     1  0.0000000  0.6694400  3
    757    756    764    767     1  0.0000000  1.0460000  1
    757    756    764    767     1  0.0000000  0.6694400  3
    758    757    756    760     1  0.0000000  0.6508444  3
    758    757    763    769     1  0.0000000  1.0460000  1
    758    757    763    769     1  0.0000000  0.6694400  3
    759    757    756    764     1  0.0000000  1.0460000  1
    759    757    756    764     1  0.0000000  0.0000000  3
    759    757    756    760     1  0.0000000  0.6508444  3
    759    757    758    762     1  0.0000000  1.0460000  1
    759    757    758    762     1  0.0000000  0.0000000  3
    759    757    758    774     1  0.0000000  1.0460000  1
    759    757    758    774     1  0.0000000  0.0000000  3
    759    757    758    761     1  0.0000000  0.6508444  3
    759    757    763    769     1  0.0000000  0.6973333  3
    760    756    753    765     1  0.0000000  1.0460000  1
    760    756    753    765     1  0.0000000  0.0000000  3
    760    756    757    763     1  0.0000000  1.0460000  1
    760    756    757    763     1  0.0000000  0.0000000  3
    760    756    764    767     1  0.0000000  0.6973333  3
    761    758    757    763     1  0.0000000  0.6508444  3
    770    766    752    774     1  0.0000000  1.0460000  1
    770    766    752    774     1  0.0000000  0.0000000  3
    770    766    772    773     1  0.0000000  0.6973333  3
    771    766    752    774     1  0.0000000  1.0460000  1
    771    766    752    774     1  0.0000000  0.0000000  3
    771    766    772    773     1  0.0000000  0.6973333  3
    775    776    779    783     1  0.0000000  0.6508444  3
    775    776    788    791     1  0.0000000  1.0460000  1
    775    776    788    791     1  0.0000000  0.6694400  3
    775    789    795    796     1  0.0000000  1.0460000  1
    775    789    795    796     1  0.0000000  0.6694400  3
    775    797    781    784     1  0.0000000  1.6038667  3
    776    779    780    782     1  0.0000000  0.6508444  3
    776    779    787    790     1  0.0000000  1.0460000  1
    776    779    787    790     1  0.0000000  0.6694400  3
    776    775    789    793     1  0.0000000  0.6508444  3
    776    775    789    794     1  0.0000000  0.6508444  3
    777    775    776    779     1  0.0000000  0.6508444  3
    777    775    776    788     1  0.0000000  1.0460000  1
    777    775    776    788     1  0.0000000  0.0000000  3
    777    775    776    778     1  0.0000000  0.6508444  3
    777    775    789    795     1  0.0000000  1.0460000  1
    777    775    789    795     1  0.0000000  0.0000000  3
    777    775    789    793     1  0.0000000  0.6508444  3
    777    775    789    794     1  0.0000000  0.6508444  3
    777    775    797    781     1  0.0000000  1.6038667  3
    778    776    779    780     1  0.0000000  0.6508444  3
    778    776    779    787     1  0.0000000  1.0460000  1
    778    776    779    787     1  0.0000000  0.0000000  3
    778    776    779    783     1  0.0000000  0.6508444  3
    778    776    788    791     1  0.0000000  0.6973333  3
    778    776    775    789     1  0.0000000  0.6508444  3
    778    776    775    797     1  0.0000000  1.0460000  1
    778    776    775    797     1  0.0000000  0.0000000  3
    779    780    781    784     1  0.0000000  0.6508444  3
    779    780    786    792     1  0.0000000  1.0460000  1
    779    780    786    792     1  0.0000000  0.6694400  3
    779    776    788    791     1  0.0000000  1.0460000  1
    779    776    788    791     1  0.0000000  0.6694400  3
    780    779    787    790     1  0.0000000  1.0460000  1
    780    779    787    790     1  0.0000000  0.6694400  3
    781    780    786    792     1  0.0000000  1.0460000  1
    781    780    786    792     1  0.0000000  0.6694400  3
    781    780    779    783     1  0.0000000  0.6508444  3
    782    780    781    785     1  0.0000000  1.0460000  1
    782    780    781    785     1  0.0000000  0.0000000  3
    782    780    781    797     1  0.0000000  1.0460000  1
    782    780    781    797     1  0.0000000  0.0000000  3
    782    780    781    784     1  0.0000000  0.6508444  3
    782    780    786    792     1  0.0000000  0.6973333  3
    782    780    779    787     1  0.0000000  1.0460000  1
    782    780    779    787     1  0.0000000  0.0000000  3
    782    780    779    783     1  0.0000000  0.6508444  3
    783    779    780    786     1  0.0000000  1.0460000  1
    783    779    780    786     1  0.0000000  0.0000000  3
    783    779    787    790     1  0.0000000  0.6973333  3
    783    779    776    788     1  0.0000000  1.0460000  1
    783    779    776    788     1  0.0000000  0.0000000  3
    784    781    780    786     1  0.0000000  0.6508444  3
    793    789    795    796     1  0.0000000  0.6973333  3
    793    789    775    797     1  0.0000000  1.0460000  1
    793    789    775    797     1  0.0000000  0.0000000  3
    794    789    795    796     1  0.0000000  0.6973333  3
    794    789    775    797     1  0.0000000  1.0460000  1
    794    789    775    797     1  0.0000000  0.0000000  3
    798    799    802    806     1  0.0000000  0.6508444  3
    798    799    811    814     1  0.0000000  1.0460000  1
    798    799    811    814     1  0.0000000  0.6694400  3
    798    812    818    819     1  0.0000000  1.0460000  1
    798    812    818    819     1  0.0000000  0.6694400  3
    798    820    804    807     1  0.0000000  1.6038667  3
    799    798    812    816     1  0.0000000  0.6508444  3
    799    798    812    817     1  0.0000000  0.6508444  3
    799    802    803    805     1  0.0000000  0.6508444  3
    799    802    810    813     1  0.0000000  1.0460000  1
    799    802    810    813     1  0.0000000  0.6694400  3
    800    798    799    802     1  0.0000000  0.6508444  3
    800    798    799    811     1  0.0000000  1.0460000  1
    800    798    799    811     1  0.0000000  0.0000000  3
    800    798    799    801     1  0.0000000  0.6508444  3
    800    798    812    818     1  0.0000000  1.0460000  1
    800    798    812    818     1  0.0000000  0.0000000  3
    800    798    812    816     1  0.0000000  0.6508444  3
    800    798    812    817     1  0.0000000  0.6508444  3
    800    798    820    804     1  0.0000000  1.6038667  3
    801    799    798    812     1  0.0000000  0.6508444  3
    801    799    798    820     1  0.0000000  1.0460000  1
    801    799    798    820     1  0.0000000  0.0000000  3
    801    799    802    803     1  0.0000000  0.6508444  3
    801    799    802    810     1  0.0000000  1.0460000  1
    801    799    802    810     1  0.0000000  0.0000000  3
    801    799    802    806     1  0.0000000  0.6508444  3
    801    799    811    814     1  0.0000000  0.6973333  3
    802    799    811    814     1  0.0000000  1.0460000  1
    802    799    811    814     1  0.0000000  0.6694400  3
    802    803    804    807     1  0.0000000  0.6508444  3
    802    803    809    815     1  0.0000000  1.0460000  1
    802    803    809    815     1  0.0000000  0.6694400  3
    803    802    810    813     1  0.0000000  1.0460000  1
    803    802    810    813     1  0.0000000  0.6694400  3
    804    803    802    806     1  0.0000000  0.6508444  3
    804    803    809    815     1  0.0000000  1.0460000  1
    804    803    809    815     1  0.0000000  0.6694400  3
    805    803    802    810     1  0.0000000  1.0460000  1
    805    803    802    810     1  0.0000000  0.0000000  3
    805    803    802    806     1  0.0000000  0.6508444  3
    805    803    804    808     1  0.0000000  1.0460000  1
    805    803    804    808     1  0.0000000  0.0000000  3
    805    803    804    820     1  0.0000000  1.0460000  1
    805    803    804    820     1  0.0000000  0.0000000  3
    805    803    804    807     1  0.0000000  0.6508444  3
    805    803    809    815     1  0.0000000  0.6973333  3
    806    802    799    811     1  0.0000000  1.0460000  1
    806    802    799    811     1  0.0000000  0.0000000  3
    806    802    803    809     1  0.0000000  1.0460000  1
    806    802    803    809     1  0.0000000  0.0000000  3
    806    802    810    813     1  0.0000000  0.6973333  3
    807    804    803    809     1  0.0000000  0.6508444  3
    816    812    798    820     1  0.0000000  1.0460000  1
    816    812    798    820     1  0.0000000  0.0000000  3
    816    812    818    819     1  0.0000000  0.6973333  3
    817    812    798    820     1  0.0000000  1.0460000  1
    817    812    798    820     1  0.0000000  0.0000000  3
    817    812    818    819     1  0.0000000  0.6973333  3
    821    822    825    829     1  0.0000000  0.6508444  3
    821    822    834    837     1  0.0000000  1.0460000  1
    821    822    834    837     1  0.0000000  0.6694400  3
    821    835    841    842     1  0.0000000  1.0460000  1
    821    835    841    842     1  0.0000000  0.6694400  3
    821    843    827    830     1  0.0000000  1.6038667  3
    822    825    826    828     1  0.0000000  0.6508444  3
    822    825    833    836     1  0.0000000  1.0460000  1
    822    825    833    836     1  0.0000000  0.6694400  3
    822    821    835    839     1  0.0000000  0.6508444  3
    822    821    835    840     1  0.0000000  0.6508444  3
    823    821    822    825     1  0.0000000  0.6508444  3
    823    821    822    834     1  0.0000000  1.0460000  1
    823    821    822    834     1  0.0000000  0.0000000  3
    823    821    822    824     1  0.0000000  0.6508444  3
    823    821    835    841     1  0.0000000  1.0460000  1
    823    821    835    841     1  0.0000000  0.0000000  3
    823    821    835    839     1  0.0000000  0.6508444  3
    823    821    835    840     1  0.0000000  0.6508444  3
    823    821    843    827     1  0.0000000  1.6038667  3
    824    822    825    826     1  0.0000000  0.6508444  3
    824    822    825    833     1  0.0000000  1.0460000  1
    824    822    825    833     1  0.0000000  0.0000000  3
    824    822    825    829     1  0.0000000  0.6508444  3
    824    822    834    837     1  0.0000000  0.6973333  3
    824    822    821    835     1  0.0000000  0.6508444  3
    824    822    821    843     1  0.0000000  1.0460000  1
    824    822    821    843     1  0.0000000  0.0000000  3
    825    826    827    830     1  0.0000000  0.6508444  3
    825    826    832    838     1  0.0000000  1.0460000  1
    825    826    832    838     1  0.0000000  0.6694400  3
    825    822    834    837     1  0.0000000  1.0460000  1
    825    822    834    837     1  0.0000000  0.6694400  3
    826    825    833    836     1  0.0000000  1.0460000  1
    826    825    833    836     1  0.0000000  0.6694400  3
    827    826    832    838     1  0.0000000  1.0460000  1
    827    826    832    838     1  0.0000000  0.6694400  3
    827    826    825    829     1  0.0000000  0.6508444  3
    828    826    827    831     1  0.0000000  1.0460000  1
    828    826    827    831     1  0.0000000  0.0000000  3
    828    826    827    843     1  0.0000000  1.0460000  1
    828    826    827    843     1  0.0000000  0.0000000  3
    828    826    827    830     1  0.0000000  0.6508444  3
    828    826    832    838     1  0.0000000  0.6973333  3
    828    826    825    833     1  0.0000000  1.0460000  1
    828    826    825    833     1  0.0000000  0.0000000  3
    828    826    825    829     1  0.0000000  0.6508444  3
    829    825    826    832     1  0.0000000  1.0460000  1
    829    825    826    832     1  0.0000000  0.0000000  3
    829    825    833    836     1  0.0000000  0.6973333  3
    829    825    822    834     1  0.0000000  1.0460000  1
    829    825    822    834     1  0.0000000  0.0000000  3
    830    827    826    832     1  0.0000000  0.6508444  3
    839    835    841    842     1  0.0000000  0.6973333  3
    839    835    821    843     1  0.0000000  1.0460000  1
    839    835    821    843     1  0.0000000  0.0000000  3
    840    835    841    842     1  0.0000000  0.6973333  3
    840    835    821    843     1  0.0000000  1.0460000  1
    840    835    821    843     1  0.0000000  0.0000000  3
    844    845    848    852     1  0.0000000  0.6508444  3
    844    845    857    860     1  0.0000000  1.0460000  1
    844    845    857    860     1  0.0000000  0.6694400  3
    844    858    864    865     1  0.0000000  1.0460000  1
    844    858    864    865     1  0.0000000  0.6694400  3
    844    866    850    853     1  0.0000000  1.6038667  3
    845    844    858    862     1  0.0000000  0.6508444  3
    845    844    858    863     1  0.0000000  0.6508444  3
    845    848    849    851     1  0.0000000  0.6508444  3
    845    848    856    859     1  0.0000000  1.0460000  1
    845    848    856    859     1  0.0000000  0.6694400  3
    846    844    845    848     1  0.0000000  0.6508444  3
    846    844    845    857     1  0.0000000  1.0460000  1
    846    844    845    857     1  0.0000000  0.0000000  3
    846    844    845    847     1  0.0000000  0.6508444  3
    846    844    858    864     1  0.0000000  1.0460000  1
    846    844    858    864     1  0.0000000  0.0000000  3
    846    844    858    862     1  0.0000000  0.6508444  3
    846    844    858    863     1  0.0000000  0.6508444  3
    846    844    866    850     1  0.0000000  1.6038667  3
    847    845    844    858     1  0.0000000  0.6508444  3
    847    845    844    866     1  0.0000000  1.0460000  1
    847    845    844    866     1  0.0000000  0.0000000  3
    847    845    848    849     1  0.0000000  0.6508444  3
    847    845    848    856     1  0.0000000  1.0460000  1
    847    845    848    856     1  0.0000000  0.0000000  3
    847    845    848    852     1  0.0000000  0.6508444  3
    847    845    857    860     1  0.0000000  0.6973333  3
    848    845    857    860     1  0.0000000  1.0460000  1
    848    845    857    860     1  0.0000000  0.6694400  3
    848    849    850    853     1  0.0000000  0.6508444  3
    848    849    855    861     1  0.0000000  1.0460000  1
    848    849    855    861     1  0.0000000  0.6694400  3
    849    848    856    859     1  0.0000000  1.0460000  1
    849    848    856    859     1  0.0000000  0.6694400  3
    850    849    848    852     1  0.0000000  0.6508444  3
    850    849    855    861     1  0.0000000  1.0460000  1
    850    849    855    861     1  0.0000000  0.6694400  3
    851    849    848    856     1  0.0000000  1.0460000  1
    851    849    848    856     1  0.0000000  0.0000000  3
    851    849    848    852     1  0.0000000  0.6508444  3
    851    849    850    854     1  0.0000000  1.0460000  1
    851    849    850    854     1  0.0000000  0.0000000  3
    851    849    850    866     1  0.0000000  1.0460000  1
    851    849    850    866     1  0.0000000  0.0000000  3
    851    849    850    853     1  0.0000000  0.6508444  3
    851    849    855    861     1  0.0000000  0.6973333  3
    852    848    845    857     1  0.0000000  1.0460000  1
    852    848    845    857     1  0.0000000  0.0000000  3
    852    848    849    855     1  0.0000000  1.0460000  1
    852    848    849    855     1  0.0000000  0.0000000  3
    852    848    856    859     1  0.0000000  0.6973333  3
    853    850    849    855     1  0.0000000  0.6508444  3
    862    858    844    866     1  0.0000000  1.0460000  1
    862    858    844    866     1  0.0000000  0.0000000  3
    862    858    864    865     1  0.0000000  0.6973333  3
    863    858    844    866     1  0.0000000  1.0460000  1
    863    858    844    866     1  0.0000000  0.0000000  3
    863    858    864    865     1  0.0000000  0.6973333  3
    867    868    871    875     1  0.0000000  0.6508444  3
    867    868    880    883     1  0.0000000  1.0460000  1
    867    868    880    883     1  0.0000000  0.6694400  3
    867    881    887    888     1  0.0000000  1.0460000  1
    867    881    887    888     1  0.0000000  0.6694400  3
    867    889    873    876     1  0.0000000  1.6038667  3
    868    871    872    874     1  0.0000000  0.6508444  3
    868    871    879    882     1  0.0000000  1.0460000  1
    868    871    879    882     1  0.0000000  0.6694400  3
    868    867    881    885     1  0.0000000  0.6508444  3
    868    867    881    886     1  0.0000000  0.6508444  3
    869    867    868    871     1  0.0000000  0.6508444  3
    869    867    868    880     1  0.0000000  1.0460000  1
    869    867    868    880     1  0.0000000  0.0000000  3
    869    867    868    870     1  0.0000000  0.6508444  3
    869    867    881    887     1  0.0000000  1.0460000  1
    869    867    881    887     1  0.0000000  0.0000000  3
    869    867    881    885     1  0.0000000  0.6508444  3
    869    867    881    886     1  0.0000000  0.6508444  3
    869    867    889    873     1  0.0000000  1.6038667  3
    870    868    871    872     1  0.0000000  0.6508444  3
    870    868    871    879     1  0.0000000  1.0460000  1
    870    868    871    879     1  0.0000000  0.0000000  3
    870    868    871    875     1  0.0000000  0.6508444  3
    870    868    880    883     1  0.0000000  0.6973333  3
    870    868    867    881     1  0.0000000  0.6508444  3
    870    868    867    889     1  0.0000000  1.0460000  1
    870    868    867    889     1  0.0000000  0.0000000  3
    871    872    873    876     1  0.0000000  0.6508444  3
    871    872    878    884     1  0.0000000  1.0460000  1
    871    872    878    884     1  0.0000000  0.6694400  3
    871    868    880    883     1  0.0000000  1.0460000  1
    871    868    880    883     1  0.0000000  0.6694400  3
    872    871    879    882     1  0.0000000  1.0460000  1
    872    871    879    882     1  0.0000000  0.6694400  3
    873    872    878    884     1  0.0000000  1.0460000  1
    873    872    878    884     1  0.0000000  0.6694400  3
    873    872    871    875     1  0.0000000  0.6508444  3
    874    872    873    877     1  0.0000000  1.0460000  1
    874    872    873    877     1  0.0000000  0.0000000  3
    874    872    873    889     1  0.0000000  1.0460000  1
    874    872    873    889     1  0.0000000  0.0000000  3
    874    872    873    876     1  0.0000000  0.6508444  3
    874    872    878    884     1  0.0000000  0.6973333  3
    874    872    871    879     1  0.0000000  1.0460000  1
    874    872    871    879     1  0.0000000  0.0000000  3
    874    872    871    875     1  0.0000000  0.6508444  3
    875    871    872    878     1  0.0000000  1.0460000  1
    875    871    872    878     1  0.0000000  0.0000000  3
    875    871    879    882     1  0.0000000  0.6973333  3
    875    871    868    880     1  0.0000000  1.0460000  1
    875    871    868    880     1  0.0000000  0.0000000  3
    876    873    872    878     1  0.0000000  0.6508444  3
    885    881    887    888     1  0.0000000  0.6973333  3
    885    881    867    889     1  0.0000000  1.0460000  1
    885    881    867    889     1  0.0000000  0.0000000  3
    886    881    887    888     1  0.0000000  0.6973333  3
    886    881    867    889     1  0.0000000  1.0460000  1
    886    881    867    889     1  0.0000000  0.0000000  3
    890    891    894    898     1  0.0000000  0.6508444  3
    890    891    903    906     1  0.0000000  1.0460000  1
    890    891    903    906     1  0.0000000  0.6694400  3
    890    904    910    911     1  0.0000000  1.0460000  1
    890    904    910    911     1  0.0000000  0.6694400  3
    890    912    896    899     1  0.0000000  1.6038667  3
    891    890    904    908     1  0.0000000  0.6508444  3
    891    890    904    909     1  0.0000000  0.6508444  3
    891    894    895    897     1  0.0000000  0.6508444  3
    891    894    902    905     1  0.0000000  1.0460000  1
    891    894    902    905     1  0.0000000  0.6694400  3
    892    890    891    894     1  0.0000000  0.6508444  3
    892    890    891    903     1  0.0000000  1.0460000  1
    892    890    891    903     1  0.0000000  0.0000000  3
    892    890    891    893     1  0.0000000  0.6508444  3
    892    890    904    910     1  0.0000000  1.0460000  1
    892    890    904    910     1  0.0000000  0.0000000  3
    892    890    904    908     1  0.0000000  0.6508444  3
    892    890    904    909     1  0.0000000  0.6508444  3
    892    890    912    896     1  0.0000000  1.6038667  3
    893    891    890    904     1  0.0000000  0.6508444  3
    893    891    890    912     1  0.0000000  1.0460000  1
    893    891    890    912     1  0.0000000  0.0000000  3
    893    891    894    895     1  0.0000000  0.6508444  3
    893    891    894    902     1  0.0000000  1.0460000  1
    893    891    894    902     1  0.0000000  0.0000000  3
    893    891    894    898     1  0.0000000  0.6508444  3
    893    891    903    906     1  0.0000000  0.6973333  3
    894    891    903    906     1  0.0000000  1.0460000  1
    894    891    903    906     1  0.0000000  0.6694400  3
    894    895    896    899     1  0.0000000  0.6508444  3
    894    895    901    907     1  0.0000000  1.0460000  1
    894    895    901    907     1  0.0000000  0.6694400  3
    895    894    902    905     1  0.0000000  1.0460000  1
    895    894    902    905     1  0.0000000  0.6694400  3
    896    895    894    898     1  0.0000000  0.6508444  3
    896    895    901    907     1  0.0000000  1.0460000  1
    896    895    901    907     1  0.0000000  0.6694400  3
    897    895    894    902     1  0.0000000  1.0460000  1
    897    895    894    902     1  0.0000000  0.0000000  3
    897    895    894    898     1  0.0000000  0.6508444  3
    897    895    896    900     1  0.0000000  1.0460000  1
    897    895    896    900     1  0.0000000  0.0000000  3
    897    895    896    912     1  0.0000000  1.0460000  1
    897    895    896    912     1  0.0000000  0.0000000  3
    897    895    896    899     1  0.0000000  0.6508444  3
    897    895    901    907     1  0.0000000  0.6973333  3
    898    894    891    903     1  0.0000000  1.0460000  1
    898    894    891    903     1  0.0000000  0.0000000  3
    898    894    895    901     1  0.0000000  1.0460000  1
    898    894    895    901     1  0.0000000  0.0000000  3
    898    894    902    905     1  0.0000000  0.6973333  3
    899    896    895    901     1  0.0000000  0.6508444  3
    908    904    890    912     1  0.0000000  1.0460000  1
    908    904    890    912     1  0.0000000  0.0000000  3
    908    904    910    911     1  0.0000000  0.6973333  3
    909    904    890    912     1  0.0000000  1.0460000  1
    909    904    890    912     1  0.0000000  0.0000000  3
    909    904    910    911     1  0.0000000  0.6973333  3
    913    914    917    921     1  0.0000000  0.6508444  3
    913    914    926    929     1  0.0000000  1.0460000  1
    913    914    926    929     1  0.0000000  0.6694400  3
    913    927    933    934     1  0.0000000  1.0460000  1
    913    927    933    934     1  0.0000000  0.6694400  3
    913    935    919    922     1  0.0000000  1.6038667  3
    914    917    918    920     1  0.0000000  0.6508444  3
    914    917    925    928     1  0.0000000  1.0460000  1
    914    917    925    928     1  0.0000000  0.6694400  3
    914    913    927    931     1  0.0000000  0.6508444  3
    914    913    927    932     1  0.0000000  0.6508444  3
    915    913    914    917     1  0.0000000  0.6508444  3
    915    913    914    926     1  0.0000000  1.0460000  1
    915    913    914    926     1  0.0000000  0.0000000  3
    915    913    914    916     1  0.0000000  0.6508444  3
    915    913    927    933     1  0.0000000  1.0460000  1
    915    913    927    933     1  0.0000000  0.0000000  3
    915    913    927    931     1  0.0000000  0.6508444  3
    915    913    927    932     1  0.0000000  0.6508444  3
    915    913    935    919     1  0.0000000  1.6038667  3
    916    914    917    918     1  0.0000000  0.6508444  3
    916    914    917    925     1  0.0000000  1.0460000  1
    916    914    917    925     1  0.0000000  0.0000000  3
    916    914    917    921     1  0.0000000  0.6508444  3
    916    914    926    929     1  0.0000000  0.6973333  3
    916    914    913    927     1  0.0000000  0.6508444  3
    916    914    913    935     1  0.0000000  1.0460000  1
    916    914    913    935     1  0.0000000  0.0000000  3
    917    918    919    922     1  0.0000000  0.6508444  3
    917    918    924    930     1  0.0000000  1.0460000  1
    917    918    924    930     1  0.0000000  0.6694400  3
    917    914    926    929     1  0.0000000  1.0460000  1
    917    914    926    929     1  0.0000000  0.6694400  3
    918    917    925    928     1  0.0000000  1.0460000  1
    918    917    925    928     1  0.0000000  0.6694400  3
    919    918    924    930     1  0.0000000  1.0460000  1
    919    918    924    930     1  0.0000000  0.6694400  3
    919    918    917    921     1  0.0000000  0.6508444  3
    920    918    919    923     1  0.0000000  1.0460000  1
    920    918    919    923     1  0.0000000  0.0000000  3
    920    918    919    935     1  0.0000000  1.0460000  1
    920    918    919    935     1  0.0000000  0.0000000  3
    920    918    919    922     1  0.0000000  0.6508444  3
    920    918    924    930     1  0.0000000  0.6973333  3
    920    918    917    925     1  0.0000000  1.0460000  1
    920    918    917    925     1  0.0000000  0.0000000  3
    920    918    917    921     1  0.0000000  0.6508444  3
    921    917    918    924     1  0.0000000  1.0460000  1
    921    917    918    924     1  0.0000000  0.0000000  3
    921    917    925    928     1  0.0000000  0.6973333  3
    921    917    914    926     1  0.0000000  1.0460000  1
    921    917    914    926     1  0.0000000  0.0000000  3
    922    919    918    924     1  0.0000000  0.6508444  3
    931    927    933    934     1  0.0000000  0.6973333  3
    931    927    913    935     1  0.0000000  1.0460000  1
    931    927    913    935     1  0.0000000  0.0000000  3
    932    927    933    934     1  0.0000000  0.6973333  3
    932    927    913    935     1  0.0000000  1.0460000  1
    932    927    913    935     1  0.0000000  0.0000000  3
    936    937    940    944     1  0.0000000  0.6508444  3
    936    937    949    952     1  0.0000000  1.0460000  1
    936    937    949    952     1  0.0000000  0.6694400  3
    936    950    956    957     1  0.0000000  1.0460000  1
    936    950    956    957     1  0.0000000  0.6694400  3
    936    958    942    945     1  0.0000000  1.6038667  3
    937    936    950    954     1  0.0000000  0.6508444  3
    937    936    950    955     1  0.0000000  0.6508444  3
    937    940    941    943     1  0.0000000  0.6508444  3
    937    940    948    951     1  0.0000000  1.0460000  1
    937    940    948    951     1  0.0000000  0.6694400  3
    938    936    937    940     1  0.0000000  0.6508444  3
    938    936    937    949     1  0.0000000  1.0460000  1
    938    936    937    949     1  0.0000000  0.0000000  3
    938    936    937    939     1  0.0000000  0.6508444  3
    938    936    950    956     1  0.0000000  1.0460000  1
    938    936    950    956     1  0.0000000  0.0000000  3
    938    936    950    954     1  0.0000000  0.6508444  3
    938    936    950    955     1  0.0000000  0.6508444  3
    938    936    958    942     1  0.0000000  1.6038667  3
    939    937    936    950     1  0.0000000  0.6508444  3
    939    937    936    958     1  0.0000000  1.0460000  1
    939    937    936    958     1  0.0000000  0.0000000  3
    939    937    940    941     1  0.0000000  0.6508444  3
    939    937    940    948     1  0.0000000  1.0460000  1
    939    937    940    948     1  0.0000000  0.0000000  3
    939    937    940    944     1  0.0000000  0.6508444  3
    939    937    949    952     1  0.0000000  0.6973333  3
    940    937    949    952     1  0.0000000  1.0460000  1
    940    937    949    952     1  0.0000000  0.6694400  3
    940    941    942    945     1  0.0000000  0.6508444  3
    940    941    947    953     1  0.0000000  1.0460000  1
    940    941    947    953     1  0.0000000  0.6694400  3
    941    940    948    951     1  0.0000000  1.0460000  1
    941    940    948    951     1  0.0000000  0.6694400  3
    942    941    940    944     1  0.0000000  0.6508444  3
    942    941    947    953     1  0.0000000  1.0460000  1
    942    941    947    953     1  0.0000000  0.6694400  3
    943    941    940    948     1  0.0000000  1.0460000  1
    943    941    940    948     1  0.0000000  0.0000000  3
    943    941    940    944     1  0.0000000  0.6508444  3
    943    941    942    946     1  0.0000000  1.0460000  1
    943    941    942    946     1  0.0000000  0.0000000  3
    943    941    942    958     1  0.0000000  1.0460000  1
    943    941    942    958     1  0.0000000  0.0000000  3
    943    941    942    945     1  0.0000000  0.6508444  3
    943    941    947    953     1  0.0000000  0.6973333  3
    944    940    937    949     1  0.0000000  1.0460000  1
    944    940    937    949     1  0.0000000  0.0000000  3
    944    940    941    947     1  0.0000000  1.0460000  1
    944    940    941    947     1  0.0000000  0.0000000  3
    944    940    948    951     1  0.0000000  0.6973333  3
    945    942    941    947     1  0.0000000  0.6508444  3
    954    950    936    958     1  0.0000000  1.0460000  1
    954    950    936    958     1  0.0000000  0.0000000  3
    954    950    956    957     1  0.0000000  0.6973333  3
    955    950    936    958     1  0.0000000  1.0460000  1
    955    950    936    958     1  0.0000000  0.0000000  3
    955    950    956    957     1  0.0000000  0.6973333  3
    959    960    963    967     1  0.0000000  0.6508444  3
    959    960    972    975     1  0.0000000  1.0460000  1
    959    960    972    975     1  0.0000000  0.6694400  3
    959    973    979    980     1  0.0000000  1.0460000  1
    959    973    979    980     1  0.0000000  0.6694400  3
    959    981    965    968     1  0.0000000  1.6038667  3
    960    963    964    966     1  0.0000000  0.6508444  3
    960    963    971    974     1  0.0000000  1.0460000  1
    960    963    971    974     1  0.0000000  0.6694400  3
    960    959    973    977     1  0.0000000  0.6508444  3
    960    959    973    978     1  0.0000000  0.6508444  3
    961    959    960    963     1  0.0000000  0.6508444  3
    961    959    960    972     1  0.0000000  1.0460000  1
    961    959    960    972     1  0.0000000  0.0000000  3
    961    959    960    962     1  0.0000000  0.6508444  3
    961    959    973    979     1  0.0000000  1.0460000  1
    961    959    973    979     1  0.0000000  0.0000000  3
    961    959    973    977     1  0.0000000  0.6508444  3
    961    959    973    978     1  0.0000000  0.6508444  3
    961    959    981    965     1  0.0000000  1.6038667  3
    962    960    963    964     1  0.0000000  0.6508444  3
    962    960    963    971     1  0.0000000  1.0460000  1
    962    960    963    971     1  0.0000000  0.0000000  3
    962    960    963    967     1  0.0000000  0.6508444  3
    962    960    972    975     1  0.0000000  0.6973333  3
    962    960    959    973     1  0.0000000  0.6508444  3
    962    960    959    981     1  0.0000000  1.0460000  1
    962    960    959    981     1  0.0000000  0.0000000  3
    963    964    965    968     1  0.0000000  0.6508444  3
    963    964    970    976     1  0.0000000  1.0460000  1
    963    964    970    976     1  0.0000000  0.6694400  3
    963    960    972    975     1  0.0000000  1.0460000  1
    963    960    972    975     1  0.0000000  0.6694400  3
    964    963    971    974     1  0.0000000  1.0460000  1
    964    963    971    974     1  0.0000000  0.6694400  3
    965    964    970    976     1  0.0000000  1.0460000  1
    965    964    970    976     1  0.0000000  0.6694400  3
    965    964    963    967     1  0.0000000  0.6508444  3
    966    964    965    969     1  0.0000000  1.0460000  1
    966    964    965    969     1  0.0000000  0.0000000  3
    966    964    965    981     1  0.0000000  1.0460000  1
    966    964    965    981     1  0.0000000  0.0000000  3
    966    964    965    968     1  0.0000000  0.6508444  3
    966    964    970    976     1  0.0000000  0.6973333  3
    966    964    963    971     1  0.0000000  1.0460000  1
    966    964    963    971     1  0.0000000  0.0000000  3
    966    964    963    967     1  0.0000000  0.6508444  3
    967    963    964    970     1  0.0000000  1.0460000  1
    967    963    964    970     1  0.0000000  0.0000000  3
    967    963    971    974     1  0.0000000  0.6973333  3
    967    963    960    972     1  0.0000000  1.0460000  1
    967    963    960    972     1  0.0000000  0.0000000  3
    968    965    964    970     1  0.0000000  0.6508444  3
    977    973    979    980     1  0.0000000  0.6973333  3
    977    973    959    981     1  0.0000000  1.0460000  1
    977    973    959    981     1  0.0000000  0.0000000  3
    978    973    979    980     1  0.0000000  0.6973333  3
    978    973    959    981     1  0.0000000  1.0460000  1
    978    973    959    981     1  0.0000000  0.0000000  3
    982    983    986    990     1  0.0000000  0.6508444  3
    982    983    995    998     1  0.0000000  1.0460000  1
    982    983    995    998     1  0.0000000  0.6694400  3
    982    996   1002   1003     1  0.0000000  1.0460000  1
    982    996   1002   1003     1  0.0000000  0.6694400  3
    982   1004    988    991     1  0.0000000  1.6038667  3
    983    982    996   1000     1  0.0000000  0.6508444  3
    983    982    996   1001     1  0.0000000  0.6508444  3
    983    986    987    989     1  0.0000000  0.6508444  3
    983    986    994    997     1  0.0000000  1.0460000  1
    983    986    994    997     1  0.0000000  0.6694400  3
    984    982    983    986     1  0.0000000  0.6508444  3
    984    982    983    995     1  0.0000000  1.0460000  1
    984    982    983    995     1  0.0000000  0.0000000  3
    984    982    983    985     1  0.0000000  0.6508444  3
    984    982    996   1002     1  0.0000000  1.0460000  1
    984    982    996   1002     1  0.0000000  0.0000000  3
    984    982    996   1000     1  0.0000000  0.6508444  3
    984    982    996   1001     1  0.0000000  0.6508444  3
    984    982   1004    988     1  0.0000000  1.6038667  3
    985    983    982    996     1  0.0000000  0.6508444  3
    985    983    982   1004     1  0.0000000  1.0460000  1
    985    983    982   1004     1  0.0000000  0.0000000  3
    985    983    986    987     1  0.0000000  0.6508444  3
    985    983    986    994     1  0.0000000  1.0460000  1
    985    983    986    994     1  0.0000000  0.0000000  3
    985    983    986    990     1  0.0000000  0.6508444  3
    985    983    995    998     1  0.0000000  0.6973333  3
    986    983    995    998     1  0.0000000  1.0460000  1
    986    983    995    998     1  0.0000000  0.6694400  3
    986    987    988    991     1  0.0000000  0.6508444  3
    986    987    993    999     1  0.0000000  1.0460000  1
    986    987    993    999     1  0.0000000  0.6694400  3
    987    986    994    997     1  0.0000000  1.0460000  1
    987    986    994    997     1  0.0000000  0.6694400  3
    988    987    986    990     1  0.0000000  0.6508444  3
    988    987    993    999     1  0.0000000  1.0460000  1
    988    987    993    999     1  0.0000000  0.6694400  3
    989    987    986    994     1  0.0000000  1.0460000  1
    989    987    986    994     1  0.0000000  0.0000000  3
    989    987    986    990     1  0.0000000  0.6508444  3
    989    987    988    992     1  0.0000000  1.0460000  1
    989    987    988    992     1  0.0000000  0.0000000  3
    989    987    988   1004     1  0.0000000  1.0460000  1
    989    987    988   1004     1  0.0000000  0.0000000  3
    989    987    988    991     1  0.0000000  0.6508444  3
    989    987    993    999     1  0.0000000  0.6973333  3
    990    986    983    995     1  0.0000000  1.0460000  1
    990    986    983    995     1  0.0000000  0.0000000  3
    990    986    987    993     1  0.0000000  1.0460000  1
    990    986    987    993     1  0.0000000  0.0000000  3
    990    986    994    997     1  0.0000000  0.6973333  3
    991    988    987    993     1  0.0000000  0.6508444  3
   1000    996    982   1004     1  0.0000000  1.0460000  1
   1000    996    982   1004     1  0.0000000  0.0000000  3
   1000    996   1002   1003     1  0.0000000  0.6973333  3
   1001    996    982   1004     1  0.0000000  1.0460000  1
   1001    996    982   1004     1  0.0000000  0.0000000  3
   1001    996   1002   1003     1  0.0000000  0.6973333  3
   1005   1006   1009   1013     1  0.0000000  0.6508444  3
   1005   1006   1018   1021     1  0.0000000  1.0460000  1
   1005   1006   1018   1021     1  0.0000000  0.6694400  3
   1005   1019   1025   1026     1  0.0000000  1.0460000  1
   1005   1019   1025   1026     1  0.0000000  0.6694400  3
   1005   1027   1011   1014     1  0.0000000  1.6038667  3
   1006   1009   1010   1012     1  0.0000000  0.6508444  3
   1006   1009   1017   1020     1  0.0000000  1.0460000  1
   1006   1009   1017   1020     1  0.0000000  0.6694400  3
   1006   1005   1019   1023     1  0.0000000  0.6508444  3
   1006   1005   1019   1024     1  0.0000000  0.6508444  3
   1007   1005   1006   1009     1  0.0000000  0.6508444  3
   1007   1005   1006   1018     1  0.0000000  1.0460000  1
   1007   1005   1006   1018     1  0.0000000  0.0000000  3
   1007   1005   1006   1008     1  0.0000000  0.6508444  3
   1007   1005   1019   1025     1  0.0000000  1.0460000  1
   1007   1005   1019   1025     1  0.0000000  0.0000000  3
   1007   1005   1019   1023     1  0.0000000  0.6508444  3
   1007   1005   1019   1024     1  0.0000000  0.6508444  3
   1007   1005   1027   1011     1  0.0000000  1.6038667  3
   1008   1006   1009   1010     1  0.0000000  0.6508444  3
   1008   1006   1009   1017     1  0.0000000  1.0460000  1
   1008   1006   1009   1017     1  0.0000000  0.0000000  3
   1008   1006   1009   1013     1  0.0000000  0.6508444  3
   1008   1006   1018   1021     1  0.0000000  0.6973333  3
   1008   1006   1005   1019     1  0.0000000  0.6508444  3
   1008   1006   1005   1027     1  0.0000000  1.0460000  1
   1008   1006   1005   1027     1  0.0000000  0.0000000  3
   1009   1010   1011   1014     1  0.0000000  0.6508444  3
   1009   1010   1016   1022     1  0.0000000  1.0460000  1
   1009   1010   1016   1022     1  0.0000000  0.6694400  3
   1009   1006   1018   1021     1  0.0000000  1.0460000  1
   1009   1006   1018   1021     1  0.0000000  0.6694400  3
   1010   1009   1017   1020     1  0.0000000  1.0460000  1
   1010   1009   1017   1020     1  0.0000000  0.6694400  3
   1011   1010   1016   1022     1  0.0000000  1.0460000  1
   1011   1010   1016   1022     1  0.0000000  0.6694400  3
   1011   1010   1009   1013     1  0.0000000  0.6508444  3
   1012   1010   1011   1015     1  0.0000000  1.0460000  1
   1012   1010   1011   1015     1  0.0000000  0.0000000  3
   1012   1010   1011   1027     1  0.0000000  1.0460000  1
   1012   1010   1011   1027     1  0.0000000  0.0000000  3
   1012   1010   1011   1014     1  0.0000000  0.6508444  3
   1012   1010   1016   1022     1  0.0000000  0.6973333  3
   1012   1010   1009   1017     1  0.0000000  1.0460000  1
   1012   1010   1009   1017     1  0.0000000  0.0000000  3
   1012   1010   1009   1013     1  0.0000000  0.6508444  3
   1013   1009   1010   1016     1  0.0000000  1.0460000  1
   1013   1009   1010   1016     1  0.0000000  0.0000000  3
   1013   1009   1017   1020     1  0.0000000  0.6973333  3
   1013   1009   1006   1018     1  0.0000000  1.0460000  1
   1013   1009   1006   1018     1  0.0000000  0.0000000  3
   1014   1011   1010   1016     1  0.0000000  0.6508444  3
   1023   1019   1025   1026     1  0.0000000  0.6973333  3
   1023   1019   1005   1027     1  0.0000000  1.0460000  1
   1023   1019   1005   1027     1  0.0000000  0.0000000  3
   1024   1019   1025   1026     1  0.0000000  0.6973333  3
   1024   1019   1005   1027     1  0.0000000  1.0460000  1
   1024   1019   1005   1027     1  0.0000000  0.0000000  3
   1028   1029   1032   1036     1  0.0000000  0.6508444  3
   1028   1029   1041   1044     1  0.0000000  1.0460000  1
   1028   1029   1041   1044     1  0.0000000  0.6694400  3
   1028   1042   1048   1049     1  0.0000000  1.0460000  1
   1028   1042   1048   1049     1  0.0000000  0.6694400  3
   1028   1050   1034   1037     1  0.0000000  1.6038667  3
   1029   1028   1042   1046     1  0.0000000  0.6508444  3
   1029   1028   1042   1047     1  0.0000000  0.6508444  3
   1029   1032   1033   1035     1  0.0000000  0.6508444  3
   1029   1032   1040   1043     1  0.0000000  1.0460000  1
   1029   1032   1040   1043     1  0.0000000  0.6694400  3
   1030   1028   1029   1032     1  0.0000000  0.6508444  3
   1030   1028   1029   1041     1  0.0000000  1.0460000  1
   1030   1028   1029   1041     1  0.0000000  0.0000000  3
   1030   1028   1029   1031     1  0.0000000  0.6508444  3
   1030   1028   1042   1048     1  0.0000000  1.0460000  1
   1030   1028   1042   1048     1  0.0000000  0.0000000  3
   1030   1028   1042   1046     1  0.0000000  0.6508444  3
   1030   1028   1042   1047     1  0.0000000  0.6508444  3
   1030   1028   1050   1034     1  0.0000000  1.6038667  3
   1031   1029   1028   1042     1  0.0000000  0.6508444  3
   1031   1029   1028   1050     1  0.0000000  1.0460000  1
   1031   1029   1028   1050     1  0.0000000  0.0000000  3
   1031   1029   1032   1033     1  0.0000000  0.6508444  3
   1031   1029   1032   1040     1  0.0000000  1.0460000  1
   1031   1029   1032   1040     1  0.0000000  0.0000000  3
   1031   1029   1032   1036     1  0.0000000  0.6508444  3
   1031   1029   1041   1044     1  0.0000000  0.6973333  3
   1032   1029   1041   1044     1  0.0000000  1.0460000  1
   1032   1029   1041   1044     1  0.0000000  0.6694400  3
   1032   1033   1034   1037     1  0.0000000  0.6508444  3
   1032   1033   1039   1045     1  0.0000000  1.0460000  1
   1032   1033   1039   1045     1  0.0000000  0.6694400  3
   1033   1032   1040   1043     1  0.0000000  1.0460000  1
   1033   1032   1040   1043     1  0.0000000  0.6694400  3
   1034   1033   1032   1036     1  0.0000000  0.6508444  3
   1034   1033   1039   1045     1  0.0000000  1.0460000  1
   1034   1033   1039   1045     1  0.0000000  0.6694400  3
   1035   1033   1032   1040     1  0.0000000  1.0460000  1
   1035   1033   1032   1040     1  0.0000000  0.0000000  3
   1035   1033   1032   1036     1  0.0000000  0.6508444  3
   1035   1033   1034   1038     1  0.0000000  1.0460000  1
   1035   1033   1034   1038     1  0.0000000  0.0000000  3
   1035   1033   1034   1050     1  0.0000000  1.0460000  1
   1035   1033   1034   1050     1  0.0000000  0.0000000  3
   1035   1033   1034   1037     1  0.0000000  0.6508444  3
   1035   1033   1039   1045     1  0.0000000  0.6973333  3
   1036   1032   1029   1041     1  0.0000000  1.0460000  1
   1036   1032   1029   1041     1  0.0000000  0.0000000  3
   1036   1032   1033   1039     1  0.0000000  1.0460000  1
   1036   1032   1033   1039     1  0.0000000  0.0000000  3
   1036   1032   1040   1043     1  0.0000000  0.6973333  3
   1037   1034   1033   1039     1  0.0000000  0.6508444  3
   1046   1042   1028   1050     1  0.0000000  1.0460000  1
   1046   1042   1028   1050     1  0.0000000  0.0000000  3
   1046   1042   1048   1049     1  0.0000000  0.6973333  3
   1047   1042   1028   1050     1  0.0000000  1.0460000  1
   1047   1042   1028   1050     1  0.0000000  0.0000000  3
   1047   1042   1048   1049     1  0.0000000  0.6973333  3
   1051   1052   1055   1059     1  0.0000000  0.6508444  3
   1051   1052   1064   1067     1  0.0000000  1.0460000  1
   1051   1052   1064   1067     1  0.0000000  0.6694400  3
   1051   1065   1071   1072     1  0.0000000  1.0460000  1
   1051   1065   1071   1072     1  0.0000000  0.6694400  3
   1051   1073   1057   1060     1  0.0000000  1.6038667  3
   1052   1055   1056   1058     1  0.0000000  0.6508444  3
   1052   1055   1063   1066     1  0.0000000  1.0460000  1
   1052   1055   1063   1066     1  0.0000000  0.6694400  3
   1052   1051   1065   1069     1  0.0000000  0.6508444  3
   1052   1051   1065   1070     1  0.0000000  0.6508444  3
   1053   1051   1052   1055     1  0.0000000  0.6508444  3
   1053   1051   1052   1064     1  0.0000000  1.0460000  1
   1053   1051   1052   1064     1  0.0000000  0.0000000  3
   1053   1051   1052   1054     1  0.0000000  0.6508444  3
   1053   1051   1065   1071     1  0.0000000  1.0460000  1
   1053   1051   1065   1071     1  0.0000000  0.0000000  3
   1053   1051   1065   1069     1  0.0000000  0.6508444  3
   1053   1051   1065   1070     1  0.0000000  0.6508444  3
   1053   1051   1073   1057     1  0.0000000  1.6038667  3
   1054   1052   1055   1056     1  0.0000000  0.6508444  3
   1054   1052   1055   1063     1  0.0000000  1.0460000  1
   1054   1052   1055   1063     1  0.0000000  0.0000000  3
   1054   1052   1055   1059     1  0.0000000  0.6508444  3
   1054   1052   1064   1067     1  0.0000000  0.6973333  3
   1054   1052   1051   1065     1  0.0000000  0.6508444  3
   1054   1052   1051   1073     1  0.0000000  1.0460000  1
   1054   1052   1051   1073     1  0.0000000  0.0000000  3
   1055   1056   1057   1060     1  0.0000000  0.6508444  3
   1055   1056   1062   1068     1  0.0000000  1.0460000  1
   1055   1056   1062   1068     1  0.0000000  0.6694400  3
   1055   1052   1064   1067     1  0.0000000  1.0460000  1
   1055   1052   1064   1067     1  0.0000000  0.6694400  3
   1056   1055   1063   1066     1  0.0000000  1.0460000  1
   1056   1055   1063   1066     1  0.0000000  0.6694400  3
   1057   1056   1062   1068     1  0.0000000  1.0460000  1
   1057   1056   1062   1068     1  0.0000000  0.6694400  3
   1057   1056   1055   1059     1  0.0000000  0.6508444  3
   1058   1056   1057   1061     1  0.0000000  1.0460000  1
   1058   1056   1057   1061     1  0.0000000  0.0000000  3
   1058   1056   1057   1073     1  0.0000000  1.0460000  1
   1058   1056   1057   1073     1  0.0000000  0.0000000  3
   1058   1056   1057   1060     1  0.0000000  0.6508444  3
   1058   1056   1062   1068     1  0.0000000  0.6973333  3
   1058   1056   1055   1063     1  0.0000000  1.0460000  1
   1058   1056   1055   1063     1  0.0000000  0.0000000  3
   1058   1056   1055   1059     1  0.0000000  0.6508444  3
   1059   1055   1056   1062     1  0.0000000  1.0460000  1
   1059   1055   1056   1062     1  0.0000000  0.0000000  3
   1059   1055   1063   1066     1  0.0000000  0.6973333  3
   1059   1055   1052   1064     1  0.0000000  1.0460000  1
   1059   1055   1052   1064     1  0.0000000  0.0000000  3
   1060   1057   1056   1062     1  0.0000000  0.6508444  3
   1069   1065   1071   1072     1  0.0000000  0.6973333  3
   1069   1065   1051   1073     1  0.0000000  1.0460000  1
   1069   1065   1051   1073     1  0.0000000  0.0000000  3
   1070   1065   1071   1072     1  0.0000000  0.6973333  3
   1070   1065   1051   1073     1  0.0000000  1.0460000  1
   1070   1065   1051   1073     1  0.0000000  0.0000000  3
   1074   1075   1078   1082     1  0.0000000  0.6508444  3
   1074   1075   1087   1090     1  0.0000000  1.0460000  1
   1074   1075   1087   1090     1  0.0000000  0.6694400  3
   1074   1088   1094   1095     1  0.0000000  1.0460000  1
   1074   1088   1094   1095     1  0.0000000  0.6694400  3
   1074   1096   1080   1083     1  0.0000000  1.6038667  3
   1075   1074   1088   1092     1  0.0000000  0.6508444  3
   1075   1074   1088   1093     1  0.0000000  0.6508444  3
   1075   1078   1079   1081     1  0.0000000  0.6508444  3
   1075   1078   1086   1089     1  0.0000000  1.0460000  1
   1075   1078   1086   1089     1  0.0000000  0.6694400  3
   1076   1074   1075   1078     1  0.0000000  0.6508444  3
   1076   1074   1075   1087     1  0.0000000  1.0460000  1
   1076   1074   1075   1087     1  0.0000000  0.0000000  3
   1076   1074   1075   1077     1  0.0000000  0.6508444  3
   1076   1074   1088   1094     1  0.0000000  1.0460000  1
   1076   1074   1088   1094     1  0.0000000  0.0000000  3
   1076   1074   1088   1092     1  0.0000000  0.6508444  3
   1076   1074   1088   1093     1  0.0000000  0.6508444  3
   1076   1074   1096   1080     1  0.0000000  1.6038667  3
   1077   1075   1074   1088     1  0.0000000  0.6508444  3
   1077   1075   1074   1096     1  0.0000000  1.0460000  1
   1077   1075   1074   1096     1  0.0000000  0.0000000  3
   1077   1075   1078   1079     1  0.0000000  0.6508444  3
   1077   1075   1078   1086     1  0.0000000  1.0460000  1
   1077   1075   1078   1086     1  0.0000000  0.0000000  3
   1077   1075   1078   1082     1  0.0000000  0.6508444  3
   1077   1075   1087   1090     1  0.0000000  0.6973333  3
   1078   1075   1087   1090     1  0.0000000  1.0460000  1
   1078   1075   1087   1090     1  0.0000000  0.6694400  3
   1078   1079   1080   1083     1  0.0000000  0.6508444  3
   1078   1079   1085   1091     1  0.0000000  1.0460000  1
   1078   1079   1085   1091     1  0.0000000  0.6694400  3
   1079   1078   1086   1089     1  0.0000000  1.0460000  1
   1079   1078   1086   1089     1  0.0000000  0.6694400  3
   1080   1079   1078   1082     1  0.0000000  0.6508444  3
   1080   1079   1085   1091     1  0.0000000  1.0460000  1
   1080   1079   1085   1091     1  0.0000000  0.6694400  3
   1081   1079   1078   1086     1  0.0000000  1.0460000  1
   1081   1079   1078   1086     1  0.0000000  0.0000000  3
   1081   1079   1078   1082     1  0.0000000  0.6508444  3
   1081   1079   1080   1084     1  0.0000000  1.0460000  1
   1081   1079   1080   1084     1  0.0000000  0.0000000  3
   1081   1079   1080   1096     1  0.0000000  1.0460000  1
   1081   1079   1080   1096     1  0.0000000  0.0000000  3
   1081   1079   1080   1083     1  0.0000000  0.6508444  3
   1081   1079   1085   1091     1  0.0000000  0.6973333  3
   1082   1078   1075   1087     1  0.0000000  1.0460000  1
   1082   1078   1075   1087     1  0.0000000  0.0000000  3
   1082   1078   1079   1085     1  0.0000000  1.0460000  1
   1082   1078   1079   1085     1  0.0000000  0.0000000  3
   1082   1078   1086   1089     1  0.0000000  0.6973333  3
   1083   1080   1079   1085     1  0.0000000  0.6508444  3
   1092   1088   1074   1096     1  0.0000000  1.0460000  1
   1092   1088   1074   1096     1  0.0000000  0.0000000  3
   1092   1088   1094   1095     1  0.0000000  0.6973333  3
   1093   1088   1074   1096     1  0.0000000  1.0460000  1
   1093   1088   1074   1096     1  0.0000000  0.0000000  3
   1093   1088   1094   1095     1  0.0000000  0.6973333  3
   1097   1098   1101   1105     1  0.0000000  0.6508444  3
   1097   1098   1110   1113     1  0.0000000  1.0460000  1
   1097   1098   1110   1113     1  0.0000000  0.6694400  3
   1097   1111   1117   1118     1  0.0000000  1.0460000  1
   1097   1111   1117   1118     1  0.0000000  0.6694400  3
   1097   1119   1103   1106     1  0.0000000  1.6038667  3
   1098   1101   1102   1104     1  0.0000000  0.6508444  3
   1098   1101   1109   1112     1  0.0000000  1.0460000  1
   1098   1101   1109   1112     1  0.0000000  0.6694400  3
   1098   1097   1111   1115     1  0.0000000  0.6508444  3
   1098   1097   1111   1116     1  0.0000000  0.6508444  3
   1099   1097   1098   1101     1  0.0000000  0.6508444  3
   1099   1097   1098   1110     1  0.0000000  1.0460000  1
   1099   1097   1098   1110     1  0.0000000  0.0000000  3
   1099   1097   1098   1100     1  0.0000000  0.6508444  3
   1099   1097   1111   1117     1  0.0000000  1.0460000  1
   1099   1097   1111   1117     1  0.0000000  0.0000000  3
   1099   1097   1111   1115     1  0.0000000  0.6508444  3
   1099   1097   1111   1116     1  0.0000000  0.6508444  3
   1099   1097   1119   1103     1  0.0000000  1.6038667  3
   1100   1098   1101   1102     1  0.0000000  0.6508444  3
   1100   1098   1101   1109     1  0.0000000  1.0460000  1
   1100   1098   1101   1109     1  0.0000000  0.0000000  3
   1100   1098   1101   1105     1  0.0000000  0.6508444  3
   1100   1098   1110   1113     1  0.0000000  0.6973333  3
   1100   1098   1097   1111     1  0.0000000  0.6508444  3
   1100   1098   1097   1119     1  0.0000000  1.0460000  1
   1100   1098   1097   1119     1  0.0000000  0.0000000  3
   1101   1102   1103   1106     1  0.0000000  0.6508444  3
   1101   1102   1108   1114     1  0.0000000  1.0460000  1
   1101   1102   1108   1114     1  0.0000000  0.6694400  3
   1101   1098   1110   1113     1  0.0000000  1.0460000  1
   1101   1098   1110   1113     1  0.0000000  0.6694400  3
   1102   1101   1109   1112     1  0.0000000  1.0460000  1
   1102   1101   1109   1112     1  0.0000000  0.6694400  3
   1103   1102   1108   1114     1  0.0000000  1.0460000  1
   1103   1102   1108   1114     1  0.0000000  0.6694400  3
   1103   1102   1101   1105     1  0.0000000  0.6508444  3
   1104   1102   1103   1107     1  0.0000000  1.0460000  1
   1104   1102   1103   1107     1  0.0000000  0.0000000  3
   1104   1102   1103   1119     1  0.0000000  1.0460000  1
   1104   1102   1103   1119     1  0.0000000  0.0000000  3
   1104   1102   1103   1106     1  0.0000000  0.6508444  3
   1104   1102   1108   1114     1  0.0000000  0.6973333  3
   1104   1102   1101   1109     1  0.0000000  1.0460000  1
   1104   1102   1101   1109     1  0.0000000  0.0000000  3
   1104   1102   1101   1105     1  0.0000000  0.6508444  3
   1105   1101   1102   1108     1  0.0000000  1.0460000  1
   1105   1101   1102   1108     1  0.0000000  0.0000000  3
   1105   1101   1109   1112     1  0.0000000  0.6973333  3
   1105   1101   1098   1110     1  0.0000000  1.0460000  1
   1105   1101   1098   1110     1  0.0000000  0.0000000  3
   1106   1103   1102   1108     1  0.0000000  0.6508444  3
   1115   1111   1117   1118     1  0.0000000  0.6973333  3
   1115   1111   1097   1119     1  0.0000000  1.0460000  1
   1115   1111   1097   1119     1  0.0000000  0.0000000  3
   1116   1111   1117   1118     1  0.0000000  0.6973333  3
   1116   1111   1097   1119     1  0.0000000  1.0460000  1
   1116   1111   1097   1119     1  0.0000000  0.0000000  3
   1120   1121   1124   1128     1  0.0000000  0.6508444  3
   1120   1121   1133   1136     1  0.0000000  1.0460000  1
   1120   1121   1133   1136     1  0.0000000  0.6694400  3
   1120   1134   1140   1141     1  0.0000000  1.0460000  1
   1120   1134   1140   1141     1  0.0000000  0.6694400  3
   1120   1142   1126   1129     1  0.0000000  1.6038667  3
   1121   1120   1134   1138     1  0.0000000  0.6508444  3
   1121   1120   1134   1139     1  0.0000000  0.6508444  3
   1121   1124   1125   1127     1  0.0000000  0.6508444  3
   1121   1124   1132   1135     1  0.0000000  1.0460000  1
   1121   1124   1132   1135     1  0.0000000  0.6694400  3
   1122   1120   1121   1124     1  0.0000000  0.6508444  3
   1122   1120   1121   1133     1  0.0000000  1.0460000  1
   1122   1120   1121   1133     1  0.0000000  0.0000000  3
   1122   1120   1121   1123     1  0.0000000  0.6508444  3
   1122   1120   1134   1140     1  0.0000000  1.0460000  1
   1122   1120   1134   1140     1  0.0000000  0.0000000  3
   1122   1120   1134   1138     1  0.0000000  0.6508444  3
   1122   1120   1134   1139     1  0.0000000  0.6508444  3
   1122   1120   1142   1126     1  0.0000000  1.6038667  3
   1123   1121   1120   1134     1  0.0000000  0.6508444  3
   1123   1121   1120   1142     1  0.0000000  1.0460000  1
   1123   1121   1120   1142     1  0.0000000  0.0000000  3
   1123   1121   1124   1125     1  0.0000000  0.6508444  3
   1123   1121   1124   1132     1  0.0000000  1.0460000  1
   1123   1121   1124   1132     1  0.0000000  0.0000000  3
   1123   1121   1124   1128     1  0.0000000  0.6508444  3
   1123   1121   1133   1136     1  0.0000000  0.6973333  3
   1124   1121   1133   1136     1  0.0000000  1.0460000  1
   1124   1121   1133   1136     1  0.0000000  0.6694400  3
   1124   1125   1126   1129     1  0.0000000  0.6508444  3
   1124   1125   1131   1137     1  0.0000000  1.0460000  1
   1124   1125   1131   1137     1  0.0000000  0.6694400  3
   1125   1124   1132   1135     1  0.0000000  1.0460000  1
   1125   1124   1132   1135     1  0.0000000  0.6694400  3
   1126   1125   1124   1128     1  0.0000000  0.6508444  3
   1126   1125   1131   1137     1  0.0000000  1.0460000  1
   1126   1125   1131   1137     1  0.0000000  0.6694400  3
   1127   1125   1124   1132     1  0.0000000  1.0460000  1
   1127   1125   1124   1132     1  0.0000000  0.0000000  3
   1127   1125   1124   1128     1  0.0000000  0.6508444  3
   1127   1125   1126   1130     1  0.0000000  1.0460000  1
   1127   1125   1126   1130     1  0.0000000  0.0000000  3
   1127   1125   1126   1142     1  0.0000000  1.0460000  1
   1127   1125   1126   1142     1  0.0000000  0.0000000  3
   1127   1125   1126   1129     1  0.0000000  0.6508444  3
   1127   1125   1131   1137     1  0.0000000  0.6973333  3
   1128   1124   1121   1133     1  0.0000000  1.0460000  1
   1128   1124   1121   1133     1  0.0000000  0.0000000  3
   1128   1124   1125   1131     1  0.0000000  1.0460000  1
   1128   1124   1125   1131     1  0.0000000  0.0000000  3
   1128   1124   1132   1135     1  0.0000000  0.6973333  3
   1129   1126   1125   1131     1  0.0000000  0.6508444  3
   1138   1134   1120   1142     1  0.0000000  1.0460000  1
   1138   1134   1120   1142     1  0.0000000  0.0000000  3
   1138   1134   1140   1141     1  0.0000000  0.6973333  3
   1139   1134   1120   1142     1  0.0000000  1.0460000  1
   1139   1134   1120   1142     1  0.0000000  0.0000000  3
   1139   1134   1140   1141     1  0.0000000  0.6973333  3
   1143   1144   1147   1151     1  0.0000000  0.6508444  3
   1143   1144   1156   1159     1  0.0000000  1.0460000  1
   1143   1144   1156   1159     1  0.0000000  0.6694400  3
   1143   1157   1163   1164     1  0.0000000  1.0460000  1
   1143   1157   1163   1164     1  0.0000000  0.6694400  3
   1143   1165   1149   1152     1  0.0000000  1.6038667  3
   1144   1147   1148   1150     1  0.0000000  0.6508444  3
   1144   1147   1155   1158     1  0.0000000  1.0460000  1
   1144   1147   1155   1158     1  0.0000000  0.6694400  3
   1144   1143   1157   1161     1  0.0000000  0.6508444  3
   1144   1143   1157   1162     1  0.0000000  0.6508444  3
   1145   1143   1144   1147     1  0.0000000  0.6508444  3
   1145   1143   1144   1156     1  0.0000000  1.0460000  1
   1145   1143   1144   1156     1  0.0000000  0.0000000  3
   1145   1143   1144   1146     1  0.0000000  0.6508444  3
   1145   1143   1157   1163     1  0.0000000  1.0460000  1
   1145   1143   1157   1163     1  0.0000000  0.0000000  3
   1145   1143   1157   1161     1  0.0000000  0.6508444  3
   1145   1143   1157   1162     1  0.0000000  0.6508444  3
   1145   1143   1165   1149     1  0.0000000  1.6038667  3
   1146   1144   1147   1148     1  0.0000000  0.6508444  3
   1146   1144   1147   1155     1  0.0000000  1.0460000  1
   1146   1144   1147   1155     1  0.0000000  0.0000000  3
   1146   1144   1147   1151     1  0.0000000  0.6508444  3
   1146   1144   1156   1159     1  0.0000000  0.6973333  3
   1146   1144   1143   1157     1  0.0000000  0.6508444  3
   1146   1144   1143   1165     1  0.0000000  1.0460000  1
   1146   1144   1143   1165     1  0.0000000  0.0000000  3
   1147   1148   1149   1152     1  0.0000000  0.6508444  3
   1147   1148   1154   1160     1  0.0000000  1.0460000  1
   1147   1148   1154   1160     1  0.0000000  0.6694400  3
   1147   1144   1156   1159     1  0.0000000  1.0460000  1
   1147   1144   1156   1159     1  0.0000000  0.6694400  3
   1148   1147   1155   1158     1  0.0000000  1.0460000  1
   1148   1147   1155   1158     1  0.0000000  0.6694400  3
   1149   1148   1154   1160     1  0.0000000  1.0460000  1
   1149   1148   1154   1160     1  0.0000000  0.6694400  3
   1149   1148   1147   1151     1  0.0000000  0.6508444  3
   1150   1148   1149   1153     1  0.0000000  1.0460000  1
   1150   1148   1149   1153     1  0.0000000  0.0000000  3
   1150   1148   1149   1165     1  0.0000000  1.0460000  1
   1150   1148   1149   1165     1  0.0000000  0.0000000  3
   1150   1148   1149   1152     1  0.0000000  0.6508444  3
   1150   1148   1154   1160     1  0.0000000  0.6973333  3
   1150   1148   1147   1155     1  0.0000000  1.0460000  1
   1150   1148   1147   1155     1  0.0000000  0.0000000  3
   1150   1148   1147   1151     1  0.0000000  0.6508444  3
   1151   1147   1148   1154     1  0.0000000  1.0460000  1
   1151   1147   1148   1154     1  0.0000000  0.0000000  3
   1151   1147   1155   1158     1  0.0000000  0.6973333  3
   1151   1147   1144   1156     1  0.0000000  1.0460000  1
   1151   1147   1144   1156     1  0.0000000  0.0000000  3
   1152   1149   1148   1154     1  0.0000000  0.6508444  3
   1161   1157   1163   1164     1  0.0000000  0.6973333  3
   1161   1157   1143   1165     1  0.0000000  1.0460000  1
   1161   1157   1143   1165     1  0.0000000  0.0000000  3
   1162   1157   1163   1164     1  0.0000000  0.6973333  3
   1162   1157   1143   1165     1  0.0000000  1.0460000  1
   1162   1157   1143   1165     1  0.0000000  0.0000000  3
   1166   1167   1170   1174     1  0.0000000  0.6508444  3
   1166   1167   1179   1182     1  0.0000000  1.0460000  1
   1166   1167   1179   1182     1  0.0000000  0.6694400  3
   1166   1180   1186   1187     1  0.0000000  1.0460000  1
   1166   1180   1186   1187     1  0.0000000  0.6694400  3
   1166   1188   1172   1175     1  0.0000000  1.6038667  3
   1167   1166   1180   1184     1  0.0000000  0.6508444  3
   1167   1166   1180   1185     1  0.0000000  0.6508444  3
   1167   1170   1171   1173     1  0.0000000  0.6508444  3
   1167   1170   1178   1181     1  0.0000000  1.0460000  1
   1167   1170   1178   1181     1  0.0000000  0.6694400  3
   1168   1166   1167   1170     1  0.0000000  0.6508444  3
   1168   1166   1167   1179     1  0.0000000  1.0460000  1
   1168   1166   1167   1179     1  0.0000000  0.0000000  3
   1168   1166   1167   1169     1  0.0000000  0.6508444  3
   1168   1166   1180   1186     1  0.0000000  1.0460000  1
   1168   1166   1180   1186     1  0.0000000  0.0000000  3
   1168   1166   1180   1184     1  0.0000000  0.6508444  3
   1168   1166   1180   1185     1  0.0000000  0.6508444  3
   1168   1166   1188   1172     1  0.0000000  1.6038667  3
   1169   1167   1166   1180     1  0.0000000  0.6508444  3
   1169   1167   1166   1188     1  0.0000000  1.0460000  1
   1169   1167   1166   1188     1  0.0000000  0.0000000  3
   1169   1167   1170   1171     1  0.0000000  0.6508444  3
   1169   1167   1170   1178     1  0.0000000  1.0460000  1
   1169   1167   1170   1178     1  0.0000000  0.0000000  3
   1169   1167   1170   1174     1  0.0000000  0.6508444  3
   1169   1167   1179   1182     1  0.0000000  0.6973333  3
   1170   1167   1179   1182     1  0.0000000  1.0460000  1
   1170   1167   1179   1182     1  0.0000000  0.6694400  3
   1170   1171   1172   1175     1  0.0000000  0.6508444  3
   1170   1171   1177   1183     1  0.0000000  1.0460000  1
   1170   1171   1177   1183     1  0.0000000  0.6694400  3
   1171   1170   1178   1181     1  0.0000000  1.0460000  1
   1171   1170   1178   1181     1  0.0000000  0.6694400  3
   1172   1171   1170   1174     1  0.0000000  0.6508444  3
   1172   1171   1177   1183     1  0.0000000  1.0460000  1
   1172   1171   1177   1183     1  0.0000000  0.6694400  3
   1173   1171   1170   1178     1  0.0000000  1.0460000  1
   1173   1171   1170   1178     1  0.0000000  0.0000000  3
   1173   1171   1170   1174     1  0.0000000  0.6508444  3
   1173   1171   1172   1176     1  0.0000000  1.0460000  1
   1173   1171   1172   1176     1  0.0000000  0.0000000  3
   1173   1171   1172   1188     1  0.0000000  1.0460000  1
   1173   1171   1172   1188     1  0.0000000  0.0000000  3
   1173   1171   1172   1175     1  0.0000000  0.6508444  3
   1173   1171   1177   1183     1  0.0000000  0.6973333  3
   1174   1170   1167   1179     1  0.0000000  1.0460000  1
   1174   1170   1167   1179     1  0.0000000  0.0000000  3
   1174   1170   1171   1177     1  0.0000000  1.0460000  1
   1174   1170   1171   1177     1  0.0000000  0.0000000  3
   1174   1170   1178   1181     1  0.0000000  0.6973333  3
   1175   1172   1171   1177     1  0.0000000  0.6508444  3
   1184   1180   1166   1188     1  0.0000000  1.0460000  1
   1184   1180   1166   1188     1  0.0000000  0.0000000  3
   1184   1180   1186   1187     1  0.0000000  0.6973333  3
   1185   1180   1166   1188     1  0.0000000  1.0460000  1
   1185   1180   1166   1188     1  0.0000000  0.0000000  3
   1185   1180   1186   1187     1  0.0000000  0.6973333  3
   1189   1190   1193   1197     1  0.0000000  0.6508444  3
   1189   1190   1202   1205     1  0.0000000  1.0460000  1
   1189   1190   1202   1205     1  0.0000000  0.6694400  3
   1189   1203   1209   1210     1  0.0000000  1.0460000  1
   1189   1203   1209   1210     1  0.0000000  0.6694400  3
   1189   1211   1195   1198     1  0.0000000  1.6038667  3
   1190   1193   1194   1196     1  0.0000000  0.6508444  3
   1190   1193   1201   1204     1  0.0000000  1.0460000  1
   1190   1193   1201   1204     1  0.0000000  0.6694400  3
   1190   1189   1203   1207     1  0.0000000  0.6508444  3
   1190   1189   1203   1208     1  0.0000000  0.6508444  3
   1191   1189   1190   1193     1  0.0000000  0.6508444  3
   1191   1189   1190   1202     1  0.0000000  1.0460000  1
   1191   1189   1190   1202     1  0.0000000  0.0000000  3
   1191   1189   1190   1192     1  0.0000000  0.6508444  3
   1191   1189   1203   1209     1  0.0000000  1.0460000  1
   1191   1189   1203   1209     1  0.0000000  0.0000000  3
   1191   1189   1203   1207     1  0.0000000  0.6508444  3
   1191   1189   1203   1208     1  0.0000000  0.6508444  3
   1191   1189   1211   1195     1  0.0000000  1.6038667  3
   1192   1190   1193   1194     1  0.0000000  0.6508444  3
   1192   1190   1193   1201     1  0.0000000  1.0460000  1
   1192   1190   1193   1201     1  0.0000000  0.0000000  3
   1192   1190   1193   1197     1  0.0000000  0.6508444  3
   1192   1190   1202   1205     1  0.0000000  0.6973333  3
   1192   1190   1189   1203     1  0.0000000  0.6508444  3
   1192   1190   1189   1211     1  0.0000000  1.0460000  1
   1192   1190   1189   1211     1  0.0000000  0.0000000  3
   1193   1194   1195   1198     1  0.0000000  0.6508444  3
   1193   1194   1200   1206     1  0.0000000  1.0460000  1
   1193   1194   1200   1206     1  0.0000000  0.6694400  3
   1193   1190   1202   1205     1  0.0000000  1.0460000  1
   1193   1190   1202   1205     1  0.0000000  0.6694400  3
   1194   1193   1201   1204     1  0.0000000  1.0460000  1
   1194   1193   1201   1204     1  0.0000000  0.6694400  3
   1195   1194   1200   1206     1  0.0000000  1.0460000  1
   1195   1194   1200   1206     1  0.0000000  0.6694400  3
   1195   1194   1193   1197     1  0.0000000  0.6508444  3
   1196   1194   1195   1199     1  0.0000000  1.0460000  1
   1196   1194   1195   1199     1  0.0000000  0.0000000  3
   1196   1194   1195   1211     1  0.0000000  1.0460000  1
   1196   1194   1195   1211     1  0.0000000  0.0000000  3
   1196   1194   1195   1198     1  0.0000000  0.6508444  3
   1196   1194   1200   1206     1  0.0000000  0.6973333  3
   1196   1194   1193   1201     1  0.0000000  1.0460000  1
   1196   1194   1193   1201     1  0.0000000  0.0000000  3
   1196   1194   1193   1197     1  0.0000000  0.6508444  3
   1197   1193   1194   1200     1  0.0000000  1.0460000  1
   1197   1193   1194   1200     1  0.0000000  0.0000000  3
   1197   1193   1201   1204     1  0.0000000  0.6973333  3
   1197   1193   1190   1202     1  0.0000000  1.0460000  1
   1197   1193   1190   1202     1  0.0000000  0.0000000  3
   1198   1195   1194   1200     1  0.0000000  0.6508444  3
   1207   1203   1209   1210     1  0.0000000  0.6973333  3
   1207   1203   1189   1211     1  0.0000000  1.0460000  1
   1207   1203   1189   1211     1  0.0000000  0.0000000  3
   1208   1203   1209   1210     1  0.0000000  0.6973333  3
   1208   1203   1189   1211     1  0.0000000  1.0460000  1
   1208   1203   1189   1211     1  0.0000000  0.0000000  3

;[ system ]
;; Name
;Generic title
;
;[ molecules ]
;; Compound       #mols
;system1              1
